/*--------------------------------*- C++ -*----------------------------------*\
  =========                 |
  \\      /  F ield         | OpenFOAM: The Open Source CFD Toolbox
   \\    /   O peration     | Website:  https://openfoam.org
    \\  /    A nd           | Version:  7
     \\/     M anipulation  |
\*---------------------------------------------------------------------------*/
FoamFile
{
    version     2.0;
    format      ascii;
    class       volScalarField;
    location    "3";
    object      T;
}
// * * * * * * * * * * * * * * * * * * * * * * * * * * * * * * * * * * * * * //

dimensions      [0 0 0 1 0 0 0];

internalField   nonuniform List<scalar> 
32100
(
7.78294e+83
-8.14294e+82
3.64986e+81
3.19556e+80
-8.52066e+79
-4.38387e+78
1.05461e+78
-8.21908e+76
-6.45849e+75
1.41488e+75
5.1809e+73
-3.59061e+72
1.93876e+70
1.63157e+70
5.72544e+69
-8.96826e+82
3.80979e+81
3.5362e+80
-8.78588e+79
-4.66283e+78
1.09163e+78
-8.36638e+76
-6.68201e+75
1.48418e+75
1.128e+74
8.43158e+72
-4.71467e+72
1.08735e+71
1.35208e+70
4.37194e+69
3.93224e+81
4.05675e+80
-9.17528e+79
-5.00676e+78
1.14081e+78
-8.6805e+76
-7.19209e+75
1.48844e+75
7.81854e+73
-2.55593e+73
-1.64796e+72
-2.87396e+72
1.48805e+71
1.33031e+70
3.53271e+69
4.92665e+80
-9.66639e+79
-5.88101e+78
1.22101e+78
-8.63218e+76
-9.11457e+75
1.30039e+75
8.83939e+73
-2.4702e+73
-8.24854e+71
-2.11386e+72
-1.20487e+72
1.43146e+71
1.44746e+70
2.54396e+69
-8.86579e+79
-6.47666e+78
9.41823e+77
-7.13954e+76
-6.94326e+75
-1.78892e+74
-1.33201e+74
-2.13435e+73
1.04512e+72
-7.31497e+71
-6.79183e+71
-3.16902e+71
1.11169e+71
1.33129e+70
1.3915e+69
4.02536e+78
1.36089e+78
-4.29691e+77
6.54293e+75
2.74443e+75
-1.5533e+75
-2.55345e+74
2.13673e+72
-4.12274e+70
-2.99743e+71
-1.31138e+70
-3.35576e+69
7.18493e+70
9.54889e+69
4.3867e+68
1.22363e+79
-3.65502e+76
-3.40207e+77
1.34141e+76
1.59128e+75
-1.57988e+75
-2.36009e+74
-1.09381e+72
-7.73571e+70
-2.04285e+71
7.01169e+70
5.28484e+70
3.80465e+70
5.06448e+69
-1.40732e+68
9.73491e+78
1.48666e+77
-3.20145e+77
8.62598e+75
1.76943e+75
-1.44755e+75
-2.42171e+74
-3.00434e+72
4.42526e+70
-2.23481e+71
4.50304e+70
3.41906e+70
1.56272e+70
1.69795e+69
-3.56099e+68
8.98597e+78
2.53408e+77
-3.10305e+77
5.10512e+75
2.06626e+75
-1.33482e+75
-2.45234e+74
-4.77891e+72
1.32297e+71
-2.36036e+71
1.73e+70
1.40587e+70
4.46599e+69
4.2041e+67
-3.28809e+68
8.20565e+78
3.3645e+77
-2.97252e+77
1.70051e+75
2.28862e+75
-1.21542e+75
-2.46421e+74
-6.63297e+72
2.09034e+71
-2.27381e+71
5.06727e+69
7.19763e+69
6.39483e+68
-3.79105e+68
-2.08409e+68
7.47263e+78
4.11682e+77
-2.83e+77
-1.72888e+75
2.46152e+75
-1.09332e+75
-2.45924e+74
-8.49664e+72
2.62507e+71
-2.08987e+71
-3.14474e+68
5.61754e+69
2.39332e+66
-2.77119e+68
-9.70784e+67
6.79304e+78
4.73127e+77
-2.66369e+77
-4.9762e+75
2.591e+75
-9.71224e+74
-2.43841e+74
-1.03186e+73
2.85477e+71
-1.87016e+71
-3.56685e+69
4.81445e+69
1.80622e+68
-1.08514e+68
-3.0441e+67
6.12267e+78
4.91216e+77
-2.40396e+77
-7.70606e+75
2.59272e+75
-8.52276e+74
-2.4044e+74
-1.20441e+73
2.75978e+71
-1.64315e+71
-5.85724e+69
3.92294e+69
2.53054e+68
-2.62874e+67
-4.72962e+66
5.15182e+78
4.25549e+77
-1.86618e+77
-8.94076e+75
2.23299e+75
-7.44794e+74
-2.33293e+74
-1.35723e+73
2.33887e+71
-1.42137e+71
-7.91073e+69
3.34469e+69
2.20282e+68
-9.85098e+66
-2.46794e+65
3.39377e+78
3.53227e+77
-1.43631e+77
-8.9761e+75
1.79478e+75
-5.83274e+74
-2.0632e+74
-1.41811e+73
1.72203e+71
-1.2355e+71
-1.02259e+70
3.45807e+69
2.63505e+68
-5.82963e+66
8.11886e+65
2.54202e+78
3.44733e+77
-1.19509e+77
-9.16341e+75
1.58965e+75
-4.32602e+74
-1.81434e+74
-1.47846e+73
1.07662e+71
-1.08047e+71
-1.28775e+70
3.61169e+69
3.70586e+68
-4.74298e+66
1.30626e+66
2.25283e+78
3.47085e+77
-1.04682e+77
-9.6536e+75
1.51925e+75
-3.37263e+74
-1.70695e+74
-1.60149e+73
2.67025e+70
-9.27723e+70
-1.53326e+70
3.37353e+69
4.53771e+68
-3.03859e+66
1.47904e+66
1.97434e+78
3.48381e+77
-9.51252e+76
-1.04577e+76
1.45177e+75
-2.67825e+74
-1.64338e+74
-1.75468e+73
-8.731e+70
-7.68512e+70
-1.74089e+70
2.95562e+69
5.08617e+68
3.68033e+65
1.3567e+66
1.74372e+78
3.46223e+77
-8.56179e+76
-1.12992e+76
1.33802e+75
-2.04669e+74
-1.58715e+74
-1.92747e+73
-2.36429e+71
-6.06878e+70
-1.90578e+70
2.4418e+69
5.4197e+68
5.06223e+66
1.03669e+66
1.53971e+78
3.41714e+77
-7.56849e+76
-1.20663e+76
1.1906e+75
-1.4326e+74
-1.52416e+74
-2.10551e+73
-4.23203e+71
-4.50386e+70
-2.02371e+70
1.91655e+69
5.77228e+68
1.08268e+67
6.24813e+65
1.34818e+78
3.32903e+77
-6.54016e+76
-1.27075e+76
1.01405e+75
-8.36939e+73
-1.44998e+74
-2.28141e+73
-6.50715e+71
-3.06893e+70
-2.09255e+70
1.33934e+69
5.97075e+68
1.72982e+67
1.82801e+65
1.16621e+78
3.19374e+77
-5.51532e+76
-1.32255e+76
8.08477e+74
-2.70321e+73
-1.3626e+74
-2.45554e+73
-9.24379e+71
-1.84199e+70
-2.11553e+70
7.28926e+68
5.8716e+68
2.35589e+67
-1.93743e+65
9.97786e+77
3.02662e+77
-4.52514e+76
-1.35929e+76
5.74036e+74
2.4959e+73
-1.26124e+74
-2.62759e+73
-1.25274e+72
-9.09104e+69
-2.10002e+70
1.32047e+68
5.73621e+68
2.97448e+67
-4.39044e+65
8.44963e+77
2.83986e+77
-3.57675e+76
-1.37802e+76
3.11255e+74
7.02879e+73
-1.14638e+74
-2.79657e+73
-1.64568e+72
-3.87693e+69
-2.0499e+70
-4.59531e+68
5.64451e+68
3.64236e+67
-5.51971e+65
7.09554e+77
2.64825e+77
-2.68478e+76
-1.37942e+76
2.34378e+73
1.07614e+74
-1.01833e+74
-2.95631e+73
-2.11436e+72
-4.41287e+69
-1.95707e+70
-1.07152e+69
5.56455e+68
4.41028e+67
-5.50034e+65
5.90988e+77
2.45294e+77
-1.84973e+76
-1.36144e+76
-2.85258e+74
1.35479e+74
-8.77484e+73
-3.09616e+73
-2.671e+72
-1.29361e+70
-1.81286e+70
-1.73821e+69
5.4814e+68
5.36118e+67
-4.41729e+65
4.90035e+77
2.2586e+77
-1.07384e+76
-1.32441e+76
-6.11093e+74
1.52202e+74
-7.25288e+73
-3.20828e+73
-3.32557e+72
-3.24578e+70
-1.60365e+70
-2.45819e+69
5.27287e+68
6.47448e+67
-1.93022e+65
4.04885e+77
2.07959e+77
-3.58522e+75
-1.27186e+76
-9.49067e+74
1.56065e+74
-5.63203e+73
-3.28259e+73
-4.07654e+72
-6.76489e+70
-1.32558e+70
-3.16628e+69
4.76265e+68
7.55006e+67
2.41326e+65
3.31542e+77
1.91447e+77
2.95559e+75
-1.20378e+76
-1.29246e+75
1.45503e+74
-3.94206e+73
-3.31128e+73
-4.92752e+72
-1.24694e+71
-9.90702e+69
-3.84768e+69
4.00273e+68
8.62474e+67
8.80289e+65
2.67363e+77
1.74312e+77
8.72619e+75
-1.11538e+76
-1.62958e+75
1.18736e+74
-2.21996e+73
-3.28402e+73
-5.89758e+72
-2.107e+71
-6.26139e+69
-4.48266e+69
2.97432e+68
9.7416e+67
1.74371e+66
2.11793e+77
1.5472e+77
1.33857e+76
-1.00274e+76
-1.94728e+75
7.40243e+73
-5.14402e+72
-3.18612e+73
-6.99748e+72
-3.36932e+71
-2.74525e+69
-4.95085e+69
1.57408e+68
1.05985e+68
2.78681e+66
1.65915e+77
1.34037e+77
1.68277e+76
-8.70545e+75
-2.23173e+75
9.85784e+72
1.09337e+73
-2.99636e+73
-8.21795e+72
-5.17309e+71
-2.20913e+68
-5.15973e+69
-4.74992e+66
1.12442e+68
4.02936e+66
1.29999e+77
1.16141e+77
1.96638e+76
-7.23169e+75
-2.46445e+75
-7.49467e+73
2.48333e+73
-2.68609e+73
-9.50299e+72
-7.71115e+71
-4.74303e+68
-5.25272e+69
-1.95884e+68
1.22484e+68
5.82792e+66
1.00819e+77
1.02476e+77
2.2563e+76
-5.6137e+75
-2.63699e+75
-1.8087e+74
3.49127e+73
-2.2388e+73
-1.07397e+73
-1.1184e+72
-6.73508e+69
-5.21709e+69
-4.69272e+68
1.3827e+68
8.89562e+66
7.63253e+76
9.01798e+76
2.50477e+76
-3.86669e+75
-2.74242e+75
-3.07958e+74
3.87891e+73
-1.65363e+73
-1.17719e+73
-1.58044e+72
-2.46437e+70
-4.62048e+69
-8.56864e+68
1.54114e+68
1.4157e+67
5.65219e+76
7.71579e+76
2.6472e+76
-2.01389e+75
-2.763e+75
-4.54193e+74
3.35195e+73
-9.49464e+72
-1.24047e+73
-2.16644e+72
-6.38018e+70
-3.2094e+69
-1.38077e+69
1.58991e+68
2.29147e+67
4.07194e+76
6.48737e+76
2.71583e+76
-9.4115e+73
-2.67763e+75
-6.12256e+74
1.72752e+73
-1.78629e+72
-1.24545e+73
-2.8598e+72
-1.37192e+71
-9.54184e+68
-2.0209e+69
1.298e+68
3.66559e+67
2.80101e+76
5.40763e+76
2.74879e+76
1.86401e+75
-2.45994e+75
-7.68631e+74
-1.11515e+73
5.75213e+72
-1.17437e+73
-3.62071e+72
-2.58426e+71
1.204e+69
-2.56033e+69
3.46861e+67
5.52338e+67
1.80037e+76
4.43774e+76
2.73374e+76
3.81812e+75
-2.07796e+75
-9.00687e+74
-5.25233e+73
1.20222e+73
-1.01107e+73
-4.35335e+72
-4.35704e+71
7.65174e+68
-2.72083e+69
-1.53012e+68
7.5637e+67
1.03738e+76
3.55565e+76
2.65922e+76
5.66489e+75
-1.51161e+75
-9.89342e+74
-1.05657e+74
1.55714e+73
-7.54502e+72
-4.90388e+72
-6.67093e+71
-6.01935e+69
-2.19603e+69
-4.63855e+68
9.02245e+67
4.94198e+75
2.73496e+76
2.49566e+76
7.2003e+75
-8.08637e+74
-1.02193e+75
-1.66417e+74
1.48305e+73
-4.25096e+72
-5.15062e+72
-9.38029e+71
-2.35654e+70
-5.15827e+68
-8.98916e+68
8.01155e+67
1.51599e+75
1.995e+76
2.23678e+76
8.23187e+75
-4.3497e+73
-9.92515e+74
-2.28713e+74
9.1017e+72
-5.59768e+71
-5.06286e+72
-1.21085e+72
-5.49028e+70
1.90033e+69
-1.21591e+69
2.84243e+67
-3.27682e+74
1.38968e+76
1.91134e+76
8.77154e+75
7.22439e+74
-9.01508e+74
-2.85807e+74
-1.89708e+72
2.96863e+72
-4.63165e+72
-1.40742e+72
-9.41017e+70
3.94922e+69
-1.27255e+69
-5.96728e+67
-1.19784e+75
9.42309e+75
1.58402e+76
8.95908e+75
1.4455e+75
-7.55584e+74
-3.32619e+74
-1.70475e+73
5.34309e+72
-3.91434e+72
-1.53954e+72
-1.35988e+71
5.15309e+69
-1.10056e+69
-1.68433e+68
-1.53254e+75
6.27993e+75
1.30216e+76
8.88833e+75
2.10161e+75
-5.66711e+74
-3.66311e+74
-3.42455e+73
6.49455e+72
-2.92122e+72
-1.64857e+72
-1.7271e+71
4.63969e+69
-8.45121e+68
-4.34327e+68
-1.59985e+75
4.06836e+75
1.06465e+76
8.61532e+75
2.68099e+75
-3.46783e+74
-3.87551e+74
-5.2234e+73
6.76515e+72
-1.85573e+72
-1.55221e+72
-1.84448e+71
2.87736e+69
-1.38437e+68
-2.90664e+68
-1.53013e+75
2.47861e+75
8.65338e+75
8.23115e+75
3.17817e+75
-1.04668e+74
-3.98173e+74
-7.16446e+73
6.18503e+72
-9.2993e+71
-1.39319e+72
-1.84344e+71
1.25267e+69
1.21787e+68
-1.44919e+68
-1.37769e+75
1.336e+75
6.91678e+75
7.74836e+75
3.58405e+75
1.55458e+74
-3.95939e+74
-9.21906e+73
5.06664e+72
-1.758e+71
-1.32073e+72
-1.91327e+71
1.53905e+68
2.31566e+68
-1.09854e+68
-1.18362e+75
5.21679e+74
5.35526e+75
7.13421e+75
3.87856e+75
4.2694e+74
-3.75308e+74
-1.1294e+74
3.15379e+72
5.12604e+71
-1.27762e+72
-2.0399e+71
-8.678e+68
3.021e+68
-1.15389e+68
-9.7546e+74
-1.90829e+73
4.0102e+75
6.44464e+75
4.0725e+75
7.04586e+74
-3.34997e+74
-1.32814e+74
2.74075e+71
1.17121e+72
-1.23853e+72
-2.18849e+71
-2.01095e+69
3.4942e+68
-1.41017e+68
-7.75423e+74
-3.51027e+74
2.90061e+75
5.72595e+75
4.18979e+75
9.87876e+74
-2.79013e+74
-1.519e+74
-3.62407e+72
1.80074e+72
-1.18689e+72
-2.31513e+71
-3.29329e+69
3.3647e+68
-1.75271e+68
-5.93277e+74
-5.30019e+74
1.97303e+75
4.9353e+75
4.23294e+75
1.27671e+75
-2.05223e+74
-1.71036e+74
-8.74044e+72
2.39026e+72
-1.10421e+72
-2.35546e+71
-4.56729e+69
2.21632e+68
-2.10654e+68
-4.38627e+74
-5.8986e+74
1.20262e+75
4.11392e+75
4.19967e+75
1.57314e+75
-1.07144e+74
-1.89001e+74
-1.52821e+73
2.91227e+72
-9.92748e+71
-2.28865e+71
-5.62876e+69
-3.16115e+66
-2.72359e+68
-3.15068e+74
-5.71667e+74
6.11216e+74
3.32424e+75
4.11167e+75
1.87442e+75
1.97977e+73
-2.03385e+74
-2.33798e+73
3.31439e+72
-8.65665e+71
-2.12196e+71
-6.37695e+69
-3.20366e+68
-4.26879e+68
-2.17818e+74
-5.12561e+74
1.8894e+74
2.58366e+75
3.93424e+75
2.16388e+75
1.79678e+74
-2.11412e+74
-3.30704e+73
3.55783e+72
-7.32351e+71
-1.8481e+71
-6.82824e+69
-6.6936e+68
-6.80196e+68
-1.42577e+74
-4.30164e+74
-1.04511e+74
1.87828e+75
3.62527e+75
2.42268e+75
3.75698e+74
-2.09717e+74
-4.4272e+73
3.58607e+72
-6.04343e+71
-1.43885e+71
-7.19029e+69
-7.60143e+68
-7.39533e+68
-8.63934e+73
-3.35334e+74
-2.85782e+74
1.21895e+75
3.20018e+75
2.63013e+75
6.09776e+74
-1.95729e+74
-5.66888e+73
3.24727e+72
-4.74967e+71
-8.66718e+70
-6.71204e+69
-6.64529e+68
-6.84564e+68
-4.75115e+73
-2.40481e+74
-3.67722e+74
6.46011e+74
2.67142e+75
2.755e+75
8.76989e+74
-1.6478e+74
-6.98269e+73
2.57491e+72
-3.49534e+71
-2.80435e+70
-7.19298e+69
-1.04181e+69
-7.05416e+68
-2.32948e+73
-1.55712e+74
-3.70382e+74
1.81365e+74
2.06168e+75
2.76992e+75
1.17265e+75
-1.10825e+74
-8.35493e+73
1.83101e+72
-2.46631e+71
8.26914e+69
-1.01971e+70
-2.12777e+69
-1.03998e+69
-9.79789e+72
-8.80651e+73
-3.15739e+74
-1.5799e+74
1.4165e+75
2.65657e+75
1.48813e+75
-2.96551e+73
-9.86293e+73
1.88627e+72
-5.29634e+70
1.03633e+70
-1.14456e+70
-4.71613e+69
-2.32377e+69
-3.299e+72
-3.99264e+73
-2.26646e+74
-3.67136e+74
7.77638e+74
2.39696e+75
1.80316e+75
8.2859e+73
-1.11388e+74
1.50962e+72
-3.78009e+71
-1.25051e+71
-5.88628e+70
-3.75848e+70
-1.42106e+70
-1.14525e+72
-1.15924e+73
-1.25137e+74
-4.46922e+74
1.82103e+74
1.97399e+75
2.08113e+75
2.36065e+74
-1.09869e+74
-2.5994e+72
-1.35841e+71
-2.11826e+71
1.6484e+70
-1.72934e+70
-2.19162e+70
-1.01929e+72
-1.60606e+72
-3.55348e+73
-4.012e+74
-3.23962e+74
1.38594e+75
2.26343e+75
4.46257e+74
-1.05568e+74
-1.13763e+73
-2.10839e+72
-1.73271e+72
-1.38245e+72
-9.51201e+71
-3.50025e+71
-1.09146e+72
-2.27718e+72
1.60153e+73
-2.49253e+74
-6.73272e+74
6.7881e+74
2.28638e+75
7.01722e+74
-8.62569e+73
-1.79795e+73
-8.07241e+72
-4.9428e+72
-4.28399e+72
-5.59814e+72
-4.25568e+72
-1.09003e+72
-3.28612e+72
1.97266e+73
-6.81583e+73
-7.9096e+74
-3.92426e+73
2.11413e+75
9.35368e+74
-3.40242e+73
-1.76124e+73
-5.91483e+72
-6.76832e+72
-9.89486e+72
-1.18276e+73
-5.84891e+72
-8.78597e+72
-2.82314e+72
3.9039e+73
-3.27902e+73
-6.77651e+74
-5.96585e+74
1.76566e+75
1.07723e+75
5.09456e+73
-1.4459e+73
-3.40007e+72
-7.69557e+72
-1.34367e+73
-8.85334e+72
-5.54074e+72
5.89105e+74
2.56319e+74
1.37366e+74
-1.63146e+74
-6.58094e+74
-7.38103e+74
1.37651e+75
1.10706e+75
1.50751e+74
2.90119e+72
-4.31393e+72
-3.11645e+72
-3.2025e+72
-4.02966e+72
-5.26066e+72
-9.54331e+75
-3.82559e+75
-1.61836e+75
-8.09704e+74
-8.63622e+74
-4.22381e+74
1.46573e+75
1.07376e+75
2.79921e+74
5.24263e+73
5.77618e+72
-2.41879e+72
-2.78816e+72
-2.48239e+72
-4.20126e+72
5.13952e+76
1.72739e+76
2.26536e+75
-1.41599e+75
-1.61945e+75
1.29703e+75
3.24636e+75
1.46065e+75
3.99618e+74
9.9638e+73
2.19566e+73
3.15759e+72
-5.12455e+71
-1.33754e+72
-3.40552e+72
7.72989e+77
2.09034e+77
1.00483e+77
5.57976e+76
3.22782e+76
1.91372e+76
9.23404e+75
3.31168e+75
9.01001e+74
2.02173e+74
3.86515e+73
5.01436e+72
-7.09572e+71
-1.54397e+72
-4.28995e+72
8.65269e+78
2.11618e+78
1.03648e+78
5.01512e+77
2.7463e+77
1.55969e+77
6.52465e+76
1.78073e+76
4.37915e+75
1.08301e+75
3.05477e+74
1.13917e+74
5.62417e+73
3.18667e+73
6.45928e+73
-1.89474e+80
-1.90296e+79
9.43502e+76
1.18733e+78
8.61726e+77
4.08957e+77
1.26345e+77
3.2645e+76
8.63061e+75
2.6862e+75
1.08207e+75
5.58207e+74
3.25697e+74
2.02536e+74
3.02894e+74
1.87601e+81
-1.34211e+79
-3.20025e+79
-5.27225e+78
2.9511e+77
3.89391e+77
1.41341e+77
3.45595e+76
9.75006e+75
3.17649e+75
1.12046e+75
4.50452e+74
2.40792e+74
2.17917e+74
4.298e+74
-6.40253e+81
1.54234e+81
4.21788e+79
-9.66715e+77
1.44508e+78
3.93084e+77
9.13969e+76
3.59314e+76
9.82913e+75
5.0933e+75
3.35145e+75
2.29801e+75
1.39226e+75
7.96797e+74
6.48127e+74
-1.79552e+83
-7.50761e+81
1.71071e+81
-1.84343e+80
1.91212e+79
2.18989e+78
-3.4317e+77
-4.8261e+77
-4.3135e+77
-3.80477e+77
-3.07207e+77
-2.24356e+77
-1.40007e+77
-6.86664e+76
-2.5386e+76
-1.61142e+84
-1.78551e+83
-4.25375e+81
1.68814e+81
-2.38327e+80
1.909e+78
-1.47789e+79
-1.52704e+79
-1.32661e+79
-1.09103e+79
-8.51377e+78
-6.11044e+78
-3.81218e+78
-1.92872e+78
-6.87855e+77
1.93506e+85
-1.58818e+84
-1.67069e+83
-3.86034e+81
1.27467e+81
-4.25268e+80
-1.52898e+80
-1.34992e+80
-1.07353e+80
-8.13184e+79
-5.93201e+79
-4.11827e+79
-2.59636e+79
-1.40335e+79
-5.29941e+78
-1.30485e+86
1.71536e+85
-1.54336e+84
-1.6345e+83
-4.75214e+81
6.04936e+80
-7.54641e+80
-3.29274e+80
-2.07951e+80
-1.15812e+80
-5.53123e+79
-2.45138e+79
-1.42462e+79
-1.35707e+79
-6.87069e+78
5.68775e+86
-1.12086e+86
1.55678e+85
-1.51069e+84
-1.59932e+83
-3.14462e+81
2.00485e+81
4.93568e+80
6.56873e+80
5.24014e+80
4.06544e+80
3.06314e+80
2.05706e+80
1.09173e+80
4.32839e+79
6.22372e+87
4.70532e+86
-9.94244e+85
1.45792e+85
-1.45327e+84
-1.37272e+83
1.71899e+82
2.10568e+82
1.82531e+82
1.6479e+82
1.38942e+82
1.10122e+82
7.8923e+81
4.904e+81
2.41308e+81
4.44071e+88
1.69008e+88
1.40572e+87
-2.98299e+86
4.54137e+85
-2.57234e+84
8.09249e+83
1.16534e+84
1.07852e+84
9.34994e+83
7.74771e+83
6.15533e+83
4.54905e+83
3.25041e+83
2.41322e+83
-1.59042e+90
3.7455e+88
1.56455e+88
1.48752e+87
-2.95008e+86
5.49242e+85
4.73199e+84
6.11487e+84
5.58467e+84
4.61968e+84
3.24086e+84
2.15272e+84
1.46035e+84
9.91624e+83
5.9477e+83
1.30384e+91
-1.45547e+90
4.15238e+88
1.61914e+88
1.65394e+87
-2.24228e+86
7.98371e+85
2.56515e+85
1.99519e+85
1.51977e+85
1.09862e+85
7.3999e+84
4.46974e+84
2.40055e+84
1.33847e+84
-6.81366e+91
1.12407e+91
-1.39172e+90
2.56714e+88
2.0766e+88
3.71876e+87
1.48865e+86
1.69317e+86
1.20709e+86
6.91392e+85
4.37836e+85
2.58382e+85
1.34962e+85
6.16295e+84
2.99684e+84
-7.02593e+92
-5.59045e+91
1.00847e+91
-1.28694e+90
3.3456e+88
1.22194e+88
1.2189e+87
-1.03559e+85
1.25879e+86
6.62374e+85
4.61072e+85
3.22099e+85
2.10091e+85
1.20905e+85
7.0105e+84
-6.50556e+91
1.109e+91
-1.45033e+90
2.93575e+88
1.50746e+88
1.68054e+87
-1.47983e+86
1.35177e+86
6.82783e+85
5.04727e+85
3.77443e+85
3.10393e+85
2.31829e+85
1.6276e+85
1.1272e+85
1.33716e+91
-1.57992e+90
-1.71476e+88
8.27598e+87
1.55112e+87
-2.42709e+85
3.84711e+85
5.07613e+85
4.80904e+85
3.81985e+85
2.95612e+85
2.92265e+85
2.36062e+85
1.89366e+85
1.43943e+85
-1.08978e+90
-9.57497e+88
-1.36053e+88
-2.56805e+87
-3.49482e+86
8.63886e+85
1.53048e+86
1.36316e+86
1.03436e+86
7.38781e+85
5.48705e+85
4.96682e+85
3.22198e+85
2.17051e+85
1.41389e+85
4.83857e+87
2.90525e+87
2.59615e+87
1.35797e+87
8.00031e+86
5.00294e+86
3.17227e+86
2.02455e+86
1.30989e+86
9.57335e+85
8.84182e+85
1.07005e+86
1.11527e+85
2.57681e+84
8.77136e+83
2.68629e+87
7.33995e+86
5.39697e+86
3.64704e+86
2.29309e+86
1.43639e+86
9.26157e+85
6.29418e+85
5.31864e+85
9.75944e+85
2.36149e+85
-3.43624e+84
1.95358e+83
1.9384e+82
1.22259e+82
5.39947e+86
2.01002e+86
6.20793e+85
1.73709e+85
3.64079e+84
-5.00685e+83
-1.46141e+84
-1.56042e+84
-1.79794e+84
5.95106e+85
7.40302e+85
9.59387e+84
-9.55484e+83
-6.50585e+83
-3.18819e+83
-8.51824e+85
-3.24199e+85
-1.26739e+85
-6.08729e+84
-3.32324e+84
-1.52879e+84
-1.72369e+83
9.79073e+83
2.3053e+84
1.92253e+85
5.98522e+85
4.04035e+85
2.33978e+85
1.33349e+85
7.55146e+84
9.49225e+84
3.50238e+84
1.61504e+84
9.75333e+83
6.84493e+83
4.48451e+83
1.88944e+83
-4.23169e+81
-1.00575e+83
-3.47313e+83
4.00227e+84
7.85321e+84
7.9189e+84
6.40961e+84
4.83459e+84
-3.69047e+83
-1.29976e+83
-9.1445e+82
-6.90528e+82
-5.83252e+82
-4.624e+82
-2.00522e+82
-8.54408e+79
9.73267e+81
3.3207e+82
-7.13018e+82
-1.29034e+83
-1.19149e+83
-9.79036e+82
-8.22454e+82
-5.25999e+82
-1.79615e+82
-1.13384e+82
-8.98606e+81
-7.72607e+81
-6.40443e+81
-5.00901e+81
-3.5786e+81
-9.32131e+80
2.65653e+81
1.31877e+82
1.04089e+82
5.73665e+81
3.40799e+81
2.33005e+81
-6.15236e+81
-2.69002e+81
-9.6177e+80
-3.23888e+80
-7.13862e+79
-1.80378e+79
-2.96851e+80
-5.88425e+80
-8.22553e+80
-1.63373e+81
7.53843e+80
2.49375e+81
2.569e+81
2.18252e+81
1.73885e+81
1.30077e+81
5.22572e+80
2.20979e+80
1.14135e+80
6.77485e+79
3.5895e+79
4.71851e+78
-3.68204e+79
-1.43624e+80
-4.39039e+80
-8.89239e+80
-8.56969e+80
-6.69521e+80
-5.12042e+80
-3.90732e+80
-1.38159e+80
-5.27147e+79
-2.52768e+79
-1.55253e+79
-1.07908e+79
-6.7276e+78
-2.30033e+78
2.84322e+77
-2.96938e+78
-2.23454e+79
-6.55698e+79
-7.50683e+79
-6.37418e+79
-5.01624e+79
-3.83838e+79
5.26777e+78
2.00324e+78
1.40393e+78
1.04867e+78
8.25549e+77
5.3345e+77
1.40667e+77
-1.70037e+76
3.51328e+77
1.59146e+78
3.41237e+78
3.47459e+78
2.78312e+78
2.08723e+78
1.48341e+78
7.52971e+77
2.53674e+77
1.77013e+77
1.51556e+77
1.33611e+77
1.06587e+77
6.46296e+76
1.41786e+75
-8.73106e+76
-1.32238e+77
-8.93242e+76
-2.0274e+76
-3.99863e+75
-2.95923e+76
-9.86368e+76
1.28598e+77
5.3559e+76
1.65402e+76
4.15702e+75
6.03942e+74
2.75829e+75
9.99651e+75
1.59946e+76
1.35442e+76
-6.63591e+75
-4.18524e+76
-5.32073e+76
-5.55473e+76
-7.0417e+76
-1.15903e+77
-2.95814e+76
-1.15619e+76
-4.81747e+75
-2.50764e+75
-1.46493e+75
-6.58794e+74
3.65446e+74
2.3344e+75
6.24218e+75
1.11802e+76
1.31849e+76
9.00335e+75
-3.58605e+74
-2.05659e+76
-6.36202e+76
2.94421e+75
1.12068e+75
5.422e+74
3.37793e+74
2.31476e+74
1.29993e+74
2.45795e+73
-1.82305e+73
1.30372e+74
6.38943e+74
1.19922e+75
3.64201e+74
-3.37135e+75
-1.52655e+76
-4.51224e+76
-9.23721e+73
-3.45606e+73
-2.57267e+73
-2.04151e+73
-1.62161e+73
-1.019e+73
-3.27043e+72
-3.57402e+72
-2.11185e+73
-6.09289e+73
-9.68313e+73
-8.61975e+73
-5.85289e+74
-5.35514e+75
-2.19041e+76
-1.63389e+73
-6.15122e+72
-3.36411e+72
-2.42284e+72
-1.9502e+72
-1.50635e+72
-8.79292e+71
1.80527e+70
2.91014e+71
-2.59446e+72
-2.97766e+72
5.6496e+72
3.49861e+73
-1.39532e+72
-5.03558e+74
-4.63365e+71
-2.59306e+71
-3.31628e+69
8.60251e+70
9.86857e+70
4.88564e+70
-7.46347e+70
-3.86933e+71
-1.85591e+72
-6.27354e+72
-5.73421e+72
-4.88804e+71
1.40424e+73
5.19927e+73
1.31026e+74
3.4389e+71
1.45804e+71
6.06365e+70
2.96425e+70
1.63982e+70
8.57569e+69
-9.91872e+69
-2.47158e+71
-1.9705e+72
-7.98914e+72
-7.89567e+72
-2.51906e+72
8.80529e+72
2.97646e+73
6.74302e+73
-4.28389e+70
-1.73856e+70
-9.13114e+69
-5.93131e+69
-4.27229e+69
-3.16241e+69
-1.29914e+70
-2.57419e+71
-2.16217e+72
-9.4213e+72
-8.99332e+72
-2.46751e+72
1.06416e+73
3.28199e+73
6.78877e+73
6.07408e+68
2.11868e+68
2.5389e+68
2.3766e+68
2.01316e+68
-1.19648e+68
-1.20889e+70
-2.91548e+71
-2.44794e+72
-1.08379e+73
-1.09783e+73
-4.56731e+72
9.67549e+72
3.46752e+73
7.48742e+73
2.83147e+68
1.14031e+68
6.63318e+67
4.9886e+67
3.98635e+67
-2.10113e+68
-1.26517e+70
-3.33696e+71
-2.93343e+72
-1.15467e+73
-1.33652e+73
-9.77044e+72
1.10816e+72
2.23301e+73
5.845e+73
1.08234e+67
6.79033e+66
2.07446e+66
1.20813e+66
1.27525e+66
-2.03807e+68
-1.26504e+70
-3.83785e+71
-2.60169e+72
-1.11896e+73
-1.51853e+73
-1.54444e+73
-1.10519e+73
-1.80954e+71
2.03199e+73
-6.02846e+66
-2.36208e+66
-2.24649e+65
1.88323e+66
4.52291e+66
-1.5011e+68
-1.16258e+70
-4.52651e+71
-2.39738e+72
-9.24073e+72
-1.451e+73
-1.76992e+73
-1.87411e+73
-1.71959e+73
-1.17136e+73
9.85412e+65
9.35625e+65
1.47883e+66
3.09697e+66
6.63984e+66
-1.02597e+68
-9.63365e+69
-5.28301e+71
-2.38849e+72
-6.32006e+72
-1.05628e+73
-1.4492e+73
-1.7776e+73
-2.02445e+73
-2.15337e+73
2.97502e+65
7.13442e+65
1.4995e+66
3.37222e+66
7.829e+66
-7.18215e+67
-7.61397e+69
-6.24534e+71
-2.00228e+72
-3.90939e+72
-6.33493e+72
-9.12677e+72
-1.20205e+73
-1.48575e+73
-1.75708e+73
3.49124e+65
8.41121e+65
1.77568e+66
3.91324e+66
9.32955e+66
-5.21641e+67
-7.42086e+69
-4.16175e+71
-1.27275e+72
-2.2661e+72
-3.47226e+72
-4.9126e+72
-6.57694e+72
-8.45257e+72
-1.05059e+73
4.18941e+65
1.01135e+66
2.14487e+66
4.64324e+66
1.12162e+67
-2.70099e+67
-7.62237e+69
-2.10855e+71
-6.22639e+71
-1.08119e+72
-1.61791e+72
-2.24047e+72
-2.97406e+72
-3.84452e+72
-4.85316e+72
4.88304e+65
1.19333e+66
2.54893e+66
5.44665e+66
1.30721e+67
4.49522e+66
-8.41185e+69
-9.90822e+70
-2.36392e+71
-3.94289e+71
-5.77538e+71
-7.89786e+71
-1.04318e+72
-1.34881e+72
-1.71099e+72
5.59243e+65
1.38128e+66
2.96738e+66
6.27793e+66
1.47597e+67
3.37551e+67
-4.32545e+69
-3.02538e+70
-6.42286e+70
-1.03815e+71
-1.49295e+71
-2.03245e+71
-2.69103e+71
-3.49005e+71
-4.44246e+71
6.3928e+65
1.59509e+66
3.44716e+66
7.23767e+66
1.65404e+67
4.60465e+67
-3.31731e+68
-4.96749e+69
-1.11224e+70
-1.80418e+70
-2.59027e+70
-3.53415e+70
-4.71042e+70
-6.15206e+70
-7.87754e+70
7.28465e+65
1.8393e+66
4.0138e+66
8.42208e+66
1.88134e+67
5.00874e+67
1.26065e+68
-2.14329e+67
-4.23812e+68
-9.76216e+68
-1.65769e+69
-2.53188e+69
-3.65321e+69
-5.05183e+69
-6.76266e+69
8.22066e+65
2.09596e+66
4.61581e+66
9.73385e+66
2.20175e+67
5.88118e+67
1.52258e+68
2.64062e+68
3.57263e+68
4.33913e+68
4.98045e+68
5.58774e+68
6.16126e+68
6.65752e+68
7.02417e+68
9.00942e+65
2.35937e+66
5.34689e+66
1.1375e+67
2.33333e+67
4.36087e+67
7.03014e+67
9.58796e+67
1.19722e+68
1.43857e+68
1.68882e+68
1.96489e+68
2.27058e+68
2.60063e+68
2.94824e+68
7.61144e+65
1.96309e+66
4.23379e+66
7.97959e+66
1.33781e+67
1.99215e+67
2.57368e+67
2.92291e+67
3.12945e+67
3.31929e+67
3.52883e+67
3.78076e+67
4.07771e+67
4.41083e+67
4.77407e+67
4.4424e+65
1.08832e+66
2.16401e+66
3.65348e+66
5.34894e+66
6.97455e+66
8.18443e+66
8.78541e+66
8.96184e+66
8.99951e+66
9.00301e+66
8.98419e+66
8.9414e+66
8.87186e+66
8.78265e+66
1.51151e+65
3.49675e+65
6.36758e+65
9.76655e+65
1.30475e+66
1.58596e+66
1.79343e+66
1.91579e+66
1.9739e+66
2.00038e+66
2.01224e+66
2.01126e+66
1.99504e+66
1.96303e+66
1.91717e+66
2.41685e+64
5.79223e+64
9.61296e+64
1.33845e+65
1.66046e+65
1.91768e+65
2.11014e+65
2.24184e+65
2.32829e+65
2.39037e+65
2.43842e+65
2.47107e+65
2.48429e+65
2.47606e+65
2.44722e+65
-4.63228e+63
-1.20612e+63
2.01827e+63
4.09443e+63
5.23962e+63
5.85585e+63
6.19949e+63
6.43464e+63
6.66742e+63
6.93213e+63
7.21317e+63
7.48302e+63
7.71861e+63
7.90665e+63
8.03049e+63
-4.40032e+63
-4.13449e+63
-3.43863e+63
-2.89502e+63
-2.50672e+63
-2.24102e+63
-2.05319e+63
-1.91056e+63
-1.80275e+63
-1.72483e+63
-1.66474e+63
-1.61052e+63
-1.55509e+63
-1.49459e+63
-1.43145e+63
-1.62403e+63
-1.64309e+63
-1.45369e+63
-1.25243e+63
-1.06437e+63
-9.02386e+62
-7.6634e+62
-6.52486e+62
-5.61962e+62
-4.93362e+62
-4.39409e+62
-3.94516e+62
-3.55872e+62
-3.2189e+62
-2.92304e+62
-4.02479e+62
-3.89739e+62
-3.42252e+62
-2.9785e+62
-2.56254e+62
-2.19026e+62
-1.86507e+62
-1.58548e+62
-1.35921e+62
-1.18205e+62
-1.03551e+62
-9.08488e+61
-7.96684e+61
-6.97835e+61
-6.11407e+61
-8.26555e+61
-7.1698e+61
-5.65091e+61
-4.58468e+61
-3.77949e+61
-3.14666e+61
-2.6359e+61
-2.23146e+61
-1.92414e+61
-1.68579e+61
-1.4866e+61
-1.31146e+61
-1.15466e+61
-1.01374e+61
-8.88353e+60
-1.27616e+61
-1.16973e+61
-8.73361e+60
-6.4832e+60
-4.85441e+60
-3.69592e+60
-2.8635e+60
-2.27208e+60
-1.8573e+60
-1.5536e+60
-1.31531e+60
-1.11975e+60
-9.55823e+59
-8.17235e+59
-7.00324e+59
-7.71604e+58
-6.71773e+59
-7.42754e+59
-6.52478e+59
-5.30683e+59
-4.20945e+59
-3.31907e+59
-2.64597e+59
-2.14463e+59
-1.75143e+59
-1.43e+59
-1.16467e+59
-9.46283e+58
-7.68005e+58
-6.22434e+58
4.72867e+59
2.9016e+59
1.5137e+59
7.83623e+58
3.98938e+58
1.9354e+58
8.17271e+57
1.97813e+57
-1.38545e+57
-3.07864e+57
-3.80525e+57
-3.98133e+57
-3.84759e+57
-3.55395e+57
-3.15698e+57
9.31574e+58
7.28219e+58
4.89345e+58
3.31041e+58
2.2768e+58
1.6024e+58
1.15897e+58
8.65583e+57
6.63462e+57
5.15666e+57
4.03308e+57
3.16421e+57
2.48743e+57
1.95878e+57
1.54906e+57
7.15695e+57
6.21153e+57
4.59072e+57
3.3665e+57
2.47947e+57
1.85753e+57
1.42923e+57
1.13315e+57
9.14491e+56
7.42612e+56
6.03729e+56
4.90645e+56
3.98401e+56
3.23294e+56
2.62378e+56
-6.28778e+55
2.18636e+55
3.75292e+55
3.98995e+55
3.65678e+55
3.22392e+55
2.85241e+55
2.53701e+55
2.2361e+55
1.94428e+55
1.67152e+55
1.42447e+55
1.20525e+55
1.01464e+55
8.4822e+54
-1.3751e+56
-7.70233e+55
-4.28433e+55
-2.59292e+55
-1.67565e+55
-1.14458e+55
-8.24971e+54
-6.21701e+54
-4.81872e+54
-3.79135e+54
-3.00601e+54
-2.39264e+54
-1.90818e+54
-1.52293e+54
-1.22195e+54
-3.48169e+55
-2.05105e+55
-1.1033e+55
-6.38137e+54
-3.933e+54
-2.57142e+54
-1.77832e+54
-1.28796e+54
-9.60987e+53
-7.29367e+53
-5.59468e+53
-4.3235e+53
-3.36024e+53
-2.62384e+53
-2.06522e+53
-4.64601e+54
-3.03134e+54
-1.7378e+54
-1.05273e+54
-6.72082e+53
-4.52487e+53
-3.1972e+53
-2.33829e+53
-1.74321e+53
-1.3123e+53
-9.93656e+52
-7.55572e+52
-5.76516e+52
-4.41417e+52
-3.39805e+52
-3.03487e+53
-2.12152e+53
-1.30062e+53
-8.36607e+52
-5.6428e+52
-4.00041e+52
-2.95344e+52
-2.23159e+52
-1.70511e+52
-1.30861e+52
-1.0055e+52
-7.72904e+51
-5.94233e+51
-4.57307e+51
-3.52623e+51
-4.35317e+51
-2.84105e+51
-1.63962e+51
-1.15898e+51
-8.83923e+50
-7.03979e+50
-5.73754e+50
-4.70333e+50
-3.83373e+50
-3.09619e+50
-2.48003e+50
-1.97204e+50
-1.55708e+50
-1.2239e+50
-9.572e+49
2.61504e+51
1.27403e+51
6.66294e+50
3.8158e+50
2.38074e+50
1.58951e+50
1.12091e+50
8.23268e+49
6.19167e+49
4.70379e+49
3.58334e+49
2.72857e+49
2.07472e+49
1.57553e+49
1.20375e+49
8.08771e+50
4.01644e+50
1.87319e+50
9.74083e+49
5.55653e+49
3.41908e+49
2.24341e+49
1.54827e+49
1.10379e+49
8.01255e+48
5.8756e+48
4.33634e+48
3.2159e+48
2.39569e+48
1.80487e+48
1.08391e+50
6.3533e+49
3.24797e+49
1.80811e+49
1.08407e+49
6.91396e+48
4.63115e+48
3.21108e+48
2.26965e+48
1.619e+48
1.16021e+48
8.34129e+47
6.01871e+47
4.36543e+47
3.20158e+47
5.21766e+48
3.66105e+48
2.18446e+48
1.36318e+48
8.97779e+47
6.18654e+47
4.40853e+47
3.20953e+47
2.35682e+47
1.73229e+47
1.27089e+47
9.30721e+46
6.81548e+46
5.00728e+46
3.71298e+46
1.16924e+47
-5.20994e+45
-1.53844e+46
-9.90469e+45
-4.70276e+45
-1.54585e+45
1.63313e+44
9.99571e+44
1.3245e+45
1.36043e+45
1.24789e+45
1.07441e+45
8.911e+44
7.2606e+44
5.87236e+44
1.68901e+46
3.88811e+45
-2.14436e+45
-2.66857e+45
-2.30935e+45
-1.85932e+45
-1.46602e+45
-1.14739e+45
-8.90822e+44
-6.84142e+44
-5.19589e+44
-3.91208e+44
-2.93218e+44
-2.1988e+44
-1.66377e+44
-1.30161e+46
-4.60321e+45
-1.65822e+45
-6.44923e+44
-2.74513e+44
-1.28012e+44
-6.70037e+43
-4.03868e+43
-2.78027e+43
-2.08789e+43
-1.63327e+43
-1.2953e+43
-1.02882e+43
-8.13945e+42
-6.54526e+42
-3.56263e+45
-1.712e+45
-7.45005e+44
-3.63464e+44
-1.94671e+44
-1.1229e+44
-6.86884e+43
-4.38659e+43
-2.88107e+43
-1.92616e+43
-1.30421e+43
-8.92602e+42
-6.1704e+42
-4.31074e+42
-3.06356e+42
-2.83963e+44
-1.65756e+44
-8.34787e+43
-4.6165e+43
-2.75601e+43
-1.74462e+43
-1.15363e+43
-7.8527e+42
-5.43061e+42
-3.78717e+42
-2.6564e+42
-1.87363e+42
-1.33062e+42
-9.53983e+41
-6.92117e+41
-4.61416e+42
-2.27271e+42
-1.37e+42
-9.21413e+41
-6.60954e+41
-4.85231e+41
-3.60415e+41
-2.68746e+41
-1.99775e+41
-1.4777e+41
-1.08933e+41
-8.02527e+40
-5.92997e+40
-4.41133e+40
-3.30083e+40
-1.82263e+40
2.95348e+41
2.43409e+41
1.54398e+41
9.66987e+40
6.2474e+40
4.17592e+40
2.86475e+40
1.99566e+40
1.40221e+40
9.91129e+39
7.04376e+39
5.03532e+39
3.62193e+39
2.63147e+39
2.78182e+41
9.94125e+40
4.10104e+40
1.81431e+40
9.22167e+39
5.31339e+39
3.38193e+39
2.30871e+39
1.6417e+39
1.1914e+39
8.73626e+38
6.44709e+38
4.78246e+38
3.56363e+38
2.68422e+38
1.076e+41
4.17282e+40
1.53653e+40
6.5047e+39
3.12297e+39
1.65929e+39
9.55856e+38
5.84951e+38
3.73093e+38
2.44745e+38
1.63832e+38
1.11343e+38
7.66374e+37
5.34132e+37
3.79498e+37
1.18525e+40
5.46445e+39
2.24083e+39
1.07271e+39
5.73688e+38
3.328e+38
2.04894e+38
1.31298e+38
8.63078e+37
5.77786e+37
3.92162e+37
2.68896e+37
1.86126e+37
1.30188e+37
9.20449e+36
-1.27673e+38
1.16569e+37
2.69295e+37
2.49852e+37
1.90564e+37
1.37593e+37
9.80033e+36
6.94958e+36
4.92001e+36
3.4919e+36
2.4893e+36
1.78161e+36
1.28076e+36
9.25362e+35
6.6831e+35
-1.45012e+38
-6.07974e+37
-2.38002e+37
-1.0414e+37
-5.12459e+36
-2.78424e+36
-1.63052e+36
-1.00583e+36