/*--------------------------------*- C++ -*----------------------------------*\
  =========                 |
  \\      /  F ield         | OpenFOAM: The Open Source CFD Toolbox
   \\    /   O peration     | Website:  https://openfoam.org
    \\  /    A nd           | Version:  7
     \\/     M anipulation  |
\*---------------------------------------------------------------------------*/
FoamFile
{
    version     2.0;
    format      ascii;
    class       volScalarField;
    location    "2.3";
    object      T;
}
// * * * * * * * * * * * * * * * * * * * * * * * * * * * * * * * * * * * * * //

dimensions      [0 0 0 1 0 0 0];

internalField   nonuniform List<scalar> 
32100
(
1.09397e+60
-2.12905e+59
9.1832e+57
2.47427e+57
-3.57005e+56
-2.24936e+55
5.72164e+54
-5.12558e+53
-2.00291e+52
9.8941e+51
1.17073e+50
-1.56217e+49
6.29266e+46
6.105e+46
1.92186e+46
-2.33407e+59
9.03174e+57
2.67691e+57
-3.67387e+56
-2.39732e+55
5.93303e+54
-5.23178e+53
-2.11713e+52
1.01991e+52
2.78172e+50
-1.5253e+48
-2.01876e+49
4.34312e+47
5.26702e+46
1.60534e+46
8.32911e+57
2.97766e+57
-3.82216e+56
-2.57705e+55
6.22423e+54
-5.40143e+53
-2.34431e+52
1.03432e+52
1.52763e+50
-1.17485e+50
-1.65231e+49
-1.24108e+49
6.02522e+47
4.76117e+46
1.25894e+46
3.39163e+57
-4.06262e+56
-2.95839e+55
6.71744e+54
-5.2764e+53
-3.01845e+52
9.74619e+51
2.11754e+50
-1.07231e+50
-4.88871e+48
-1.0707e+49
-5.23616e+48
5.74576e+47
4.9028e+46
8.46991e+45
-4.17822e+56
-3.83454e+55
6.08863e+54
-4.04412e+53
-4.64646e+51
5.33607e+51
-6.41715e+50
-7.76769e+49
3.5897e+48
-3.26312e+48
-2.97461e+48
-1.40039e+48
4.38145e+47
4.28726e+46
3.59428e+45
-4.08946e+55
2.61498e+54
-1.5273e+54
1.19511e+53
3.42219e+52
-4.87883e+51
-9.75848e+50
2.28923e+49
-7.48505e+47
-1.09523e+48
6.85367e+46
-4.28419e+46
2.74768e+47
2.77985e+46
-2.69698e+44
6.75337e+54
-5.33544e+54
-9.80551e+53
1.46141e+53
2.43401e+52
-4.75085e+51
-8.88614e+50
9.29739e+48
-5.24311e+47
-6.99001e+47
4.14296e+47
2.07248e+47
1.37385e+47
1.13924e+46
-2.2312e+45
-2.52298e+54
-4.3669e+54
-9.3776e+53
1.19498e+53
2.48364e+52
-4.14016e+51
-9.09869e+50
1.42294e+48
1.82265e+47
-8.24615e+47
3.06794e+47
1.38493e+47
5.0225e+46
6.27367e+44
-2.49768e+45
-1.91313e+54
-3.92744e+54
-9.46489e+53
1.03077e+53
2.55988e+52
-3.62028e+51
-9.17166e+50
-6.12936e+48
7.13583e+47
-9.08142e+47
1.8944e+47
6.50339e+46
1.07513e+46
-3.215e+45
-1.84948e+45
-1.81425e+54
-3.56172e+54
-9.38691e+53
8.67978e+52
2.60198e+52
-3.07865e+51
-9.16073e+50
-1.4101e+49
1.19583e+48
-9.01245e+47
1.32609e+47
4.31517e+46
-1.86918e+44
-2.95754e+45
-1.03808e+45
-1.78058e+54
-3.20864e+54
-9.27132e+53
7.04214e+52
2.62348e+52
-2.53294e+51
-9.07305e+50
-2.21306e+49
1.56541e+48
-8.51259e+47
9.85035e+46
3.85235e+46
-3.74267e+44
-1.5801e+45
-4.48792e+44
-1.7458e+54
-2.91058e+54
-9.06221e+53
5.45079e+52
2.62758e+52
-1.99464e+51
-8.91277e+50
-2.99776e+49
1.7901e+48
-7.80369e+47
6.9835e+46
3.41216e+46
1.13305e+45
-5.62996e+44
-1.37743e+44
-1.86652e+54
-2.68254e+54
-8.42527e+53
4.14004e+52
2.59141e+52
-1.47773e+51
-8.69105e+50
-3.73886e+49
1.85696e+48
-6.97892e+47
4.61091e+46
2.82798e+46
1.50846e+45
-1.44956e+44
-2.45882e+43
-2.41646e+54
-2.19192e+54
-6.72213e+53
2.62921e+52
2.28909e+52
-1.03303e+51
-8.32031e+50
-4.39666e+49
1.7645e+48
-6.0982e+47
2.82938e+46
2.47477e+46
1.31076e+45
-6.03839e+43
-4.18422e+42
-2.20111e+54
-1.55688e+54
-5.38727e+53
1.29767e+52
1.86249e+52
-6.03634e+50
-7.24732e+50
-4.73307e+49
1.57079e+48
-5.34914e+47
1.45223e+46
2.63967e+46
1.58186e+45
-4.31539e+43
-2.27985e+41
-1.285e+54
-1.14567e+54
-4.71907e+53
3.7024e+51
1.60036e+52
-2.10951e+50
-6.27178e+50
-5.05112e+49
1.379e+48
-4.74684e+47
-6.06791e+44
2.86338e+46
2.25623e+45
-3.9554e+43
8.85072e+41
-8.87131e+53
-9.58856e+53
-4.34467e+53
-2.83925e+51
1.48795e+52
1.19392e+50
-5.79305e+50
-5.56432e+49
1.1307e+48
-4.13084e+47
-1.69287e+46
2.81502e+46
2.80719e+45
-3.02372e+43
6.66319e+41
-8.14808e+53
-8.51134e+53
-4.15084e+53
-8.5385e+51
1.424e+52
3.9804e+50
-5.44848e+50
-6.17005e+49
7.50125e+47
-3.43898e+47
-3.23152e+46
2.63982e+46
3.19967e+45
-1.03251e+43
-4.75028e+41
-7.53152e+53
-7.58628e+53
-3.94428e+53
-1.39792e+52
1.34946e+52
6.67342e+50
-5.10792e+50
-6.83202e+49
2.27482e+47
-2.69206e+47
-4.59601e+46
2.39265e+46
3.47119e+45
1.78555e+43
-2.07625e+42
-7.09678e+53
-6.72729e+53
-3.71676e+53
-1.93019e+52
1.26204e+52
9.33857e+50
-4.72153e+50
-7.49432e+49
-4.52697e+47
-1.92657e+47
-5.72288e+46
2.14395e+46
3.77074e+45
5.3093e+43
-3.8335e+42
-6.76934e+53
-5.92307e+53
-3.46689e+53
-2.4366e+52
1.16293e+52
1.19384e+51
-4.27351e+50
-8.12504e+49
-1.30304e+48
-1.18159e+47
-6.61249e+46
1.84974e+46
3.98658e+45
9.34821e+43
-5.42412e+42
-6.41446e+53
-5.15518e+53
-3.20794e+53
-2.90996e+52
1.05198e+52
1.44298e+51
-3.7571e+50
-8.71875e+49
-2.3406e+48
-4.90954e+46
-7.26377e+46
1.51402e+46
4.0165e+45
1.3337e+44
-6.41639e+42
-5.9948e+53
-4.44027e+53
-2.95021e+53
-3.33778e+52
9.29555e+51
1.67458e+51
-3.17035e+50
-9.26632e+49
-3.59362e+48
1.13085e+46
-7.67962e+46
1.18633e+46
4.03148e+45
1.73215e+44
-6.72454e+42
-5.52927e+53
-3.78763e+53
-2.69395e+53
-3.71124e+52
7.94917e+51
1.87468e+51
-2.51489e+50
-9.75458e+49
-5.09572e+48
5.86005e+46
-7.86972e+46
8.69474e+45
4.092e+45
2.16424e+44
-6.48968e+42
-5.04862e+53
-3.21311e+53
-2.44532e+53
-4.0312e+52
6.49398e+51
2.03748e+51
-1.79156e+50
-1.01496e+50
-6.88386e+48
8.60615e+46
-7.80055e+46
5.48103e+45
4.18643e+45
2.6639e+44
-5.83911e+42
-4.56686e+53
-2.715e+53
-2.20053e+53
-4.28948e+52
4.94637e+51
2.15969e+51
-1.00311e+50
-1.04002e+50
-8.99569e+48
8.45805e+46
-7.42603e+46
2.08422e+45
4.32049e+45
3.28876e+44
-4.76883e+42
-4.10505e+53
-2.27754e+53
-1.96131e+53
-4.48794e+52
3.31761e+51
2.23556e+51
-1.54318e+49
-1.04625e+50
-1.14546e+49
4.19179e+46
-6.67744e+46
-1.65365e+45
4.41997e+45
4.03594e+44
-2.96405e+42
-3.70518e+53
-1.90227e+53
-1.73858e+53
-4.64031e+52
1.62098e+51
2.2578e+51
7.48918e+49
-1.02818e+50
-1.42355e+49
-5.94898e+46
-5.51589e+46
-5.62676e+45
4.34815e+45
4.78759e+44
-1.13137e+41
-3.36873e+53
-1.60205e+53
-1.53807e+53
-4.74817e+52
-1.28959e+50
2.22102e+51
1.6986e+50
-9.80574e+49
-1.73207e+49
-2.44941e+47
-3.9496e+46
-9.63892e+45
4.15066e+45
5.57403e+44
3.87425e+42
-3.05778e+53
-1.37288e+53
-1.35478e+53
-4.79157e+52
-1.90811e+51
2.1176e+51
2.68235e+50
-8.96651e+49
-2.07316e+49
-5.43266e+47
-2.05516e+46
-1.3545e+46
3.8294e+45
6.43596e+44
9.16695e+42
-2.72941e+53
-1.18191e+53
-1.17497e+53
-4.74749e+52
-3.68275e+51
1.93826e+51
3.68297e+50
-7.67219e+49
-2.44355e+49
-9.96747e+47
3.29793e+44
-1.68841e+46
3.25209e+45
7.18359e+44
1.55335e+43
-2.37829e+53
-9.93375e+52
-9.8936e+52
-4.62459e+52
-5.41105e+51
1.67472e+51
4.66863e+50
-5.80601e+49
-2.82924e+49
-1.65796e+48
2.02925e+46
-1.91129e+46
2.50897e+45
7.85284e+44
2.30872e+43
-2.05752e+53
-8.13771e+52
-8.18355e+52
-4.43183e+52
-7.04369e+51
1.318e+51
5.58462e+50
-3.2395e+49
-3.19492e+49
-2.59635e+48
3.29545e+46
-2.06082e+46
1.72592e+45
8.88397e+44
3.40834e+43
-1.8046e+53
-6.80663e+52
-6.79764e+52
-4.18284e+52
-8.56656e+51
8.63342e+50
6.36294e+50
8.99033e+47
-3.48092e+49
-3.87953e+48
2.61557e+46
-2.12067e+46
6.92817e+44
1.0578e+45
5.31499e+43
-1.59335e+53
-6.03517e+52
-5.67221e+52
-3.89286e+52
-9.97287e+51
3.07099e+50
6.89902e+50
4.14179e+49
-3.60856e+49
-5.56877e+48
-2.17642e+46
-1.88699e+46
-8.73203e+44
1.27634e+45
8.66016e+43
-1.3965e+53
-5.4636e+52
-4.64678e+52
-3.57098e+52
-1.12282e+52
-3.54015e+50
7.00956e+50
8.77184e+49
-3.48369e+49
-7.66463e+48
-1.48816e+47
-1.19404e+46
-3.16898e+45
1.50487e+45
1.44137e+44
-1.21536e+53
-4.90266e+52
-3.72146e+52
-3.2341e+52
-1.22993e+52
-1.10732e+51
6.60083e+50
1.37589e+50
-3.01714e+49
-1.00497e+49
-4.07464e+47
8.15018e+44
-6.23092e+45
1.6424e+45
2.39137e+44
-1.05108e+53
-4.45337e+52
-2.95904e+52
-2.88567e+52
-1.31199e+52
-1.91529e+51
5.64679e+50
1.87545e+50
-2.13005e+49
-1.24937e+49
-8.5293e+47
1.65867e+46
-9.1583e+45
1.50432e+45
3.78465e+44
-9.0007e+52
-4.15006e+52
-2.3615e+52
-2.51518e+52
-1.35316e+52
-2.71095e+51
4.10001e+50
2.32675e+50
-7.77683e+48
-1.45451e+49
-1.51724e+48
2.53453e+46
-1.05207e+46
9.15271e+44
5.5577e+44
-7.59156e+52
-3.96083e+52
-1.92795e+52
-2.13761e+52
-1.32964e+52
-3.43257e+51
1.9555e+50
2.66417e+50
9.93239e+48
-1.55623e+49
-2.38713e+48
1.10163e+46
-8.63959e+45
-3.26061e+44
7.43944e+44
-6.23902e+52
-3.80473e+52
-1.64417e+52
-1.7667e+52
-1.24795e+52
-4.0292e+51
-6.88499e+49
2.7921e+50
3.048e+49
-1.50711e+49
-3.39348e+48
-4.5932e+46
-8.74041e+44
-2.36387e+45
8.50313e+44
-4.9474e+52
-3.56054e+52
-1.4716e+52
-1.41601e+52
-1.13673e+52
-4.46664e+51
-3.61705e+50
2.69206e+50
5.27714e+49
-1.2962e+49
-4.37672e+48
-1.61552e+47
1.1533e+46
-4.16293e+45
7.28686e+44
-3.81089e+52
-3.18714e+52
-1.35094e+52
-1.11225e+52
-1.01254e+52
-4.73227e+51
-6.59138e+50
2.31314e+50
7.55112e+49
-9.28201e+48
-5.03365e+48
-3.17467e+47
2.31891e+46
-4.92047e+45
3.5418e+44
-2.8963e+52
-2.75797e+52
-1.23998e+52
-8.76502e+51
-8.84767e+51
-4.83526e+51
-9.40029e+50
1.70926e+50
8.96438e+49
-4.44127e+48
-5.39809e+48
-4.88983e+47
3.13819e+46
-4.54792e+45
-1.68702e+44
-2.19693e+52
-2.35897e+52
-1.1484e+52
-7.08379e+51
-7.61773e+51
-4.80925e+51
-1.19101e+51
9.76195e+49
9.54576e+49
7.1608e+47
-5.61775e+48
-6.4171e+47
3.07812e+46
-3.55084e+45
-1.41623e+45
-1.67318e+52
-2.02549e+52
-1.08482e+52
-5.91703e+51
-6.5006e+51
-4.69673e+51
-1.41356e+51
1.89059e+49
9.75109e+49
5.49319e+48
-5.10584e+48
-6.97571e+47
2.25274e+46
-2.27603e+44
-1.04646e+45
-1.27369e+52
-1.74805e+52
-1.04628e+52
-5.163e+51
-5.52757e+51
-4.53298e+51
-1.61524e+51
-6.26889e+49
9.60475e+49
9.71886e+48
-4.40265e+48
-7.04007e+47
1.40778e+46
9.5841e+44
-5.11981e+44
-9.6308e+51
-1.50528e+52
-1.02498e+52
-4.77094e+51
-4.6957e+51
-4.31102e+51
-1.79131e+51
-1.473e+50
9.44953e+49
1.34497e+49
-3.98926e+48
-7.34445e+47
8.58214e+45
1.40581e+45
-4.27028e+44
-7.15779e+51
-1.28133e+52
-9.98958e+51
-4.61255e+51
-3.97481e+51
-4.00646e+51
-1.92041e+51
-2.35385e+50
9.1254e+49
1.72176e+49
-3.662e+48
-7.84547e+47
4.03434e+45
1.75282e+45
-4.79973e+44
-5.22241e+51
-1.07245e+52
-9.59027e+51
-4.58651e+51
-3.35787e+51
-3.64361e+51
-2.00063e+51
-3.26112e+50
8.41358e+49
2.09496e+49
-3.32762e+48
-8.41504e+47
-8.00335e+44
2.07223e+45
-5.97375e+44
-3.72884e+51
-8.852e+51
-9.15666e+51
-4.71205e+51
-2.87177e+51
-3.27259e+51
-2.06138e+51
-4.20676e+50
7.31767e+49
2.45156e+49
-2.93597e+48
-8.88429e+47
-6.32671e+45
2.17689e+45
-7.2846e+44
-2.58747e+51
-7.18394e+51
-8.69598e+51
-4.91682e+51
-2.52348e+51
-2.89827e+51
-2.10689e+51
-5.23272e+50
5.8047e+49
2.78029e+49
-2.44357e+48
-9.00716e+47
-1.21314e+46
1.8349e+45
-8.34458e+44
-1.75246e+51
-5.66841e+51
-8.01538e+51
-5.08336e+51
-2.29436e+51
-2.5175e+51
-2.11598e+51
-6.32993e+50
3.79192e+49
3.07325e+49
-1.88102e+48
-8.71035e+47
-1.72504e+46
9.7717e+44
-1.01789e+45
-1.15743e+51
-4.35312e+51
-7.14362e+51
-5.22046e+51
-2.2083e+51
-2.14462e+51
-2.08267e+51
-7.45687e+50
1.19899e+49
3.30362e+49
-1.3095e+48
-8.03026e+47
-2.10443e+46
-3.15921e+44
-1.52999e+45
-7.29997e+50
-3.26998e+51
-6.26093e+51
-5.37057e+51
-2.29728e+51
-1.78992e+51
-1.99891e+51
-8.56388e+50
-2.01773e+49
3.44918e+49
-7.92304e+47
-6.94964e+47
-2.34367e+46
-1.79043e+45
-2.38171e+45
-4.27368e+50
-2.36933e+51
-5.36692e+51
-5.48832e+51
-2.52104e+51
-1.47141e+51
-1.86101e+51
-9.59442e+50
-5.87006e+49
3.48852e+49
-4.14997e+47
-5.37368e+47
-2.5181e+46
-2.42011e+45
-2.56167e+45
-2.22056e+50
-1.62054e+51
-4.44189e+51
-5.47233e+51
-2.84108e+51
-1.22218e+51
-1.67305e+51
-1.05544e+51
-1.03236e+50
3.29584e+49
-2.17044e+47
-3.21275e+47
-2.38189e+46
-2.29618e+45
-2.37029e+45
-9.57563e+49
-1.02651e+51
-3.51098e+51
-5.28397e+51
-3.22644e+51
-1.07391e+51
-1.42481e+51
-1.13527e+51
-1.52598e+50
2.88038e+49
-1.57165e+47
-1.03007e+47
-2.61091e+46
-3.70197e+45
-2.4495e+45
-2.87652e+49
-5.83265e+50
-2.61012e+51
-4.9064e+51
-3.61395e+51
-1.05374e+51
-1.1162e+51
-1.17667e+51
-2.07141e+50
2.38454e+49
-1.15759e+47
2.95911e+46
-3.72553e+46
-7.67932e+45
-3.64303e+45
2.00874e+47
-2.79996e+50
-1.78128e+51
-4.34002e+51
-3.94858e+51
-1.19629e+51
-7.67487e+50
-1.14972e+51
-2.69072e+50
2.60029e+49
4.73325e+47
3.5854e+46
-4.24872e+46
-1.78784e+46
-8.6858e+45
7.61214e+48
-9.37473e+49
-1.05965e+51
-3.61297e+51
-4.19891e+51
-1.54225e+51
-4.12638e+50
-1.01862e+51
-3.29596e+50
3.96558e+49
1.45097e+48
-4.17087e+47
-1.86466e+47
-1.22335e+47
-4.75155e+46
3.97081e+48
-3.4404e+48
-4.80899e+50
-2.74806e+51
-4.32475e+51
-2.12789e+51
-1.19602e+50
-7.72543e+50
-3.65403e+50
2.41974e+49
6.67174e+48
4.86288e+46
6.80712e+47
3.3482e+47
6.0193e+46
-3.37239e+47
1.31151e+49
-8.80219e+49
-1.77103e+51
-4.23712e+51
-2.94314e+51
4.79439e+47
-4.54499e+50
-4.17621e+50
-2.49557e+49
1.28447e+49
1.18389e+48
1.27576e+48
1.56416e+48
8.31729e+47
4.21061e+47
7.06516e+48
7.28145e+49
-7.61315e+50
-3.79247e+51
-3.8775e+51
-1.54585e+50
-6.93996e+49
-4.36222e+50
-1.02673e+50
-3.24285e+49
-3.25705e+49
-4.68571e+49
-5.94993e+49
-3.46271e+49
8.85663e+48
1.10861e+49
6.09426e+49
-1.51732e+48
-2.85986e+51
-4.71313e+51
-6.21932e+50
3.20446e+50
-3.32689e+50
-1.11924e+50
-1.20288e+50
-1.17825e+50
-1.54209e+50
-1.21322e+50
-6.35129e+49
2.81918e+49
9.97853e+48
7.94834e+49
1.06346e+50
-1.69269e+51
-5.08408e+51
-1.27897e+51
5.60396e+50
-1.48869e+50
-2.70462e+49
-2.8151e+49
-6.76129e+49
-6.77189e+49
-4.78613e+49
-6.17158e+49
1.05089e+51
4.10068e+50
2.46921e+50
-6.61985e+49
-1.60467e+51
-4.42749e+51
-1.72463e+51
5.90982e+50
2.3204e+49
6.77555e+48
-8.33976e+48
-1.13778e+49
-1.03104e+49
-1.42597e+49
-5.32456e+49
-1.19294e+52
-4.87478e+51
-1.80261e+51
-8.42428e+50
-3.011e+51
-4.38054e+51
-8.31218e+50
5.92641e+50
1.89703e+50
-4.78124e+49
-4.91779e+49
-3.23886e+49
-2.29701e+49
-1.55456e+49
-4.29523e+49
-1.51505e+53
-4.68729e+52
-2.72042e+52
-1.90049e+52
-1.27331e+52
-3.07127e+51
2.83763e+51
1.78492e+51
3.27536e+50
-4.22846e+49
-6.46781e+49
-4.41524e+49
-2.80428e+49
-1.63244e+49
-3.6444e+49
5.27136e+54
1.32673e+54
3.92627e+53
1.4728e+53
6.67989e+52
3.54675e+52
1.54084e+52
4.04641e+51
5.14446e+50
-1.61679e+50
-1.59787e+50
-9.12256e+49
-4.77612e+49
-2.37722e+49
-3.54719e+49
1.43933e+55
5.43388e+54
4.06175e+54
2.12507e+54
1.10716e+54
5.81313e+53
2.22522e+53
5.32875e+52
1.07985e+52
2.08501e+51
4.55914e+50
1.62723e+50
9.58427e+49
6.56575e+49
1.55664e+50
-8.37575e+56
-1.01652e+56
-1.04835e+55
1.04449e+54
2.26978e+54
1.31375e+54
4.27208e+53
1.04466e+53
2.42092e+52
6.4529e+51
2.32862e+51
1.16382e+51
6.8864e+50
4.49118e+50
7.18723e+50
6.45316e+57
-2.26444e+56
-1.94493e+56
-4.16749e+55
-5.18482e+54
6.91387e+53
4.26705e+53
9.20221e+52
1.15193e+52
-5.20765e+51
-7.64228e+51
-6.39831e+51
-4.2302e+51
-2.13816e+51
-1.08073e+51
-1.92903e+57
5.96172e+57
-9.93113e+55
-8.90353e+55
-4.35341e+54
-3.75589e+53
2.10614e+53
5.33458e+51
-4.20596e+52
-3.1693e+52
-1.84682e+52
-1.09662e+52
-7.16404e+51
-4.74288e+51
-4.08119e+51
-3.72934e+59
-2.29229e+57
6.61073e+57
-9.84216e+56
3.9484e+55
1.15405e+55
-2.9021e+53
9.99289e+52
5.99751e+52
2.13805e+52
1.08332e+52
5.73958e+51
1.70141e+51
-1.66229e+51
-3.46603e+51
-3.26468e+60
-3.6233e+59
6.20822e+57
5.3508e+57
-1.07826e+57
3.639e+55
-9.23174e+54
-2.02371e+55
-1.80026e+55
-1.54732e+55
-1.24416e+55
-9.05659e+54
-5.63761e+54
-2.79478e+54
-9.85004e+53
6.51688e+61
-3.21867e+60
-3.32055e+59
6.32807e+57
4.46482e+57
-1.29517e+57
-1.69836e+56
-1.60729e+56
-1.28391e+56
-9.1648e+55
-6.35933e+55
-4.27787e+55
-2.68782e+55
-1.4953e+55
-5.72355e+54
-3.49728e+62
5.87862e+61
-3.12321e+60
-3.20011e+59
6.2887e+57
4.53503e+57
-6.77702e+56
5.48472e+56
5.8908e+56
5.75422e+56
5.1419e+56
4.0391e+56
2.63397e+56
1.29916e+56
4.74514e+55
-2.58754e+62
-2.94346e+62
5.40609e+61
-3.02844e+60
-2.99056e+59
1.66949e+58
1.15877e+58
4.23926e+57
3.58499e+57
2.19645e+57
1.23574e+57
6.92639e+56
4.07895e+56
2.62277e+56
1.18591e+56
2.47243e+64
-3.89769e+62
-2.56916e+62
5.10932e+61
-2.91963e+60
-2.908e+59
1.7871e+58
1.21921e+58
6.05301e+57
6.63563e+57
5.83892e+57
4.68715e+57
3.42226e+57
2.17735e+57
1.06997e+57
2.60161e+65
6.82124e+64
-8.44529e+62
-7.93648e+62
1.52983e+62
-5.47065e+60
1.518e+60
2.48652e+60
2.4296e+60
2.22114e+60
1.93047e+60
1.58055e+60
1.18593e+60
8.55133e+59
6.31753e+59
-7.97698e+66
2.30337e+65
6.48514e+64
-4.83457e+62
-8.17848e+62
1.76995e+62
1.53455e+61
1.72058e+61
1.5789e+61
1.31163e+61
9.19184e+60
6.13425e+60
4.1903e+60
2.83452e+60
1.69403e+60
5.36446e+67
-7.27588e+66
2.44098e+65
6.5154e+64
1.4022e+62
-6.68999e+62
2.64419e+62
8.73267e+61
6.55642e+61
4.95588e+61
3.56284e+61
2.37879e+61
1.41987e+61
7.54104e+60
4.20108e+60
-1.52557e+67
4.55473e+67
-6.92645e+66
1.65287e+65
8.68415e+64
7.5594e+63
-5.38162e+61
6.74591e+62
4.53318e+62
2.6093e+62
1.62516e+62
9.44996e+61
4.8508e+61
2.15937e+61
1.04622e+61
-3.96286e+69
1.68541e+67
4.06209e+67
-6.33276e+66
2.08292e+65
4.98421e+64
7.11146e+62
1.95428e+62
4.99099e+62
2.74648e+62
1.89045e+62
1.31446e+62
8.51361e+61
4.79196e+61
2.71805e+61
-2.33648e+65
4.47711e+67
-7.14477e+66
2.14006e+65
6.35697e+64
9.24723e+62
-1.39023e+62
5.99409e+62
3.24753e+62
2.22687e+62
1.57014e+62
1.25452e+62
9.67482e+61
6.77758e+61
4.55704e+61
5.53786e+67
-7.87894e+66
-1.68859e+64
4.08066e+64
2.49238e+63
-1.71434e+62
3.29258e+62
3.53346e+62
2.85663e+62
2.02938e+62
1.39206e+62
1.21848e+62
9.92798e+61
7.77959e+61
5.65669e+61
-5.45875e+66
-4.54987e+65
-5.79906e+64
-1.06736e+64
-9.10792e+62
8.37304e+62
9.18659e+62
7.12743e+62
5.00005e+62
3.36293e+62
2.35384e+62
2.03262e+62
1.27609e+62
8.09189e+61
4.93349e+61
4.65653e+64
1.83193e+64
1.42203e+64
7.46578e+63
4.03944e+63
2.31439e+63
1.37006e+63
8.29444e+62
5.12745e+62
3.58054e+62
3.16156e+62
3.74141e+62
2.9142e+61
4.38053e+60
1.15489e+60
1.66996e+64
4.57148e+63
2.08192e+63
1.15239e+63
6.54114e+62
3.81994e+62
2.33348e+62
1.50399e+62
1.13769e+62
2.24483e+62
6.55185e+61
-4.73487e+60
1.54279e+60
2.10131e+59
8.98326e+58
6.12385e+62
2.60114e+62
2.86005e+61
-3.24985e+61
-3.92963e+61
-3.41345e+61
-2.76378e+61
-2.32222e+61
-3.43263e+61
1.141e+62
1.79808e+62
2.26393e+60
-8.01294e+60
-4.27159e+60
-2.11076e+60
-2.45701e+62
-9.36466e+61
-3.56988e+61
-1.66934e+61
-8.68771e+60
-3.88371e+60
-2.17201e+60
-6.36899e+59
5.47108e+60
2.04965e+61
1.42102e+62
9.42542e+61
5.37893e+61
3.00866e+61
1.68329e+61
2.93579e+61
1.07763e+61
5.15483e+60
3.1978e+60
2.31216e+60
1.56315e+60
6.49084e+59
-2.16597e+58
-4.15209e+59
-1.99889e+60
6.95256e+60
1.72348e+61
1.86978e+61
1.55437e+61
1.1826e+61
-7.25389e+59
-2.51359e+59
-1.83513e+59
-1.40683e+59
-1.19072e+59
-9.18598e+58
-1.93245e+58
3.52931e+58
4.3664e+58
1.53511e+59
-5.14709e+59
-8.4341e+59
-7.6689e+59
-6.32225e+59
-5.32977e+59
-1.17053e+59
-3.91728e+58
-2.3837e+58
-1.94113e+58
-1.68424e+58
-1.36807e+58
-9.33625e+57
-4.91065e+57
8.9687e+56
2.13418e+58
6.40563e+58
5.2076e+58
3.21546e+58
2.15965e+58
1.6073e+58
-1.31807e+58
-6.3414e+57
-1.68883e+57
2.15003e+55
6.54694e+56
7.17338e+56
-1.03872e+56
-9.40759e+56
-1.50945e+57
-2.08741e+57
7.62962e+57
1.24461e+58
1.15199e+58
9.50302e+57
7.52474e+57
4.77453e+57
1.91393e+57
7.83417e+56
3.96524e+56
2.30745e+56
1.2899e+56
6.47711e+55
-1.71329e+55
-2.39446e+56
-8.40398e+56
-1.83612e+57
-1.78745e+57
-1.39273e+57
-1.06053e+57
-8.06236e+56
-5.51121e+56
-2.04746e+56
-1.06011e+56
-7.12455e+55
-5.34784e+55
-3.58255e+55
-1.3583e+55
5.82715e+54
1.68243e+55
-4.80161e+54
-9.42297e+55
-1.31364e+56
-1.18812e+56
-9.55048e+55
-7.32176e+55
-2.46254e+54
-1.89014e+54
1.73395e+54
2.60479e+54
2.58367e+54
1.62915e+54
-2.44127e+53
-1.1171e+54
8.29969e+53
7.62388e+54
1.86681e+55
1.96821e+55
1.60468e+55
1.2303e+55
9.22156e+54
6.80601e+54
2.58541e+54
1.24942e+54
7.8471e+53
5.64383e+53
3.78967e+53
1.55002e+53
-1.94355e+53
-7.46527e+53
-1.21142e+54
-1.17977e+54
-7.28291e+53
-4.36524e+53
-3.0435e+53
-2.7253e+53
-2.24221e+53
-7.79647e+52
-5.5874e+52
-4.52632e+52
-3.37982e+52
-1.09787e+52
2.41704e+52
4.61525e+52
1.87075e+52
-1.06122e+53
-2.93942e+53
-3.2747e+53
-2.77925e+53
-2.27936e+53
-2.08501e+53
-3.97966e+52
-1.52678e+52
-5.66548e+51
-2.7314e+51
-1.5227e+51
-6.66836e+50
1.03669e+51
6.74983e+51
2.08197e+52
4.14123e+52
5.4201e+52
4.70565e+52
3.41457e+52
1.70237e+52
-1.34363e+52
5.11226e+51
1.82929e+51
1.0875e+51
8.22999e+50
6.47063e+50
4.07598e+50
7.97759e+49
-1.77682e+50
-1.70015e+49
1.21925e+51
3.27873e+51
3.75544e+51
2.83266e+51
-1.87432e+51
-1.78585e+52
3.8266e+50
1.60009e+50
3.34319e+49
-3.56014e+48
-1.32444e+49
-6.79548e+48
9.39657e+48
5.31156e+48
-5.9859e+49
-2.14163e+50
-3.55819e+50
-1.50618e+50
6.72082e+50
7.75554e+50
-5.31875e+51
-1.15305e+50
-4.42159e+49
-2.31988e+49
-1.58467e+49
-1.20582e+49
-8.41193e+48
-3.64346e+48
2.83031e+48
1.16838e+49
2.41152e+49
4.21203e+49
8.58897e+49
2.99224e+50
1.01367e+51
2.40601e+51
-5.14533e+47
-6.01239e+47
3.5799e+47
6.91361e+47
6.9995e+47
4.24276e+47
-1.41372e+47
-8.42918e+47
-1.22837e+48
5.28503e+48
2.18602e+49
4.62378e+49
9.93296e+49
2.52237e+50
6.34376e+50
1.74698e+48
7.47846e+47
3.01001e+47
1.38594e+47
7.11445e+46
3.38671e+46
-2.62901e+46
-3.83824e+47
-1.22078e+48
4.85887e+48
2.11586e+49
4.52836e+49
8.2418e+49
1.45182e+50
2.5725e+50
-2.45511e+47
-9.99065e+46
-5.07261e+46
-3.2142e+46
-2.27123e+46
-1.71099e+46
-4.01811e+46
-3.66736e+47
-1.1583e+48
6.45184e+48
2.60163e+49
5.45252e+49
9.67897e+49
1.60011e+50
2.53499e+50
6.91955e+45
2.51897e+45
2.30276e+45
2.0639e+45
1.80785e+45
-5.42319e+44
-3.48959e+46
-4.28718e+47
-1.32289e+48
6.60488e+48
2.72175e+49
5.93764e+49
1.08044e+50
1.81179e+50
2.88746e+50
1.99188e+45
8.40664e+44
4.48015e+44
3.18366e+44
2.95487e+44
-1.62275e+45
-3.81966e+46
-5.04319e+47
-1.55026e+48
4.43733e+48
2.18002e+49
5.09212e+49
9.68315e+49
1.66783e+50
2.7005e+50
-4.56469e+43
-9.9301e+42
-4.62392e+42
1.94167e+43
8.6166e+43
-1.63137e+45
-4.03992e+46
-5.98254e+47
-2.10734e+48
3.15971e+47
1.23435e+49
3.3234e+49
6.57245e+49
1.14391e+50
1.8495e+50
-1.9531e+43
-4.80077e+42
9.23849e+42
3.85395e+43
1.20237e+44
-1.3368e+45
-4.01942e+46
-7.17256e+47
-2.34893e+48
-2.91274e+48
2.60127e+48
1.32525e+49
2.95422e+49
5.3238e+49
8.67232e+49
4.04187e+42
6.87348e+42
1.66419e+43
4.62488e+43
1.37385e+44
-1.05216e+45
-3.73407e+46
-8.38189e+47
-2.51958e+48
-4.11401e+48
-3.66445e+48
-9.2183e+47
4.28512e+48
1.22392e+49
2.35881e+49
1.55282e+42
6.64659e+42
1.86407e+43
5.13295e+43
1.50587e+44
-8.53046e+44
-3.40001e+46
-9.98511e+47
-2.42805e+48
-3.77612e+48
-4.87383e+48
-5.47897e+48
-5.34898e+48
-4.36035e+48
-2.33591e+48
1.84694e+42
7.94605e+42
2.23551e+43
5.9084e+43
1.68148e+44
-6.98801e+44
-3.52799e+46
-8.03553e+47
-1.91174e+48
-2.93191e+48
-3.98619e+48
-5.07111e+48
-6.14222e+48
-7.15249e+48
-8.02022e+48
2.23562e+42
9.65992e+42
2.73357e+43
6.97284e+43
1.89598e+44
-4.47742e+44
-3.74755e+46
-5.25084e+47
-1.1902e+48
-1.81321e+48
-2.4896e+48
-3.22852e+48
-4.05523e+48
-4.98924e+48
-6.00939e+48
2.6065e+42
1.14827e+43
3.27741e+43
8.16304e+43
2.08764e+44
-9.564e+43
-4.21046e+46
-3.23665e+47
-5.99959e+47
-8.73033e+47
-1.1753e+48
-1.5156e+48
-1.91347e+48
-2.38379e+48
-2.92582e+48
2.99222e+42
1.33868e+43
3.84528e+43
9.41934e+43
2.2581e+44
2.3771e+44
-3.06865e+46
-1.53463e+47
-2.4671e+47
-3.36548e+47
-4.33308e+47
-5.45723e+47
-6.8177e+47
-8.45171e+47
-1.03652e+48
3.43513e+42
1.55903e+43
4.50664e+43
1.08961e+44
2.44448e+44
4.01306e+44
-8.92678e+45
-5.60086e+46
-8.63666e+46
-1.10667e+47
-1.34706e+47
-1.62385e+47
-1.96327e+47
-2.37076e+47
-2.84459e+47
3.92573e+42
1.81094e+43
5.28815e+43
1.27203e+44
2.70777e+44
3.88907e+44
-3.18125e+45
-1.43751e+46
-2.3496e+46
-2.98975e+46
-3.53131e+46
-4.12791e+46
-4.81383e+46
-5.58105e+46
-6.42513e+46
4.43177e+42
2.07634e+43
6.13314e+43
1.48191e+44
3.18156e+44
4.82766e+44
6.41624e+43
-1.65101e+45
-3.659e+45
-5.29239e+45
-6.66757e+45
-7.99171e+45
-9.31773e+45
-1.06335e+46
-1.19324e+46
4.66321e+42
2.29951e+43
7.03078e+43
1.72148e+44
3.56921e+44
6.00935e+44
7.8179e+44
7.14077e+44
4.48653e+44
1.42342e+44
-1.5679e+44
-4.41832e+44
-7.1446e+44
-9.74165e+44
-1.22027e+45
2.47035e+42
1.53872e+43
4.77963e+43
1.10406e+44
2.09328e+44
3.32918e+44
4.37113e+44
4.82881e+44
4.82877e+44
4.62357e+44
4.31514e+44
3.95927e+44
3.57027e+44
3.15191e+44
2.71121e+44
-6.09957e+41
3.79989e+42
1.49676e+43
3.4281e+43
6.01886e+43
8.86247e+43
1.13445e+44
1.2993e+44
1.39114e+44
1.44706e+44
1.48214e+44
1.4984e+44
1.49611e+44
1.47569e+44
1.43924e+44
-1.80493e+42
-1.86346e+42
-8.25414e+41
1.3352e+42
4.29929e+42
7.6045e+42
1.0808e+43
1.35573e+43
1.57776e+43
1.76169e+43
1.91899e+43
2.05059e+43
2.15346e+43
2.22625e+43
2.26969e+43
-1.17691e+42
-1.62811e+42
-1.94229e+42
-2.11971e+42
-2.13285e+42
-2.02307e+42
-1.83025e+42
-1.58721e+42
-1.32526e+42
-1.06693e+42
-8.21125e+41
-5.89458e+41
-3.72842e+41
-1.72912e+41
7.02485e+39
-4.24698e+41
-5.54005e+41
-6.36436e+41
-6.91203e+41
-7.14387e+41
-7.16573e+41
-7.03764e+41
-6.81047e+41
-6.54586e+41
-6.27955e+41
-6.01317e+41
-5.73757e+41
-5.44707e+41
-5.14104e+41
-4.82634e+41
-1.12486e+41
-1.33585e+41
-1.35355e+41
-1.32255e+41
-1.26461e+41
-1.19756e+41
-1.12622e+41
-1.05494e+41
-9.91769e+40
-9.39616e+40
-8.94255e+40
-8.51277e+40
-8.0851e+40
-7.65199e+40
-7.21825e+40
-1.92894e+40
-2.42733e+40
-2.41118e+40
-2.24417e+40
-2.0203e+40
-1.79325e+40
-1.57982e+40
-1.38561e+40
-1.22387e+40
-1.09734e+40
-9.92992e+39
-9.01518e+39
-8.19156e+39
-7.4431e+39
-6.76417e+39
-3.84507e+38
-1.70386e+39
-2.27929e+39
-2.41628e+39
-2.32551e+39
-2.13668e+39
-1.91268e+39
-1.68725e+39
-1.49063e+39
-1.32874e+39
-1.18655e+39
-1.05663e+39
-9.37712e+38
-8.29636e+38
-7.3171e+38
7.56697e+38
5.25815e+38
2.97618e+38
1.52097e+38
6.24614e+37
9.13614e+36
-2.1375e+37
-3.84708e+37
-4.80153e+37
-5.27976e+37
-5.42072e+37
-5.33415e+37
-5.1011e+37
-4.77939e+37
-4.39308e+37
1.9826e+38
1.72005e+38
1.28805e+38
9.58559e+37
7.14236e+37
5.35996e+37
4.05581e+37
3.11531e+37
2.44538e+37
1.95214e+37
1.57024e+37
1.26553e+37
1.01979e+37
8.21109e+36
6.62953e+36
2.60013e+37
2.36142e+37
1.84565e+37
1.42951e+37
1.10905e+37
8.68432e+36
6.87668e+36
5.54963e+36
4.57752e+36
3.82487e+36
3.20912e+36
2.69227e+36
2.25512e+36
1.88559e+36
1.57649e+36
2.10962e+36
1.91181e+36
1.47747e+36
1.13515e+36
8.75853e+35
6.82494e+35
5.40962e+35
4.40254e+35
3.66059e+35
3.0736e+35
2.58681e+35
2.17561e+35
1.82654e+35
1.53058e+35
1.28181e+35
9.85726e+34
9.67569e+34
7.64789e+34
5.85679e+34
4.45804e+34
3.42578e+34
2.68352e+34
2.15809e+34
1.76991e+34
1.46269e+34
1.21046e+34
1.00111e+34
8.2696e+33
6.82371e+33
5.62915e+33
-2.9737e+33
-1.03837e+33
8.47596e+31
5.03489e+32
6.07441e+32
5.91958e+32
5.41597e+32
4.86284e+32
4.29343e+32
3.72421e+32
3.18419e+32
2.69285e+32
2.25777e+32
1.88102e+32
1.55622e+32
-1.1264e+33
-8.70175e+32
-5.93989e+32
-4.04055e+32
-2.77687e+32
-1.95669e+32
-1.42936e+32
-1.08009e+32
-8.32856e+31
-6.48467e+31
-5.07359e+31
-3.98087e+31
-3.1296e+31
-2.46424e+31
-1.94935e+31
-1.74346e+32
-1.11144e+32
-6.98544e+31
-4.686e+31
-3.2824e+31
-2.39645e+31
-1.82916e+31
-1.44423e+31
-1.15932e+31
-9.36295e+30
-7.5763e+30
-6.13176e+30
-4.95968e+30
-4.00897e+30
-3.24526e+30
-3.1337e+31
-1.83564e+31
-9.70139e+30
-5.58808e+30
-3.45451e+30
-2.27659e+30
-1.5929e+30
-1.16999e+30
-8.86219e+29
-6.83002e+29
-5.31974e+29
-4.17359e+29
-3.29186e+29
-2.60772e+29
-2.07922e+29
-2.83754e+30
-2.17002e+30
-1.31539e+30
-8.21732e+29
-5.33553e+29
-3.62978e+29
-2.57988e+29
-1.8897e+29
-1.40568e+29
-1.05335e+29
-7.92973e+28
-5.99213e+28
-4.54318e+28
-3.45759e+28
-2.6438e+28
1.59444e+29
4.02333e+28
-6.57863e+27
-1.76475e+28
-1.84069e+28
-1.66047e+28
-1.4278e+28
-1.19171e+28
-9.74324e+27
-7.85191e+27
-6.26033e+27
-4.9527e+27
-3.89565e+27
-3.05362e+27
-2.38426e+27
4.1875e+28
2.9346e+28
1.67595e+28
9.86254e+27
6.07903e+27
3.93299e+27
2.65293e+27
1.84453e+27
1.30396e+27
9.28782e+26
6.6423e+26
4.76342e+26
3.42332e+26
2.46789e+26
1.79348e+26
3.15668e+27
1.92151e+27
1.23787e+27
8.17797e+26
5.67539e+26
4.11296e+26
3.07986e+26
2.35347e+26
1.81197e+26
1.39439e+26
1.06936e+26
8.16562e+25
6.21006e+25
4.71178e+25
3.58184e+25
8.86301e+26
3.28458e+26
1.12818e+26
4.38157e+25
1.90732e+25
9.18942e+24
5.00291e+24
3.13514e+24
2.21887e+24
1.69514e+24
1.34587e+24
1.08606e+24
8.79518e+23
7.11693e+23
5.78618e+23
1.0579e+26
6.24995e+25
2.8512e+25
1.46296e+25
8.10345e+24
4.75724e+24
2.91645e+24
1.83451e+24
1.16282e+24
7.35195e+23
4.62336e+23
2.89336e+23
1.80388e+23
1.12411e+23
6.95536e+22
-2.03688e+25
-6.94764e+24
-2.13302e+24
-5.81463e+23
-6.57608e+22
1.00448e+23
1.39439e+23
1.32089e+23
1.09866e+23
8.57806e+22
6.46254e+22
4.76366e+22
3.46837e+22
2.52201e+22
1.8269e+22
-5.56349e+24
-2.94677e+24
-1.3877e+24
-7.19703e+23
-4.05521e+23
-2.44339e+23
-1.55223e+23
-1.02494e+23
-6.92997e+22
-4.74745e+22
-3.27925e+22
-2.28124e+22
-1.5988e+22
-1.13024e+22
-8.11417e+21
-4.24385e+23
-2.57393e+23
-1.39612e+23
-8.16745e+22
-5.13599e+22
-3.40833e+22
-2.35e+22
-1.66051e+22
-1.18705e+22
-8.51629e+21
-6.11462e+21
-4.39554e+21
-3.17002e+21
-2.30249e+21
-1.69273e+21
-1.45238e+22
-5.3879e+21
-1.85585e+21
-1.09009e+21
-8.23326e+20
-6.57829e+20
-5.2734e+20
-4.19294e+20
-3.29015e+20
-2.54413e+20
-1.94357e+20
-1.47307e+20
-1.11319e+20
-8.44643e+19
-6.45362e+19
2.22726e+21
1.09258e+21
6.20893e+20
3.17155e+20
1.7609e+20
1.08809e+20
7.34252e+19
5.21606e+19
3.79776e+19
2.78677e+19
2.0447e+19
1.49809e+19
1.09819e+19
8.0784e+18
6.02041e+18
1.70423e+21
8.23493e+20
3.0265e+20
1.21963e+20
5.51883e+19
2.8242e+19
1.58672e+19
9.56435e+18
6.08221e+18
4.01278e+18
2.71466e+18
1.87047e+18
1.30753e+18
9.26644e+17
6.72132e+17
4.11391e+20
1.55279e+20
5.85896e+19
2.7153e+19
1.49235e+19
8.92302e+18
5.56411e+18
3.57859e+18
2.34612e+18
1.55664e+18
1.04299e+18
7.05439e+17
4.81761e+17
3.32858e+17
2.32716e+17
3.94457e+19
-5.15543e+18
-3.1517e+18
-8.66418e+17
1.3844e+16
1.98484e+17
2.08889e+17
1.77799e+17
1.38892e+17
1.04131e+17
7.66889e+16
5.61766e+16
4.121e+16
3.04147e+16
2.23496e+16
-2.11723e+19
-6.58837e+18
-2.33113e+18
-8.84231e+17
-4.32254e+17
-2.45867e+17
-1.48708e+17
-9.4062e+16
-6.1304e+16
-4.07015e+16
-2.7385e+16
-1.86279e+16
-1.2797e+16
-8.87522e+15
-6.24983e+15
-8.81205e+18
-1.40201e+18
-2.86356e+17
-9.75304e+16
-5.55706e+16
-3.35299e+16
-2.12267e+16
-1.40762e+16
-9.57473e+15
-6.61038e+15
-4.61805e+15
-3.25878e+15
-2.32015e+15
-1.66572e+15
-1.20814e+15
1.84126e+17
-5.46027e+15
-7.12954e+14
-1.16813e+16
-7.8474e+15
-4.2156e+15
-2.34495e+15
-1.36992e+15
-8.33893e+14
-5.27513e+14
-3.4565e+14
-2.32943e+14
-1.60461e+14
-1.12896e+14
-8.10299e+13
6.08601e+17
8.87484e+16
9.98352e+15
-7.27093e+14
-1.06705e+15
-7.59643e+14
-5.00511e+14
-3.21217e+14
-2.05527e+14
-1.32344e+14
-8.56992e+13
-5.55923e+13
-3.61859e+13
-2.37627e+13
-1.56039e+13
3.64585e+16