/*--------------------------------*- C++ -*----------------------------------*\
  =========                 |
  \\      /  F ield         | OpenFOAM: The Open Source CFD Toolbox
   \\    /   O peration     | Website:  https://openfoam.org
    \\  /    A nd           | Version:  8
     \\/     M anipulation  |
\*---------------------------------------------------------------------------*/
FoamFile
{
    version     2.0;
    format      ascii;
    class       volScalarField;
    location    "100";
    object      epsilon;
}
// * * * * * * * * * * * * * * * * * * * * * * * * * * * * * * * * * * * * * //

dimensions      [0 2 -3 0 0 0 0];

internalField   nonuniform List<scalar> 
7320
(
11509.2
10623.9
18543.5
25126.3
28051
29798.7
31271.2
32634.9
33920.1
35145.1
36333.7
37483.6
38593.8
39655.8
40663.2
41594.9
42437.4
43179.2
43833.5
44388
44850.7
45229.6
45546.9
45801.9
46005.4
46160.9
46300.9
46406.7
46486.8
46543.4
46596.8
46634.2
46660.5
46668
46698.3
46714.3
46722
46717.5
46728.8
46732
46730.3
46713.4
46732.1
46738.5
46737.5
46723.1
46732
46733
46727.6
46705.8
46726
46733.5
46731.6
46714.5
46725.4
46727.6
46723
46700.6
46723.9
46734
46732.5
46714.7
46726.5
46728.6
46725.1
46705.2
46731
46742.3
46741.5
46723.5
46736.1
46738.3
46735.1
46719
46746.9
46758.9
46758.4
46743.9
46758
46759.8
46756.2
46743.7
46770.5
46780.8
46779.7
46768.4
46784.3
46786
46783.1
46774.7
46799.5
46808.1
46806.7
46798.5
46812
46813.9
46812.3
46806.8
46827.1
46833.4
46833.3
46828.7
46838.9
46841.7
46842
46839.8
46852.2
46857.4
46859.2
46858.8
46863.9
46866.8
46869
46870.6
46871.2
46873.6
46876.9
46880
46876.7
46878.1
46878.1
46884.4
3710.57
3558.12
6489.92
9060.27
10158
10793.6
11325.4
11816.6
12278.6
12718
13143.9
13555.1
13951.3
14329.5
14687.8
15018
15315.6
15576.7
15807.2
16001.3
16162.8
16294.4
16405
16493.2
16563.4
16616.5
16665.6
16701.9
16729.1
16747.9
16766.7
16779.2
16787.8
16789.4
16801.1
16806.5
16808.8
16806.5
16811
16811.9
16811
16804
16812.1
16814.4
16813.8
16807.8
16811.9
16812
16809.8
16801
16809.8
16812.5
16811.6
16804.6
16809.4
16810.1
16808.1
16799
16809
16812.7
16812
16804.6
16809.8
16810.3
16808.7
16800.5
16811.4
16815.6
16815.1
16807.6
16813
16813.6
16812.1
16805.3
16817
16821.4
16820.9
16814.8
16820.8
16821.1
16819.4
16814.1
16825.2
16828.9
16828.2
16823.4
16830
16830.2
16828.8
16825.1
16835.4
16838.4
16837.6
16834.1
16839.7
16840.1
16839.2
16836.7
16845
16847.2
16846.9
16844.8
16848.9
16849.7
16849.6
16848.5
16853.5
16855.3
16855.8
16855.4
16857.4
16858.3
16859
16859.4
16859.6
16860.4
16861.6
16862.7
16861.3
16861.7
16862
16864.3
1508.87
1847.66
4185.13
5884.07
6566.38
6951.28
7275.45
7576.59
7860.47
8130.65
8393.03
8646.17
8890
9122.37
9342.28
9544.19
9725.6
9884.03
10023.9
10140.9
10237.8
10316.4
10382.6
10434.9
10476.4
10507.3
10536.8
10558
10573.8
10584.4
10595.6
10602.7
10607.6
10607.8
10615.4
10618.5
10619.7
10617.8
10620.9
10621.2
10620.5
10615.6
10621.4
10622.8
10622.3
10618.2
10621.1
10621.2
10619.6
10613.5
10619.9
10621.6
10620.9
10616.1
10619.6
10620
10618.5
10612.2
10619.4
10621.8
10621.2
10616.1
10619.8
10620.1
10618.9
10613.2
10620.9
10623.6
10623.1
10617.9
10621.8
10622
10620.8
10616.1
10624.3
10627.1
10626.6
10622.3
10626.6
10626.6
10625.3
10621.5
10629.4
10631.7
10631
10627.6
10632.2
10632.2
10631.1
10628.4
10635.7
10637.5
10636.8
10634.2
10638.2
10638.3
10637.5
10635.7
10641.5
10642.8
10642.5
10640.9
10643.8
10644.2
10644
10643.1
10646.6
10647.6
10647.9
10647.5
10648.8
10649.3
10649.7
10649.9
10650
10650.5
10651.2
10651.9
10650.9
10651.2
10651.5
10653
709.702
1219.24
3273.85
4567.48
5054.54
5323.09
5552.74
5768.42
5972.82
6167.94
6358.03
6541.61
6718.53
6887.05
7046.48
7192.49
7323.34
7437.22
7537.75
7621.42
7690.47
7746.18
7793.18
7830.06
7859.16
7880.66
7901.67
7916.42
7927.32
7934.46
7942.4
7947.22
7950.43
7950.16
7955.95
7958.06
7958.78
7957.1
7959.53
7959.72
7959.07
7955.16
7959.83
7960.86
7960.43
7957.14
7959.58
7959.6
7958.36
7953.53
7958.7
7960.04
7959.46
7955.57
7958.46
7958.72
7957.57
7952.54
7958.35
7960.2
7959.66
7955.55
7958.62
7958.79
7957.78
7953.18
7959.45
7961.53
7961.07
7956.85
7960.06
7960.17
7959.15
7955.28
7961.93
7964.05
7963.6
7960.08
7963.55
7963.5
7962.37
7959.26
7965.6
7967.33
7966.73
7963.92
7967.68
7967.54
7966.56
7964.35
7970.18
7971.54
7970.93
7968.8
7971.97
7971.93
7971.26
7969.7
7974.4
7975.31
7974.97
7973.66
7975.98
7976.19
7975.96
7975.16
7977.97
7978.72
7978.85
7978.46
7979.54
7979.88
7980.14
7980.24
7980.25
7980.61
7981.18
7981.67
7980.84
7981.12
7981.38
7982.61
353.08
917.509
2777.51
3824.6
4192.37
4390.25
4563.27
4728.32
4885.99
5037.2
5185.18
5328.35
5466.54
5598.24
5722.91
5836.92
5938.95
6027.55
6105.85
6170.74
6224.14
6267.07
6303.38
6331.68
6353.95
6370.25
6386.55
6397.76
6405.98
6411.25
6417.42
6421.01
6423.36
6422.87
6427.64
6429.23
6429.69
6428.19
6430.25
6430.35
6429.78
6426.45
6430.48
6431.3
6430.9
6428.11
6430.24
6430.24
6429.2
6425.11
6429.59
6430.67
6430.15
6426.84
6429.37
6429.57
6428.58
6424.3
6429.32
6430.82
6430.33
6426.82
6429.5
6429.6
6428.71
6424.77
6430.16
6431.86
6431.43
6427.82
6430.61
6430.65
6429.72
6426.38
6432.08
6433.8
6433.36
6430.32
6433.33
6433.22
6432.19
6429.5
6434.93
6436.3
6435.74
6433.3
6436.53
6436.33
6435.44
6433.5
6438.49
6439.56
6438.99
6437.14
6439.86
6439.74
6439.11
6437.74
6441.75
6442.44
6442.11
6440.94
6442.92
6443.02
6442.78
6442.05
6444.44
6445.01
6445.07
6444.69
6445.6
6445.84
6446.02
6446.06
6446.05
6446.33
6446.79
6447.17
6446.46
6446.7
6446.94
6448.03
178.856
742.173
2457.33
3335.66
3621.26
3770.41
3904.78
4035.67
4162.06
4284.04
4404.07
4520.55
4633.24
4740.79
4842.78
4936.04
5019.5
5091.94
5156.08
5209.08
5252.64
5287.58
5317.22
5340.22
5358.27
5371.4
5384.81
5393.87
5400.48
5404.65
5409.74
5412.6
5414.46
5413.9
5418.03
5419.31
5419.64
5418.29
5420.11
5420.17
5419.65
5416.74
5420.33
5421.01
5420.64
5418.2
5420.12
5420.11
5419.2
5415.63
5419.62
5420.53
5420.05
5417.15
5419.41
5419.57
5418.69
5414.93
5419.4
5420.67
5420.21
5417.12
5419.52
5419.58
5418.76
5415.29
5420.06
5421.5
5421.09
5417.9
5420.4
5420.38
5419.53
5416.56
5421.59
5423.04
5422.6
5419.91
5422.58
5422.43
5421.49
5419.07
5423.87
5425.01
5424.47
5422.29
5425.15
5424.91
5424.08
5422.33
5426.73
5427.61
5427.07
5425.41
5427.81
5427.65
5427.06
5425.8
5429.34
5429.88
5429.55
5428.49
5430.22
5430.26
5430.01
5429.32
5431.42
5431.87
5431.88
5431.52
5432.3
5432.48
5432.6
5432.6
5432.58
5432.8
5433.18
5433.49
5432.85
5433.07
5433.3
5434.29
91.1673
623.262
2226.9
2983.3
3208.74
3321.85
3427.84
3533.93
3637.82
3738.9
3839.04
3936.58
4031.26
4121.85
4208
4286.9
4357.61
4419.04
4473.61
4518.65
4555.68
4585.37
4610.63
4630.18
4645.53
4656.65
4668.19
4675.9
4681.51
4685.02
4689.43
4691.87
4693.44
4692.89
4696.59
4697.69
4697.95
4696.74
4698.39
4698.44
4697.98
4695.38
4698.65
4699.24
4698.89
4696.71
4698.47
4698.46
4697.65
4694.46
4698.08
4698.87
4698.43
4695.82
4697.88
4698.02
4697.22
4693.85
4697.89
4699
4698.57
4695.79
4697.97
4698
4697.25
4694.12
4698.42
4699.67
4699.27
4696.4
4698.67
4698.63
4697.83
4695.13
4699.66
4700.9
4700.47
4698.03
4700.45
4700.28
4699.4
4697.2
4701.5
4702.48
4701.95
4699.97
4702.54
4702.29
4701.5
4699.9
4703.85
4704.59
4704.07
4702.55
4704.71
4704.53
4703.96
4702.8
4705.97
4706.4
4706.07
4705.09
4706.64
4706.64
4706.37
4705.73
4707.6
4707.96
4707.94
4707.58
4708.27
4708.4
4708.48
4708.45
4708.42
4708.59
4708.91
4709.17
4708.59
4708.79
4709
4709.92
47.1754
531.183
2046.34
2713.53
2893.7
2979.04
3063.22
3150.46
3237.43
3322.9
3408.24
3491.76
3573.18
3651.36
3726.01
3794.57
3856.22
3909.92
3957.82
3997.4
4030
4056.16
4078.51
4095.8
4109.39
4119.25
4129.57
4136.43
4141.43
4144.56
4148.55
4150.75
4152.17
4151.68
4155.08
4156.09
4156.33
4155.24
4156.78
4156.83
4156.42
4154.08
4157.09
4157.62
4157.3
4155.32
4156.95
4156.94
4156.2
4153.32
4156.64
4157.35
4156.93
4154.56
4156.46
4156.57
4155.84
4152.78
4156.48
4157.46
4157.05
4154.52
4156.52
4156.53
4155.83
4152.97
4156.9
4158
4157.62
4155
4157.08
4157.02
4156.26
4153.79
4157.9
4158.99
4158.57
4156.34
4158.54
4158.36
4157.53
4155.5
4159.41
4160.25
4159.75
4157.93
4160.26
4159.99
4159.25
4157.77
4161.34
4161.98
4161.49
4160.09
4162.05
4161.84
4161.3
4160.21
4163.08
4163.44
4163.11
4162.2
4163.6
4163.57
4163.29
4162.68
4164.36
4164.66
4164.62
4164.26
4164.88
4164.97
4165.02
4164.97
4164.93
4165.06
4165.33
4165.55
4165.01
4165.2
4165.4
4166.25
25.3622
451.847
1893.55
2497.24
2643.41
2706.9
2773.79
2846.26
2920.1
2993.57
3067.58
3140.45
3211.82
3280.67
3346.76
3407.72
3462.79
3510.98
3554.18
3589.99
3619.57
3643.39
3663.82
3679.65
3692.14
3701.23
3710.78
3717.14
3721.79
3724.74
3728.48
3730.56
3731.92
3731.54
3734.73
3735.69
3735.94
3734.97
3736.43
3736.5
3736.14
3734.03
3736.82
3737.31
3737.01
3735.21
3736.72
3736.72
3736.04
3733.41
3736.48
3737.12
3736.73
3734.56
3736.3
3736.41
3735.72
3732.93
3736.33
3737.21
3736.82
3734.5
3736.34
3736.34
3735.68
3733.06
3736.66
3737.65
3737.28
3734.87
3736.78
3736.71
3735.99
3733.71
3737.47
3738.44
3738.03
3735.97
3737.99
3737.8
3737.02
3735.14
3738.7
3739.45
3738.96
3737.28
3739.41
3739.14
3738.43
3737.04
3740.31
3740.87
3740.39
3739.09
3740.88
3740.67
3740.14
3739.13
3741.74
3742.04
3741.72
3740.86
3742.13
3742.08
3741.8
3741.21
3742.74
3742.99
3742.93
3742.58
3743.13
3743.19
3743.22
3743.15
3743.09
3743.2
3743.43
3743.61
3743.11
3743.28
3743.47
3744.27
14.5221
378.413
1754.33
2316.58
2438.25
2484.51
2537.42
2598.02
2661.47
2725.5
2790.67
2855.25
2918.88
2980.59
3040.18
3095.47
3145.72
3189.95
3229.84
3263.07
3290.65
3312.96
3332.17
3347.11
3358.95
3367.63
3376.72
3382.83
3387.33
3390.22
3393.84
3395.89
3397.26
3397.01
3400.05
3401.01
3401.3
3400.45
3401.84
3401.94
3401.64
3399.72
3402.32
3402.79
3402.52
3400.86
3402.27
3402.27
3401.65
3399.24
3402.08
3402.67
3402.3
3400.3
3401.91
3402.01
3401.37
3398.8
3401.93
3402.75
3402.38
3400.24
3401.93
3401.93
3401.3
3398.88
3402.19
3403.09
3402.73
3400.51
3402.27
3402.19
3401.51
3399.4
3402.84
3403.72
3403.32
3401.41
3403.26
3403.08
3402.34
3400.59
3403.85
3404.52
3404.05
3402.48
3404.43
3404.17
3403.5
3402.2
3405.18
3405.68
3405.23
3404.02
3405.65
3405.44
3404.94
3403.98
3406.37
3406.63
3406.31
3405.5
3406.66
3406.59
3406.31
3405.75
3407.14
3407.35
3407.27
3406.93
3407.42
3407.46
3407.47
3407.38
3407.32
3407.4
3407.6
3407.75
3407.28
3407.44
3407.62
3408.36
8.98407
308.161
1618.33
2159.21
2265.21
2298.18
2339.69
2390.63
2445.67
2502.17
2560.31
2618.34
2675.89
2732.04
2786.64
2837.64
2884.33
2925.73
2963.31
2994.81
3021.12
3042.52
3061.01
3075.48
3087
3095.54
3104.39
3110.43
3114.91
3117.85
3121.43
3123.52
3124.95
3124.87
3127.79
3128.78
3129.12
3128.4
3129.73
3129.88
3129.62
3127.88
3130.31
3130.77
3130.53
3129.01
3130.31
3130.32
3129.75
3127.54
3130.17
3130.73
3130.38
3128.53
3130.02
3130.1
3129.5
3127.14
3130.03
3130.78
3130.43
3128.45
3130.01
3130
3129.42
3127.18
3130.22
3131.05
3130.71
3128.65
3130.26
3130.19
3129.55
3127.58
3130.74
3131.54
3131.16
3129.38
3131.07
3130.9
3130.2
3128.57
3131.56
3132.17
3131.72
3130.26
3132.04
3131.79
3131.15
3129.94
3132.66
3133.12
3132.68
3131.56
3133.05
3132.85
3132.36
3131.46
3133.64
3133.87
3133.56
3132.8
3133.85
3133.77
3133.5
3132.97
3134.23
3134.41
3134.32
3133.99
3134.43
3134.44
3134.44
3134.34
3134.27
3134.34
3134.5
3134.63
3134.19
3134.33
3134.5
3135.17
6.01669
241.083
1477.51
2015.48
2114.82
2138.26
2170.56
2213.52
2261.69
2312.07
2364.52
2417.3
2469.99
2521.75
2572.43
2620.15
2664.19
2703.57
2739.54
2769.94
2795.48
2816.42
2834.55
2848.85
2860.3
2868.88
2877.66
2883.75
2888.32
2891.39
2894.99
2897.18
2898.7
2898.79
2901.64
2902.69
2903.09
2902.5
2903.79
2903.97
2903.77
2902.2
2904.46
2904.93
2904.72
2903.32
2904.53
2904.55
2904.02
2901.99
2904.41
2904.95
2904.62
2902.92
2904.28
2904.36
2903.8
2901.62
2904.28
2904.99
2904.66
2902.83
2904.25
2904.25
2903.7
2901.63
2904.41
2905.18
2904.86
2902.96
2904.42
2904.36
2903.76
2901.94
2904.82
2905.57
2905.2
2903.56
2905.09
2904.93
2904.27
2902.76
2905.49
2906.05
2905.63
2904.27
2905.88
2905.65
2905.05
2903.92
2906.4
2906.82
2906.41
2905.37
2906.72
2906.53
2906.07
2905.22
2907.21
2907.42
2907.12
2906.41
2907.35
2907.28
2907.01
2906.5
2907.65
2907.8
2907.71
2907.39
2907.78
2907.78
2907.76
2907.66
2907.58
2907.63
2907.77
2907.87
2907.46
2907.58
2907.74
2908.36
4.33976
178.984
1325.84
1877.08
1979.51
1997.4
2022.48
2058.87
2101.36
2146.7
2194.48
2242.96
2291.7
2339.91
2387.47
2432.61
2474.63
2512.55
2547.4
2577.12
2602.28
2623.05
2641.08
2655.42
2666.96
2675.73
2684.55
2690.79
2695.51
2698.77
2702.45
2704.76
2706.4
2706.69
2709.47
2710.59
2711.08
2710.61
2711.86
2712.1
2711.95
2710.55
2712.65
2713.12
2712.95
2711.67
2712.78
2712.81
2712.32
2710.47
2712.69
2713.21
2712.91
2711.34
2712.57
2712.65
2712.13
2710.13
2712.55
2713.23
2712.93
2711.24
2712.53
2712.53
2712.01
2710.11
2712.65
2713.37
2713.07
2711.32
2712.64
2712.59
2712.02
2710.34
2712.96
2713.66
2713.32
2711.8
2713.18
2713.04
2712.42
2711.02
2713.5
2714.02
2713.63
2712.38
2713.83
2713.62
2713.05
2712
2714.26
2714.65
2714.27
2713.3
2714.52
2714.35
2713.91
2713.12
2714.92
2715.12
2714.84
2714.17
2715.02
2714.95
2714.69
2714.21
2715.24
2715.38
2715.28
2714.98
2715.32
2715.31
2715.28
2715.18
2715.1
2715.12
2715.24
2715.33
2714.94
2715.05
2715.2
2715.74
3.3466
124.576
1159.66
1736.29
1852.63
1869.56
1889.51
1920.59
1958.35
1999.5
2043.38
2088.28
2133.72
2178.99
2223.95
2266.99
2307.42
2344.24
2378.3
2407.62
2432.62
2453.42
2471.5
2486.02
2497.78
2506.82
2515.74
2522.19
2527.12
2530.6
2534.38
2536.85
2538.62
2539.13
2541.85
2543.06
2543.63
2543.3
2544.52
2544.8
2544.72
2543.48
2545.42
2545.9
2545.77
2544.61
2545.61
2545.66
2545.21
2543.53
2545.54
2546.04
2545.78
2544.34
2545.44
2545.53
2545.04
2543.22
2545.41
2546.05
2545.78
2544.24
2545.38
2545.4
2544.92
2543.18
2545.46
2546.15
2545.87
2544.27
2545.44
2545.41
2544.89
2543.35
2545.71
2546.36
2546.05
2544.66
2545.88
2545.76
2545.19
2543.91
2546.13
2546.63
2546.27
2545.12
2546.41
2546.23
2545.7
2544.74
2546.76
2547.14
2546.79
2545.9
2546.98
2546.83
2546.43
2545.7
2547.31
2547.5
2547.24
2546.62
2547.38
2547.31
2547.07
2546.62
2547.54
2547.67
2547.57
2547.28
2547.58
2547.57
2547.53
2547.43
2547.34
2547.36
2547.45
2547.52
2547.17
2547.25
2547.4
2547.87
2.73848
80.4244
978.672
1585.84
1727.85
1749.39
1766.64
1793.68
1827.57
1865.21
1905.77
1947.61
1990.23
2032.96
2075.68
2116.93
2156
2191.92
2225.35
2254.4
2279.37
2300.3
2318.52
2333.28
2345.3
2354.66
2363.73
2370.42
2375.58
2379.3
2383.19
2385.82
2387.75
2388.47
2391.14
2392.44
2393.11
2392.92
2394.1
2394.44
2394.42
2393.34
2395.11
2395.61
2395.52
2394.48
2395.38
2395.44
2395.04
2393.52
2395.32
2395.82
2395.59
2394.28
2395.25
2395.34
2394.89
2393.24
2395.19
2395.81
2395.57
2394.18
2395.18
2395.2
2394.76
2393.19
2395.22
2395.87
2395.62
2394.17
2395.19
2395.17
2394.7
2393.31
2395.4
2396.02
2395.75
2394.48
2395.55
2395.45
2394.93
2393.77
2395.74
2396.22
2395.9
2394.85
2395.98
2395.83
2395.35
2394.47
2396.26
2396.63
2396.32
2395.5
2396.46
2396.34
2395.96
2395.3
2396.73
2396.92
2396.68
2396.11
2396.77
2396.72
2396.49
2396.08
2396.89
2397.01
2396.92
2396.65
2396.9
2396.89
2396.85
2396.74
2396.66
2396.66
2396.74
2396.79
2396.47
2396.53
2396.67
2397.05
2.36034
47.8841
786.953
1419.33
1598.85
1631.88
1649.43
1673.88
1704.76
1739.48
1777.2
1816.36
1856.49
1896.95
1937.63
1977.22
2015.04
2050.12
2082.94
2111.76
2136.7
2157.76
2176.13
2191.14
2203.43
2213.1
2222.3
2229.24
2234.64
2238.6
2242.6
2245.4
2247.48
2248.41
2251.02
2252.42
2253.19
2253.14
2254.28
2254.67
2254.71
2253.8
2255.4
2255.92
2255.87
2254.96
2255.75
2255.82
2255.47
2254.11
2255.69
2256.18
2255.99
2254.82
2255.66
2255.74
2255.34
2253.86
2255.57
2256.16
2255.96
2254.71
2255.57
2255.6
2255.21
2253.8
2255.57
2256.19
2255.98
2254.68
2255.55
2255.55
2255.12
2253.88
2255.71
2256.3
2256.06
2254.93
2255.84
2255.77
2255.3
2254.26
2255.98
2256.44
2256.16
2255.22
2256.2
2256.08
2255.65
2254.85
2256.42
2256.78
2256.51
2255.78
2256.6
2256.5
2256.17
2255.57
2256.82
2257.01
2256.8
2256.29
2256.85
2256.81
2256.61
2256.23
2256.94
2257.05
2256.97
2256.72
2256.93
2256.92
2256.88
2256.78
2256.69
2256.68
2256.75
2256.79
2256.5
2256.54
2256.67
2256.97
2.12669
26.4461
593.608
1232.28
1459.22
1511.96
1533.76
1557.46
1586.28
1618.68
1653.97
1690.78
1728.63
1766.98
1805.71
1843.67
1880.2
1914.38
1946.52
1975
1999.82
2020.95
2039.39
2054.57
2067.08
2077.03
2086.32
2093.47
2099.07
2103.26
2107.35
2110.31
2112.53
2113.67
2116.22
2117.69
2118.56
2118.66
2119.75
2120.2
2120.3
2119.55
2120.98
2121.51
2121.51
2120.73
2121.4
2121.49
2121.18
2119.99
2121.35
2121.83
2121.68
2120.66
2121.35
2121.43
2121.08
2119.78
2121.24
2121.8
2121.65
2120.54
2121.26
2121.29
2120.95
2119.71
2121.23
2121.81
2121.64
2120.5
2121.22
2121.23
2120.85
2119.76
2121.33
2121.88
2121.7
2120.7
2121.45
2121.41
2120.99
2120.07
2121.55
2121.99
2121.76
2120.93
2121.75
2121.67
2121.28
2120.58
2121.93
2122.27
2122.05
2121.4
2122.09
2122.03
2121.73
2121.2
2122.27
2122.47
2122.29
2121.84
2122.31
2122.28
2122.1
2121.77
2122.37
2122.48
2122.41
2122.19
2122.36
2122.35
2122.31
2122.21
2122.13
2122.12
2122.16
2122.19
2121.94
2121.96
2122.08
2122.29
1.98674
13.9002
412.079
1024
1302.84
1384.41
1415.56
1440.96
1468.96
1499.73
1533.04
1567.75
1603.51
1639.83
1676.62
1712.9
1748.02
1781.14
1812.4
1840.35
1864.89
1885.91
1904.27
1919.51
1932.13
1942.25
1951.57
1958.85
1964.62
1969
1973.14
1976.22
1978.56
1979.9
1982.36
1983.9
1984.86
1985.1
1986.14
1986.64
1986.8
1986.22
1987.46
1988
1988.05
1987.4
1987.96
1988.06
1987.8
1986.78
1987.91
1988.37
1988.27
1987.39
1987.95
1988.02
1987.72
1986.6
1987.81
1988.34
1988.23
1987.28
1987.85
1987.89
1987.59
1986.53
1987.79
1988.33
1988.2
1987.22
1987.79
1987.81
1987.49
1986.56
1987.86
1988.39
1988.25
1987.39
1987.99
1987.97
1987.61
1986.82
1988.05
1988.47
1988.29
1987.58
1988.25
1988.19
1987.86
1987.26
1988.38
1988.72
1988.54
1987.98
1988.55
1988.51
1988.25
1987.8
1988.69
1988.89
1988.75
1988.35
1988.74
1988.73
1988.57
1988.28
1988.78
1988.89
1988.84
1988.64
1988.78
1988.77
1988.73
1988.65
1988.56
1988.55
1988.59
1988.61
1988.39
1988.39
1988.49
1988.62
1.90773
7.31384
257.373
799.83
1124.88
1243.9
1290.69
1321.1
1349.97
1380.02
1411.87
1444.82
1478.65
1513.02
1547.85
1582.32
1615.86
1647.68
1677.8
1704.95
1728.93
1749.6
1767.66
1782.76
1795.33
1805.5
1814.72
1822.04
1827.89
1832.38
1836.53
1839.69
1842.12
1843.62
1845.98
1847.56
1848.6
1848.97
1849.96
1850.49
1850.71
1850.29
1851.35
1851.88
1851.99
1851.46
1851.93
1852.03
1851.81
1850.96
1851.88
1852.3
1852.25
1851.51
1851.94
1852.01
1851.75
1850.81
1851.78
1852.27
1852.2
1851.41
1851.84
1851.88
1851.63
1850.74
1851.75
1852.25
1852.17
1851.35
1851.78
1851.81
1851.54
1850.76
1851.82
1852.3
1852.21
1851.49
1851.96
1851.94
1851.65
1850.98
1851.98
1852.37
1852.25
1851.66
1852.18
1852.15
1851.88
1851.37
1852.28
1852.6
1852.47
1852
1852.45
1852.43
1852.22
1851.84
1852.56
1852.76
1852.66
1852.33
1852.63
1852.63
1852.5
1852.26
1852.66
1852.77
1852.73
1852.57
1852.67
1852.67
1852.63
1852.56
1852.48
1852.46
1852.49
1852.5
1852.32
1852.3
1852.39
1852.43
1.86691
4.13576
141.191
573.046
923.893
1085.41
1154.86
1194.59
1226.68
1257.31
1288.44
1320.06
1352.2
1384.71
1417.56
1450.12
1481.87
1512.11
1540.78
1566.79
1589.87
1609.88
1627.36
1642.08
1654.37
1664.41
1673.37
1680.6
1686.42
1690.95
1695.04
1698.21
1700.68
1702.31
1704.53
1706.13
1707.21
1707.7
1708.63
1709.18
1709.45
1709.18
1710.07
1710.58
1710.73
1710.34
1710.7
1710.81
1710.64
1709.95
1710.66
1711.04
1711.03
1710.44
1710.75
1710.81
1710.6
1709.83
1710.58
1711.01
1710.98
1710.35
1710.65
1710.69
1710.49
1709.77
1710.55
1710.98
1710.95
1710.29
1710.59
1710.62
1710.41
1709.78
1710.6
1711.03
1710.99
1710.42
1710.75
1710.75
1710.52
1709.98
1710.75
1711.11
1711.04
1710.57
1710.95
1710.95
1710.73
1710.32
1711.03
1711.32
1711.24
1710.87
1711.2
1711.21
1711.04
1710.73
1711.3
1711.49
1711.42
1711.16
1711.39
1711.4
1711.3
1711.1
1711.41
1711.52
1711.5
1711.37
1711.44
1711.44
1711.41
1711.35
1711.28
1711.26
1711.28
1711.29
1711.14
1711.11
1711.18
1711.15
1.84816
2.68875
66.8442
364.363
704.834
905.62
1003.88
1058.1
1096.56
1129.59
1161.08
1192.03
1222.87
1253.71
1284.64
1315.21
1344.99
1373.39
1400.28
1424.76
1446.56
1465.54
1482.12
1496.14
1507.9
1517.57
1526.11
1533.08
1538.73
1543.19
1547.13
1550.24
1552.69
1554.39
1556.46
1558.02
1559.13
1559.71
1560.57
1561.13
1561.44
1561.31
1562.03
1562.51
1562.69
1562.43
1562.71
1562.8
1562.68
1562.15
1562.66
1563
1563.02
1562.57
1562.78
1562.83
1562.66
1562.06
1562.59
1562.96
1562.97
1562.49
1562.69
1562.72
1562.56
1562
1562.57
1562.94
1562.95
1562.44
1562.64
1562.66
1562.5
1562.01
1562.62
1562.99
1562.99
1562.56
1562.79
1562.79
1562.61
1562.19
1562.76
1563.08
1563.06
1562.7
1562.97
1562.98
1562.81
1562.49
1563.03
1563.29
1563.25
1562.97
1563.21
1563.22
1563.1
1562.86
1563.29
1563.47
1563.44
1563.23
1563.4
1563.41
1563.34
1563.19
1563.42
1563.52
1563.52
1563.42
1563.47
1563.47
1563.45
1563.4
1563.35
1563.33
1563.34
1563.34
1563.23
1563.19
1563.24
1563.14
1.84071
2.05856
27.5233
196.954
482.297
705.496
834.593
908.397
957.096
995.015
1028.41
1059.68
1089.82
1119.36
1148.57
1177.19
1204.9
1231.23
1256.04
1278.62
1298.75
1316.31
1331.61
1344.61
1355.55
1364.6
1372.51
1379.03
1384.36
1388.62
1392.32
1395.28
1397.64
1399.35
1401.24
1402.72
1403.82
1404.47
1405.25
1405.8
1406.13
1406.12
1406.69
1407.12
1407.33
1407.17
1407.38
1407.47
1407.38
1406.99
1407.35
1407.62
1407.67
1407.35
1407.47
1407.51
1407.38
1406.93
1407.29
1407.59
1407.62
1407.28
1407.39
1407.41
1407.29
1406.87
1407.26
1407.57
1407.6
1407.24
1407.35
1407.36
1407.25
1406.89
1407.31
1407.62
1407.66
1407.36
1407.49
1407.5
1407.37
1407.06
1407.46
1407.73
1407.74
1407.49
1407.67
1407.68
1407.57
1407.34
1407.71
1407.94
1407.94
1407.74
1407.9
1407.92
1407.84
1407.67
1407.97
1408.13
1408.13
1407.99
1408.1
1408.11
1408.07
1407.96
1408.13
1408.22
1408.23
1408.16
1408.19
1408.2
1408.18
1408.15
1408.1
1408.08
1408.09
1408.09
1408.01
1407.97
1408
1407.85
1.8382
1.79954
10.4854
86.322
281.169
494.36
647.032
743.066
805.926
851.777
889.185
922.173
952.599
981.465
1009.34
1036.21
1061.9
1086.05
1108.55
1128.93
1147.02
1162.76
1176.44
1188.07
1197.89
1206.05
1213.14
1219.03
1223.89
1227.81
1231.18
1233.91
1236.11
1237.76
1239.44
1240.81
1241.85
1242.52
1243.23
1243.75
1244.09
1244.16
1244.62
1244.99
1245.2
1245.14
1245.29
1245.36
1245.32
1245.05
1245.27
1245.48
1245.54
1245.33
1245.4
1245.42
1245.32
1245
1245.23
1245.45
1245.5
1245.27
1245.33
1245.33
1245.25
1244.96
1245.2
1245.43
1245.49
1245.25
1245.3
1245.3
1245.22
1244.97
1245.25
1245.5
1245.56
1245.36
1245.44
1245.44
1245.35
1245.14
1245.4
1245.61
1245.66
1245.5
1245.61
1245.62
1245.55
1245.39
1245.65
1245.83
1245.86
1245.73
1245.83
1245.85
1245.81
1245.69
1245.9
1246.03
1246.05
1245.96
1246.03
1246.05
1246.03
1245.96
1246.07
1246.15
1246.17
1246.13
1246.15
1246.16
1246.15
1246.13
1246.1
1246.08
1246.08
1246.08
1246.03
1245.99
1246
1245.82
1.83747
1.70303
4.26445
30.0634
129.971
293.628
448.533
562.632
641.622
698.34
742.245
778.785
810.885
840.05
867.276
892.844
916.745
938.789
958.911
976.874
992.643
1006.27
1018.01
1027.99
1036.43
1043.49
1049.57
1054.68
1058.93
1062.4
1065.36
1067.8
1069.77
1071.31
1072.77
1073.99
1074.95
1075.61
1076.24
1076.72
1077.05
1077.19
1077.54
1077.85
1078.05
1078.06
1078.17
1078.24
1078.21
1078.05
1078.18
1078.32
1078.38
1078.26
1078.3
1078.3
1078.23
1078.02
1078.14
1078.29
1078.35
1078.21
1078.23
1078.23
1078.17
1077.98
1078.12
1078.28
1078.34
1078.2
1078.22
1078.21
1078.16
1078
1078.17
1078.35
1078.42
1078.31
1078.35
1078.35
1078.29
1078.16
1078.32
1078.48
1078.54
1078.45
1078.52
1078.53
1078.49
1078.4
1078.56
1078.69
1078.74
1078.67
1078.74
1078.75
1078.73
1078.67
1078.8
1078.9
1078.94
1078.89
1078.94
1078.96
1078.95
1078.91
1078.99
1079.05
1079.07
1079.06
1079.08
1079.08
1079.09
1079.07
1079.05
1079.04
1079.04
1079.04
1079.01
1078.97
1078.97
1078.78
1.83726
1.67192
2.26791
9.04548
44.2496
134.752
258.776
374.762
465.952
534.413
586.884
628.982
664.43
695.242
722.83
747.831
770.444
790.659
808.532
824.065
837.408
848.757
858.422
866.598
873.512
879.334
884.346
888.592
892.171
895.144
897.677
899.779
901.514
902.9
904.162
905.218
906.076
906.71
907.27
907.703
908.022
908.204
908.484
908.729
908.912
908.969
909.064
909.115
909.114
909.022
909.093
909.183
909.237
909.18
909.193
909.185
909.141
909.014
909.07
909.157
909.205
909.137
909.142
909.129
909.089
908.978
909.052
909.15
909.202
909.133
909.137
909.124
909.091
909.003
909.1
909.215
909.282
909.239
909.263
909.26
909.229
909.156
909.251
909.355
909.412
909.382
909.424
909.436
909.42
909.372
909.469
909.565
909.615
909.594
909.634
909.651
909.646
909.616
909.699
909.773
909.814
909.804
909.836
909.854
909.857
909.843
909.893
909.939
909.969
909.972
909.988
909.998
910.004
909.999
909.991
909.985
909.987
909.986
909.969
909.946
909.936
909.743
1.83717
1.66349
1.6964
3.09836
11.3859
42.6442
110.107
200.075
288.641
363.757
424.266
473.024
513.241
547.236
576.457
601.892
623.973
642.898
658.909
672.279
683.385
692.603
700.32
706.811
712.315
716.998
721.051
724.533
727.518
730.05
732.222
734.051
735.586
736.849
737.961
738.897
739.675
740.283
740.799
741.202
741.514
741.728
741.965
742.169
742.334
742.421
742.507
742.556
742.571
742.536
742.575
742.625
742.665
742.647
742.654
742.643
742.614
742.545
742.565
742.606
742.639
742.613
742.613
742.598
742.573
742.514
742.548
742.6
742.639
742.615
742.616
742.603
742.584
742.542
742.594
742.662
742.716
742.713
742.731
742.73
742.717
742.686
742.739
742.802
742.852
742.856
742.886
742.898
742.897
742.883
742.941
743.003
743.049
743.057
743.087
743.102
743.108
743.104
743.155
743.207
743.246
743.257
743.284
743.301
743.312
743.315
743.35
743.384
743.413
743.427
743.445
743.457
743.467
743.47
743.471
743.472
743.476
743.478
743.472
743.459
743.446
743.279
1.83711
1.66152
1.55453
1.71766
3.08159
9.36178
29.7192
72.5991
133.743
199.932
261.246
314.223
359.01
396.901
428.829
455.726
478.167
496.573
511.443
523.348
532.908
540.675
547.108
552.528
557.174
561.197
564.725
567.809
570.506
572.843
574.872
576.608
578.088
579.337
580.416
581.327
582.094
582.719
583.241
583.658
583.99
584.244
584.476
584.668
584.827
584.938
585.03
585.087
585.119
585.123
585.154
585.181
585.209
585.212
585.22
585.211
585.193
585.161
585.167
585.179
585.195
585.19
585.191
585.178
585.162
585.136
585.15
585.171
585.195
585.194
585.198
585.189
585.179
585.164
585.192
585.227
585.265
585.28
585.299
585.302
585.301
585.294
585.326
585.362
585.4
585.419
585.445
585.458
585.467
585.472
585.509
585.548
585.586
585.607
585.634
585.649
585.663
585.673
585.708
585.742
585.776
585.798
585.823
585.841
585.857
585.87
585.897
585.923
585.95
585.969
585.989
586.005
586.018
586.027
586.036
586.042
586.049
586.054
586.058
586.054
586.042
585.904
1.83704
1.661
1.52569
1.44898
1.54716
2.30518
5.41862
15.1205
36.9708
72.6289
117.447
164.393
208.578
248.015
282.17
310.783
334.211
353.022
367.974
379.876
389.481
397.391
404.052
409.762
414.73
419.087
422.928
426.306
429.275
431.868
434.125
436.07
437.739
439.163
440.382
441.41
442.279
443.003
443.605
444.095
444.493
444.814
445.083
445.3
445.479
445.619
445.73
445.807
445.861
445.896
445.932
445.956
445.979
445.992
446.003
446
445.992
445.98
445.982
445.982
445.987
445.988
445.99
445.981
445.972
445.962
445.969
445.974
445.985
445.991
445.997
445.993
445.99
445.989
446.005
446.021
446.045
446.064
446.082
446.089
446.096
446.102
446.123
446.144
446.171
446.194
446.217
446.232
446.246
446.26
446.287
446.313
446.342
446.367
446.391
446.409
446.426
446.443
446.47
446.495
446.523
446.547
446.571
446.59
446.609
446.627
446.651
446.673
446.697
446.718
446.739
446.757
446.773
446.787
446.801
446.812
446.823
446.832
446.841
446.846
446.841
446.739
1.83699
1.66073
1.52081
1.40727
1.32465
1.31469
1.53115
2.48531
5.56959
13.366
28.5769
51.977
81.5391
113.574
144.736
172.709
196.808
217.252
234.56
249.253
261.781
272.505
281.719
289.656
296.512
302.445
307.584
312.031
315.876
319.194
322.049
324.494
326.581
328.357
329.864
331.133
332.202
333.096
333.84
334.452
334.955
335.365
335.702
335.972
336.193
336.37
336.511
336.617
336.697
336.758
336.807
336.839
336.865
336.885
336.9
336.905
336.905
336.904
336.906
336.903
336.903
336.904
336.905
336.901
336.897
336.894
336.897
336.897
336.901
336.907
336.912
336.913
336.914
336.918
336.928
336.936
336.95
336.966
336.981
336.992
337.002
337.013
337.03
337.044
337.063
337.083
337.103
337.119
337.135
337.152
337.174
337.194
337.216
337.24
337.262
337.281
337.3
337.319
337.341
337.362
337.385
337.409
337.431
337.451
337.471
337.491
337.512
337.533
337.555
337.576
337.597
337.616
337.634
337.651
337.668
337.683
337.697
337.709
337.722
337.732
337.734
337.664
1.83695
1.6606
1.52007
1.40251
1.30099
1.21541
1.15294
1.14069
1.26919
1.81051
3.43562
7.3601
15.0775
27.6674
45.1902
66.7055
90.2328
113.837
136.088
156.17
173.774
188.924
201.827
212.761
222.015
229.85
236.494
242.135
246.93
251.008
254.475
257.418
259.912
262.022
263.801
265.297
266.552
267.6
268.473
269.194
269.788
270.274
270.67
270.991
271.252
271.461
271.628
271.759
271.86
271.938
271.998
272.041
272.074
272.099
272.117
272.129
272.136
272.139
272.141
272.14
272.14
272.141
272.141
272.14
272.139
272.138
272.139
272.138
272.141
272.144
272.149
272.152
272.156
272.16
272.167
272.173
272.183
272.194
272.207
272.218
272.229
272.241
272.254
272.267
272.281
272.298
272.315
272.332
272.348
272.365
272.383
272.4
272.42
272.44
272.46
272.48
272.499
272.518
272.538
272.557
272.577
272.598
272.619
272.64
272.66
272.679
272.699
272.719
272.739
272.759
272.779
272.799
272.817
272.835
272.853
272.87
272.885
272.9
272.915
272.926
272.933
272.881
1.83696
1.66061
1.52009
1.40255
1.30107
1.21561
1.15349
1.14226
1.27386
1.82394
3.46827
7.41997
15.1495
27.7016
45.1484
66.5159
89.8648
113.3
135.416
155.402
172.944
188.06
200.947
211.88
221.14
228.985
235.641
241.295
246.103
250.193
253.671
256.625
259.129
261.247
263.033
264.536
265.796
266.849
267.725
268.451
269.049
269.539
269.938
270.261
270.523
270.734
270.902
271.036
271.14
271.219
271.279
271.325
271.359
271.385
271.403
271.417
271.426
271.43
271.432
271.432
271.434
271.435
271.436
271.437
271.437
271.436
271.436