/*--------------------------------*- C++ -*----------------------------------*\
  =========                 |
  \\      /  F ield         | OpenFOAM: The Open Source CFD Toolbox
   \\    /   O peration     | Website:  https://openfoam.org
    \\  /    A nd           | Version:  8
     \\/     M anipulation  |
\*---------------------------------------------------------------------------*/
FoamFile
{
    version     2.0;
    format      ascii;
    class       volScalarField;
    location    "100";
    object      k;
}
// * * * * * * * * * * * * * * * * * * * * * * * * * * * * * * * * * * * * * //

dimensions      [0 2 -2 0 0 0 0];

internalField   nonuniform List<scalar> 
7320
(
6.04289
5.69865
8.18353
10.0612
10.8529
11.3122
11.6902
12.0342
12.3537
12.6543
12.9424
13.2181
13.4817
13.7316
13.9669
14.1832
14.3778
14.5484
14.6984
14.8252
14.9309
15.0174
15.0897
15.1479
15.1944
15.23
15.2619
15.2862
15.3046
15.3177
15.33
15.3386
15.3448
15.3468
15.3536
15.3573
15.3592
15.3583
15.3609
15.3616
15.3613
15.3577
15.3618
15.3632
15.363
15.3599
15.3618
15.362
15.3609
15.3562
15.3605
15.3622
15.3618
15.3581
15.3604
15.3609
15.3599
15.355
15.36
15.3622
15.3619
15.3581
15.3606
15.3611
15.3603
15.356
15.3616
15.364
15.3638
15.36
15.3627
15.3632
15.3625
15.359
15.365
15.3676
15.3675
15.3644
15.3674
15.3678
15.367
15.3644
15.3701
15.3724
15.3721
15.3697
15.3731
15.3735
15.3729
15.3711
15.3764
15.3783
15.378
15.3762
15.3791
15.3796
15.3792
15.3781
15.3824
15.3838
15.3838
15.3828
15.385
15.3856
15.3857
15.3852
15.3879
15.389
15.3894
15.3893
15.3904
15.3911
15.3915
15.3919
15.392
15.3925
15.3933
15.3939
15.3932
15.3935
15.3935
15.3949
4.80049
6.16183
14.1362
18.9852
20.921
21.9775
22.8132
23.556
24.2359
24.8678
25.4689
26.0388
26.5802
27.0906
27.57
28.0082
28.401
28.7442
29.0472
29.3016
29.5131
29.6854
29.8309
29.9467
30.0392
30.1091
30.175
30.2232
30.2596
30.2847
30.3102
30.327
30.3388
30.3409
30.3574
30.3648
30.3682
30.3649
30.3715
30.3726
30.3714
30.3619
30.3736
30.3766
30.3759
30.3676
30.3734
30.3735
30.3703
30.3583
30.3709
30.3745
30.3732
30.3635
30.3703
30.3709
30.368
30.3556
30.3697
30.3746
30.3733
30.3631
30.3704
30.3709
30.3685
30.3572
30.3725
30.3778
30.3767
30.3663
30.3739
30.3744
30.3721
30.3627
30.3789
30.3844
30.3834
30.3748
30.383
30.3831
30.3805
30.3731
30.3884
30.3929
30.3917
30.3849
30.3938
30.3938
30.3916
30.3864
30.4004
30.404
30.4026
30.3975
30.4051
30.4053
30.4039
30.4002
30.4116
30.414
30.4133
30.4103
30.4158
30.4165
30.4161
30.4143
30.4211
30.4231
30.4235
30.4227
30.4253
30.4262
30.4269
30.4273
30.4272
30.4282
30.4296
30.4308
30.4288
30.4293
30.4301
30.432
3.55457
6.55343
17.9867
24.26
26.7277
28.0681
29.1285
30.0713
30.9346
31.7367
32.4998
33.2233
33.9103
34.558
35.1663
35.7221
36.2203
36.6552
37.0397
37.3621
37.6301
37.8483
38.0329
38.1795
38.2966
38.3849
38.4688
38.5298
38.5758
38.6074
38.64
38.6612
38.676
38.6784
38.6998
38.7091
38.7134
38.7089
38.7177
38.719
38.7174
38.705
38.7204
38.7242
38.7232
38.7124
38.7201
38.7201
38.716
38.7004
38.717
38.7216
38.7198
38.7071
38.7162
38.7169
38.7131
38.6969
38.7155
38.7217
38.72
38.7066
38.7163
38.7168
38.7136
38.6989
38.7189
38.7257
38.7242
38.7107
38.7207
38.7211
38.7181
38.7059
38.727
38.7339
38.7326
38.7214
38.7321
38.7321
38.7287
38.719
38.7391
38.7447
38.743
38.7341
38.7458
38.7456
38.7427
38.7359
38.7542
38.7587
38.7568
38.7501
38.7601
38.7602
38.7582
38.7534
38.7682
38.7713
38.7703
38.7662
38.7735
38.7743
38.7737
38.7713
38.7802
38.7826
38.7831
38.782
38.7853
38.7865
38.7874
38.7877
38.7877
38.7888
38.7907
38.7921
38.7895
38.7902
38.7913
38.7937
2.70984
7.05029
20.9362
28.2174
31.0596
32.5994
33.8193
34.9054
35.9006
36.8257
37.7063
38.5414
39.3347
40.0827
40.7856
41.4279
42.004
42.5071
42.9522
43.3254
43.6359
43.8887
44.1027
44.2727
44.4085
44.5111
44.6086
44.6794
44.7329
44.7696
44.8077
44.8324
44.8496
44.8524
44.8776
44.8885
44.8934
44.8883
44.8986
44.9001
44.8982
44.8838
44.9019
44.9064
44.9051
44.8925
44.9017
44.9016
44.8968
44.8786
44.8981
44.9034
44.9013
44.8865
44.8971
44.8979
44.8934
44.8745
44.8964
44.9035
44.9014
44.8859
44.8972
44.8977
44.894
44.8768
44.9003
44.9081
44.9063
44.8904
44.9022
44.9027
44.899
44.8847
44.9096
44.9175
44.9158
44.9027
44.9154
44.9153
44.9112
44.8998
44.9233
44.9298
44.9277
44.9173
44.9311
44.9307
44.9272
44.9192
44.9406
44.9458
44.9436
44.9357
44.9474
44.9474
44.9451
44.9394
44.9568
44.9602
44.9591
44.9542
44.9627
44.9636
44.9629
44.96
44.9703
44.9732
44.9737
44.9723
44.9762
44.9775
44.9785
44.9789
44.9788
44.9801
44.9823
44.984
44.9809
44.9817
44.983
44.9859
2.07376
7.52466
23.4262
31.564
34.7263
36.435
37.7897
38.9971
40.1045
41.1345
42.1154
43.0459
43.9303
44.7646
45.5493
46.2668
46.911
47.4743
47.9731
48.3917
48.7403
49.0245
49.2653
49.4567
49.6098
49.7256
49.8358
49.9159
49.9765
50.0182
50.0614
50.0895
50.1091
50.1127
50.1413
50.1536
50.1593
50.1537
50.1655
50.1673
50.1652
50.1492
50.1697
50.1746
50.1732
50.1591
50.1695
50.1694
50.164
50.1436
50.1656
50.1714
50.169
50.1524
50.1645
50.1653
50.1602
50.139
50.1637
50.1715
50.1692
50.1517
50.1645
50.165
50.1608
50.1415
50.1679
50.1765
50.1745
50.1567
50.17
50.1704
50.1662
50.1502
50.1781
50.1869
50.1849
50.1702
50.1844
50.1842
50.1796
50.1668
50.1932
50.2004
50.1979
50.1862
50.2017
50.2012
50.1972
50.1882
50.2123
50.2179
50.2154
50.2066
50.2197
50.2196
50.2169
50.2106
50.23
50.2338
50.2324
50.227
50.2365
50.2375
50.2366
50.2333
50.2449
50.248
50.2486
50.2469
50.2513
50.2527
50.2538
50.2542
50.2541
50.2555
50.2579
50.2597
50.2563
50.2572
50.2587
50.2619
1.59721
7.91303
25.6059
34.5457
38.0127
39.8801
41.3597
42.6795
43.8909
45.0183
46.0924
47.1117
48.0809
48.996
49.8576
50.6465
51.3557
51.977
52.5281
52.9913
53.3776
53.6931
53.9608
54.1739
54.3446
54.4741
54.5973
54.687
54.755
54.8021
54.8508
54.8826
54.9049
54.9095
54.9416
54.9556
54.9621
54.9564
54.9696
54.9717
54.9696
54.9522
54.9748
54.9803
54.9787
54.9633
54.9748
54.9747
54.9688
54.9464
54.9707
54.9771
54.9744
54.9561
54.9694
54.9702
54.9647
54.9414
54.9686
54.9771
54.9745
54.9553
54.9694
54.9699
54.9651
54.944
54.973
54.9824
54.9801
54.9605
54.9752
54.9756
54.9709
54.9533
54.9839
54.9934
54.9912
54.975
54.9907
54.9904
54.9853
54.9711
55.0001
55.0079
55.0052
54.9923
55.0093
55.0086
55.0042
54.9942
55.0207
55.0268
55.024
55.0143
55.0287
55.0285
55.0255
55.0184
55.0398
55.0438
55.0423
55.0363
55.0467
55.0477
55.0466
55.043
55.0557
55.059
55.0596
55.0577
55.0626
55.064
55.0652
55.0655
55.0654
55.0669
55.0694
55.0715
55.0677
55.0687
55.0703
55.0739
1.25994
8.17351
27.523
37.2643
41.043
43.07
44.6725
46.1022
47.4153
48.6378
49.803
50.9091
51.9615
52.956
53.8936
54.7537
55.5285
56.2088
56.8134
57.3227
57.7484
58.0968
58.3929
58.6292
58.8189
58.9634
59.1006
59.2008
59.2772
59.3304
59.3851
59.4211
59.4466
59.4527
59.4885
59.5043
59.5119
59.5062
59.5209
59.5235
59.5215
59.5028
59.5276
59.5335
59.5319
59.5154
59.5278
59.5277
59.5213
59.4973
59.5236
59.5304
59.5275
59.5078
59.5221
59.523
59.5169
59.4918
59.5212
59.5303
59.5275
59.5068
59.522
59.5225
59.5173
59.4944
59.5258
59.5359
59.5333
59.5122
59.528
59.5284
59.5233
59.5041
59.5372
59.5474
59.545
59.5275
59.5444
59.544
59.5384
59.5231
59.5544
59.5627
59.5597
59.5457
59.5641
59.5633
59.5584
59.5476
59.5761
59.5827
59.5796
59.5691
59.5846
59.5844
59.581
59.5734
59.5964
59.6007
59.599
59.5925
59.6037
59.6047
59.6035
59.5995
59.6132
59.6167
59.6173
59.6152
59.6204
59.6219
59.6231
59.6234
59.6233
59.6249
59.6276
59.6297
59.6256
59.6267
59.6285
59.6324
1.04364
8.2711
29.1758
39.7587
43.8744
46.0703
47.799
49.3401
50.7561
52.0748
53.3318
54.5254
55.6619
56.737
57.7522
58.6854
59.5282
60.2703
60.9313
61.4898
61.9578
62.342
62.669
62.9308
63.1414
63.3028
63.4554
63.5675
63.6533
63.7138
63.7752
63.8161
63.8454
63.8536
63.8932
63.9112
63.9203
63.9149
63.9312
63.9344
63.9325
63.9129
63.9396
63.9462
63.9445
63.9269
63.9403
63.9403
63.9334
63.9078
63.9359
63.9432
63.9401
63.919
63.9344
63.9353
63.9287
63.9019
63.9333
63.9431
63.9399
63.9178
63.9341
63.9346
63.929
63.9045
63.938
63.9487
63.9459
63.9233
63.9402
63.9406
63.935
63.9146
63.9498
63.9607
63.958
63.9393
63.9573
63.9569
63.9508
63.9344
63.9677
63.9766
63.9733
63.9584
63.9779
63.977
63.9718
63.9601
63.9906
63.9975
63.9942
63.9829
63.9995
63.9991
63.9955
63.9873
64.0118
64.0164
64.0145
64.0075
64.0195
64.0204
64.0191
64.0148
64.0294
64.0331
64.0336
64.0314
64.0368
64.0384
64.0396
64.0399
64.0397
64.0414
64.0442
64.0464
64.042
64.0431
64.0452
64.0492
0.921512
8.17557
30.5304
42.0322
46.5279
48.91
50.7724
52.4296
53.9521
55.3703
56.7219
58.0057
59.2287
60.3871
61.4827
62.4924
63.4069
64.2149
64.9364
65.548
66.0621
66.4857
66.8468
67.1369
67.3711
67.5517
67.7214
67.8471
67.9437
68.0126
68.0818
68.1284
68.1622
68.1732
68.217
68.2376
68.2484
68.2436
68.2617
68.2657
68.2642
68.2438
68.2723
68.2795
68.278
68.2595
68.2737
68.2737
68.2665
68.2394
68.2692
68.277
68.2736
68.2514
68.2676
68.2685
68.2615
68.2331
68.2663
68.2767
68.2733
68.2499
68.2671
68.2675
68.2615
68.2357
68.271
68.2823
68.2793
68.2555
68.2732
68.2736
68.2677
68.246
68.2832
68.2946
68.2918
68.2719
68.2909
68.2904
68.2839
68.2665
68.3017
68.311
68.3075
68.2917
68.3123
68.3113
68.3057
68.2933
68.3254
68.3327
68.3292
68.3173
68.3347
68.3343
68.3305
68.3217
68.3475
68.3523
68.3503
68.3428
68.3555
68.3564
68.355
68.3504
68.3657
68.3696
68.3701
68.3676
68.3734
68.375
68.3762
68.3765
68.3762
68.3779
68.3808
68.3832
68.3785
68.3797
68.3819
68.3859
0.861715
7.86458
31.5261
44.0604
48.9996
51.5944
53.6025
55.3831
57.0179
58.5403
59.9906
61.3684
62.6817
63.927
65.1069
66.1972
67.188
68.0666
68.8533
69.5228
70.0876
70.5547
70.9535
71.2753
71.536
71.7382
71.9273
72.0684
72.1776
72.2563
72.3343
72.3876
72.4266
72.4412
72.4896
72.5134
72.5263
72.5225
72.5424
72.5475
72.5464
72.5256
72.5558
72.5638
72.5624
72.5431
72.5581
72.5582
72.5506
72.5223
72.5535
72.5618
72.5583
72.535
72.5519
72.5528
72.5454
72.5157
72.5504
72.5613
72.5578
72.5333
72.5511
72.5516
72.5452
72.5181
72.555
72.5669
72.5638
72.5388
72.5572
72.5576
72.5513
72.5286
72.5674
72.5794
72.5764
72.5556
72.5753
72.5748
72.568
72.5497
72.5863
72.5962
72.5925
72.5759
72.5973
72.5964
72.5904
72.5774
72.6108
72.6186
72.6149
72.6024
72.6205
72.6202
72.6161
72.6068
72.6337
72.6388
72.6367
72.6288
72.642
72.643
72.6414
72.6365
72.6525
72.6565
72.657
72.6544
72.6604
72.662
72.6632
72.6634
72.6632
72.6649
72.6678
72.6702
72.6654
72.6665
72.669
72.6729
0.83711
7.32973
32.0791
45.7932
51.2647
54.1099
56.2808
58.195
59.9496
61.5824
63.1366
64.6131
66.021
67.3576
68.6262
69.8018
70.8738
71.8282
72.6851
73.4176
74.0379
74.5531
74.9937
75.3508
75.6413
75.8681
76.0786
76.2374
76.3609
76.4511
76.539
76.6002
76.6455
76.6645
76.7178
76.7453
76.7608
76.7585
76.7804
76.7868
76.7864
76.7654
76.7972
76.806
76.8049
76.7851
76.8007
76.8009
76.7931
76.7637
76.796
76.8048
76.8013
76.777
76.7944
76.7953
76.7876
76.7568
76.7926
76.8041
76.8005
76.775
76.7933
76.7938
76.7872
76.759
76.7971
76.8096
76.8063
76.7804
76.7993
76.7997
76.7932
76.7695
76.8095
76.8222
76.8191
76.7975
76.8178
76.8173
76.8101
76.7911
76.8289
76.8393
76.8355
76.8183
76.8403
76.8393
76.8332
76.8196
76.8541
76.8623
76.8585
76.8455
76.8641
76.8638
76.8595
76.8499
76.8777
76.8831
76.8809
76.8727
76.8862
76.8872
76.8855
76.8804
76.8969
76.9011
76.9016
76.8989
76.905
76.9067
76.9079
76.908
76.9077
76.9094
76.9125
76.9149
76.9099
76.911
76.9136
76.9173
0.83007
6.58357
32.0869
47.1533
53.2771
56.4253
58.7828
60.8439
62.7278
64.4785
66.1428
67.7234
69.2308
70.6633
72.025
73.2906
74.4488
75.4843
76.4167
77.2175
77.8984
78.4663
78.9529
79.3492
79.6727
79.9272
80.1617
80.3403
80.4802
80.5835
80.6827
80.753
80.8055
80.83
80.8887
80.9205
80.9391
80.9388
80.9629
80.9708
80.9714
80.9506
80.9837
80.9935
80.9928
80.9727
80.9887
80.9892
80.9811
80.951
80.9841
80.9934
80.9899
80.9649
80.9825
80.9835
80.9755
80.9438
80.9803
80.9924
80.9888
80.9626
80.9811
80.9817
80.9747
80.9458
80.9846
80.9977
80.9944
80.9677
80.9869
80.9874
80.9806
80.9563
80.9971
81.0104
81.0073
80.9851
81.0056
81.0052
80.9978
80.9783
81.0168
81.0277
81.0239
81.0062
81.0286
81.0277
81.0213
81.0074
81.0425
81.0512
81.0474
81.034
81.053
81.0528
81.0484
81.0385
81.0668
81.0725
81.0703
81.0618
81.0756
81.0767
81.075
81.0697
81.0865
81.0909
81.0914
81.0886
81.0948
81.0965
81.0977
81.0978
81.0974
81.0992
81.1022
81.1047
81.0995
81.1006
81.1035
81.1067
0.831008
5.66601
31.4362
48.033
54.9668
58.4909
61.0677
63.2935
65.3184
67.196
68.9773
70.6678
72.2799
73.813
75.2722
76.6324
77.8816
79.0032
80.0159
80.89
81.6364
82.2618
82.7985
83.2378
83.598
83.8833
84.1442
84.3451
84.5033
84.6216
84.7335
84.8142
84.875
84.9061
84.9707
85.0074
85.0297
85.032
85.0584
85.0681
85.07
85.0498
85.084
85.095
85.0949
85.0747
85.091
85.0917
85.0835
85.053
85.0863
85.0963
85.0928
85.0674
85.085
85.086
85.0778
85.0456
85.0823
85.0949
85.0914
85.0648
85.0832
85.0839
85.0768
85.0474
85.0864
85.1
85.0968
85.0697
85.0887
85.0893
85.0825
85.0578
85.0989
85.1127
85.1097
85.0872
85.1076
85.1074
85.0999
85.08
85.1188
85.1302
85.1265
85.1086
85.1309
85.1303
85.1238
85.1096
85.145
85.1541
85.1504
85.1369
85.1559
85.1559
85.1514
85.1414
85.1699
85.1759
85.1738
85.1652
85.179
85.1803
85.1785
85.1732
85.1901
85.1947
85.1952
85.1924
85.1986
85.2004
85.2016
85.2017
85.2013
85.2029
85.206
85.2085
85.2033
85.2043
85.2073
85.2098
0.835187
4.64684
30.0194
48.2916
56.2356
60.2352
63.077
65.4913
67.6721
69.6872
71.5936
73.4004
75.1225
76.7607
78.3215
79.7803
81.1245
82.3366
83.4341
84.3861
85.2024
85.8897
86.4804
86.9664
87.3666
87.6858
87.9755
88.201
88.3797
88.5149
88.6408
88.7332
88.8036
88.8424
88.9132
88.9556
88.9824
88.9879
89.0167
89.0287
89.0321
89.0131
89.0481
89.0603
89.061
89.0411
89.0574
89.0584
89.0503
89.0197
89.0528
89.0634
89.0601
89.0346
89.0518
89.0529
89.0446
89.0122
89.0485
89.0617
89.0584
89.0316
89.0496
89.0504
89.0432
89.0137
89.0523
89.0665
89.0635
89.0363
89.0548
89.0556
89.0487
89.024
89.0648
89.0791
89.0764
89.0539
89.0738
89.0738
89.0663
89.0464
89.0849
89.0968
89.0934
89.0754
89.0975
89.0971
89.0906
89.0764
89.1116
89.1212
89.1177
89.1042
89.1229
89.1232
89.1188
89.1087
89.137
89.1435
89.1415
89.133
89.1466
89.148
89.1463
89.141
89.1578
89.1627
89.1633
89.1604
89.1666
89.1684
89.1697
89.1698
89.1693
89.171
89.1741
89.1765
89.1714
89.1722
89.1754
89.177
0.840363
3.62073
27.7596
47.7558
56.9518
61.5616
64.7319
67.3674
69.7235
71.8893
73.9299
75.8602
77.6976
79.4453
81.1113
82.672
84.1145
85.4204
86.6059
87.6394
88.5295
89.2823
89.9304
90.4665
90.9096
91.2657
91.5864
91.8387
92.0399
92.1939
92.3351
92.4407
92.5218
92.5695
92.6471
92.6958
92.7276
92.7371
92.7686
92.7831
92.7885
92.7712
92.8066
92.8203
92.8219
92.8028
92.8188
92.8202
92.8123
92.7821
92.8144
92.8255
92.8226
92.7974
92.8138
92.815
92.8066
92.7745
92.8098
92.8235
92.8205
92.794
92.8112
92.8121
92.805
92.7758
92.8134
92.828
92.8253
92.7984
92.8161
92.8171
92.8103
92.7859
92.8257
92.8406
92.8383
92.816
92.8352
92.8354
92.8281
92.8084
92.846
92.8585
92.8555
92.8378
92.8591
92.859
92.8528
92.8388
92.8731
92.8833
92.8801
92.8668
92.885
92.8856
92.8814
92.8715
92.8992
92.9062
92.9044
92.896
92.9093
92.911
92.9094
92.9042
92.9206
92.9258
92.9265
92.9238
92.9298
92.9317
92.933
92.9331
92.9327
92.9343
92.9373
92.9397
92.9348
92.9353
92.9388
92.9391
0.8455
2.69145
24.6472
46.2277
56.9439
62.3423
65.9299
68.8319
71.3895
73.7228
75.909
77.9706
79.9292
81.7908
83.5649
85.2297
86.7725
88.1744
89.4497
90.5671
91.5335
92.3547
93.0626
93.6513
94.14
94.5354
94.8888
95.1699
95.3954
95.57
95.7278
95.8478
95.9407
95.9987
96.0833
96.1391
96.1767
96.1909
96.2252
96.2427
96.2504
96.2354
96.2709
96.2861
96.289
96.2711
96.2866
96.2885
96.2809
96.2516
96.2824
96.294
96.2916
96.2671
96.2823
96.2837
96.2755
96.2441
96.2776
96.2917
96.2892
96.2634
96.2794
96.2804
96.2734
96.245
96.2809
96.2958
96.2937
96.2675
96.284
96.2851
96.2786
96.255
96.293
96.3084
96.3067
96.2852
96.3031
96.3036
96.2966
96.2776
96.3136
96.3266
96.3241
96.3071
96.3272
96.3276
96.3217
96.3081
96.3412
96.3518
96.3492
96.3364
96.3537
96.3547
96.3507
96.3412
96.3679
96.3754
96.374
96.3659
96.3786
96.3806
96.3792
96.3742
96.3901
96.3955
96.3965
96.3939
96.3997
96.4017
96.4031
96.4032
96.4028
96.4044
96.4074
96.4097
96.4051
96.4054
96.409
96.4078
0.850121
1.94542
20.7826
43.5071
55.9978
62.4118
66.539
69.7719
72.5671
75.0903
77.4368
79.6396
81.7261
83.7059
85.5906
87.3609
89.0047
90.5032
91.8685
93.0704
94.114
95.0048
95.7738
96.4167
96.9525
97.3891
97.7765
98.0878
98.3392
98.5358
98.7113
98.8468
98.9527
99.0222
99.1141
99.1776
99.2216
99.2414
99.2787
99.2996
99.3099
99.298
99.333
99.3499
99.3543
99.3381
99.3529
99.3553
99.3483
99.3203
99.349
99.361
99.3593
99.336
99.3497
99.3511
99.3432
99.3131
99.3441
99.3585
99.3566
99.332
99.3463
99.3475
99.3408
99.3137
99.3471
99.3623
99.3607
99.3359
99.3506
99.352
99.3459
99.3234
99.3591
99.3748
99.3738
99.3535
99.3699
99.3707
99.3641
99.3461
99.3799
99.3933
99.3916
99.3755
99.3942
99.3951
99.3896
99.3768
99.4079
99.4191
99.4171
99.4051
99.4212
99.4226
99.4191
99.4102
99.4354
99.4433
99.4425
99.4349
99.4468
99.4491
99.448
99.4434
99.4584
99.4641
99.4654
99.4631
99.4686
99.4707
99.4722
99.4724
99.4721
99.4736
99.4766
99.4789
99.4746
99.4746
99.4783
99.4752
0.854
1.4234
16.4133
39.4367
53.8604
61.5596
66.3924
70.0464
73.1306
75.875
78.4018
80.7587
82.9813
85.0845
87.0823
88.9589
90.7031
92.2969
93.7505
95.0354
96.1552
97.1152
97.9449
98.6421
99.2256
99.7042
100.126
100.468
100.747
100.967
101.16
101.312
101.432
101.514
101.614
101.685
101.736
101.763
101.803
101.828
101.841
101.833
101.867
101.886
101.892
101.878
101.892
101.895
101.888
101.862
101.888
101.901
101.9
101.878
101.89
101.891
101.884
101.856
101.884
101.898
101.897
101.874
101.886
101.887
101.881
101.856
101.886
101.901
101.901
101.878
101.89
101.892
101.886
101.865
101.898
101.914
101.914
101.895
101.91
101.911
101.905
101.888
101.919
101.933
101.932
101.917
101.934
101.936
101.931
101.919
101.948
101.959
101.958
101.947
101.962
101.964
101.961
101.953
101.976
101.984
101.984
101.977
101.988
101.991
101.99
101.986
102
102.006
102.007
102.006
102.011
102.013
102.015
102.015
102.015
102.016
102.019
102.021
102.018
102.017
102.021
102.016
0.857029
1.10849
11.9407
33.9786
50.2611
59.5269
65.2797
69.4812
72.9275
75.9377
78.6731
81.2024
83.5728
85.8064
87.9206
89.9041
91.7474
93.4338
94.9719
96.336
97.5287
98.555
99.4431
100.193
100.823
101.344
101.799
102.173
102.478
102.722
102.935
103.104
103.238
103.333
103.441
103.521
103.579
103.613
103.657
103.685
103.702
103.698
103.732
103.752
103.76
103.749
103.761
103.765
103.76
103.736
103.759
103.771
103.771
103.752
103.762
103.763
103.756
103.73
103.754
103.768
103.768
103.747
103.758
103.759
103.753
103.73
103.756
103.771
103.772
103.751
103.761
103.763
103.758
103.739
103.768
103.784
103.785
103.768
103.781
103.782
103.777
103.762
103.79
103.803
103.804
103.791
103.805
103.807
103.803
103.793
103.819
103.83
103.83
103.821
103.833
103.836
103.834
103.827
103.848
103.856
103.857
103.851
103.861
103.864
103.863
103.86
103.873
103.879
103.881
103.88
103.884
103.887
103.888
103.889
103.889
103.89
103.893
103.895
103.892
103.892
103.895
103.888
0.85919
0.943773
7.86656
27.3194
44.9665
56.0131
62.9414
67.8605
71.7729
75.1131
78.0983
80.8271
83.3625
85.7372
87.9735
90.0656
92.0064
93.7818
95.3989
96.8362
98.096
99.1837
100.126
100.925
101.599
102.159
102.647
103.051
103.383
103.651
103.882
104.068
104.217
104.327
104.442
104.53
104.597
104.638
104.686
104.718
104.739
104.741
104.773
104.794
104.804
104.797
104.808
104.812
104.808
104.788
104.807
104.819
104.82
104.803
104.811
104.812
104.806
104.783
104.803
104.816
104.817
104.799
104.806
104.808
104.803
104.782
104.805
104.819
104.82
104.802
104.81
104.812
104.808
104.791
104.816
104.831
104.833
104.819
104.829
104.831
104.827
104.814
104.838
104.851
104.853
104.842
104.854
104.857
104.854
104.845
104.867
104.879
104.88
104.872
104.883
104.886
104.884
104.879
104.897
104.906
104.907
104.903
104.911
104.914
104.915
104.912
104.923
104.93
104.932
104.931
104.936
104.938
104.94
104.941
104.941
104.943
104.945
104.947
104.945
104.944
104.948
104.938
0.860563
0.867145
4.6573
19.978
37.8908
50.71
59.0693
64.9206
69.4418
73.2041
76.4993
79.4683
82.1954
84.7284
87.097
89.3022
91.3405
93.2012
94.891
96.3938
97.7127
98.8543
99.8434
100.686
101.4
101.996
102.514
102.945
103.303
103.594
103.843
104.046
104.21
104.335
104.457
104.555
104.629
104.679
104.73
104.767
104.792
104.799
104.83
104.853
104.865
104.861
104.872
104.877
104.874
104.857
104.872
104.883
104.885
104.872
104.877
104.878
104.873
104.853
104.868
104.88
104.882
104.867
104.873
104.874
104.87
104.852
104.87
104.883
104.885
104.871
104.877
104.878
104.875
104.861
104.881
104.896
104.899
104.888
104.896
104.897
104.894
104.884
104.903
104.916
104.919
104.911
104.921
104.923
104.921
104.914
104.933
104.944
104.947
104.941
104.95
104.953
104.952
104.948
104.963
104.972
104.975
104.971
104.979
104.982
104.983
104.981
104.991
104.997
105
105
105.004
105.007
105.009
105.01
105.011
105.012
105.015
105.017
105.015
105.014
105.017
105.006
0.861319
0.834722
2.55399
12.8407
29.2751
43.3929
53.3302
60.348
65.6623
69.9745
73.6666
76.9362
79.8963
82.6154
85.1345
87.463
89.6024
91.5467
93.3036
94.8635
96.2321
97.4184
98.4462
99.3248
100.072
100.701
101.244
101.7
102.081
102.394
102.661
102.88
103.059
103.198
103.329
103.434
103.517
103.576
103.631
103.673
103.702
103.715
103.745
103.769
103.784
103.784
103.794
103.799
103.798
103.785
103.796
103.806
103.809
103.798
103.802
103.803
103.798
103.782
103.793
103.803
103.806
103.794
103.798
103.798
103.795
103.781
103.794
103.806
103.809
103.798
103.801
103.802
103.8
103.79
103.805
103.818
103.823
103.815
103.82
103.822
103.82
103.812
103.827
103.839
103.843
103.837
103.845
103.848
103.847
103.842
103.858
103.868
103.871
103.868
103.875
103.878
103.878
103.876
103.888
103.897
103.9
103.898
103.905
103.908
103.91
103.909
103.917
103.923
103.927
103.928
103.931
103.934
103.936
103.938
103.938
103.94
103.943
103.945
103.944
103.943
103.945
103.932
0.861666
0.822459
1.4479
6.99219
19.9079
34.1115
45.4477
53.8025
60.1154
65.1422
69.3515
73.0085
76.2648
79.2141
81.9139
84.3854
86.6367
88.6679
90.4891
92.0994
93.5089
94.7304
95.7881
96.6949
97.4691
98.1248
98.6904
99.1686
99.5708
99.9045
100.188
100.423
100.616
100.77
100.909
101.023
101.114
101.182
101.242
101.288
101.322
101.342
101.371
101.396
101.413
101.417
101.427
101.433
101.433
101.424
101.432
101.441
101.444
101.437
101.439
101.439
101.436
101.423
101.43
101.439
101.441
101.433
101.435
101.435
101.432
101.422
101.431
101.441
101.444
101.436
101.439
101.439
101.437
101.43
101.442
101.453
101.458
101.453
101.457
101.459
101.458
101.452
101.464
101.474
101.479
101.476
101.482
101.485
101.485
101.482
101.494
101.504
101.508
101.506
101.512
101.515
101.516
101.515
101.525
101.533
101.537
101.537
101.542
101.546
101.548
101.548
101.555
101.561
101.565
101.566
101.57
101.573
101.575
101.577
101.578
101.58
101.582
101.584
101.584
101.583
101.585
101.57
0.86179
0.818578
0.988203
3.2313
11.2318
23.5072
35.4021
45.0029
52.4632
58.3832
63.2612
67.4228
71.067
74.3134
77.2427
79.8914
82.2768
84.4069
86.2969
87.956
89.4015
90.6521
91.7337
92.6633
93.4601
94.1394
94.7253
95.2241
95.6467
96.0009
96.3019
96.5531
96.7616
96.9307
97.0789
97.2018
97.3019
97.3787
97.4446
97.4963
97.5358
97.5618
97.592
97.6173
97.6362
97.6446
97.6551
97.6616
97.6637
97.6584
97.6644
97.6712
97.675
97.6708
97.672
97.6717
97.6689
97.6598
97.6639
97.6699
97.6728
97.6676
97.6683
97.6678
97.6657
97.6584
97.6644
97.6717
97.6754
97.6706
97.6718
97.672
97.6709
97.666
97.6743
97.6834
97.6888
97.6867
97.6899
97.6913
97.691
97.6878
97.6965
97.7053
97.7104
97.7096
97.7146
97.7174
97.7184
97.7173
97.7263
97.7347
97.7395
97.7396
97.7445
97.7476
97.7494
97.7496
97.7577
97.7647
97.7693
97.7705
97.775
97.7784
97.781
97.7824
97.7883
97.7936
97.7977
97.8
97.8034
97.8063
97.809
97.811
97.8126
97.8144
97.8168
97.8188
97.8194
97.8191
97.8206
97.8053
0.861814
0.817639
0.835167
1.48241
4.96333
13.1587
23.823
33.9605
42.4587
49.3759
55.0726
59.8781
64.0288
67.6679
70.8996
73.7797
76.3381
78.5936
80.5695
82.2875
83.7749
85.0583
86.1669
87.1221
87.9447
88.651
89.2613
89.7843
90.231
90.6091
90.931
91.2016
91.4283
91.6151
91.7756
91.9094
92.0198
92.1073
92.1805
92.2387
92.2845
92.3176
92.3498
92.3766
92.3977
92.4103
92.422
92.4296
92.4335
92.432
92.4367
92.442
92.4457
92.4441
92.4449
92.4444
92.4423
92.4362
92.4381
92.4419
92.4444
92.4416
92.4417
92.4409
92.4393
92.4346
92.4381
92.4431
92.4465
92.4444
92.4451
92.445
92.4444
92.4418
92.4474
92.4543
92.4595
92.4597
92.4624
92.4637
92.4642
92.463
92.4692
92.4762
92.4814
92.4826
92.4867
92.4894
92.4912
92.4917
92.4986
92.5055
92.5105
92.5123
92.5165
92.5196
92.522
92.5235
92.5298
92.5359
92.5407
92.5431
92.5472
92.5506
92.5535
92.5558
92.5608
92.5656
92.5698
92.5728
92.5763
92.5793
92.5821
92.5845
92.5865
92.5886
92.591
92.5929
92.5943
92.5944
92.5955
92.5797
0.861803
0.817461
0.793101
0.914311
1.87271
5.43993
12.5326
21.4794
30.2534
37.9635
44.5103
50.0684
54.845
58.9969
62.6285
65.8178
68.6101
71.0386
73.1395
74.9494
76.5077
77.8504
79.011
80.015
80.8845
81.6366
82.2889
82.8516
83.3355
83.7489
84.102
84.4009
84.6531
84.8637
85.0426
85.1922
85.3167
85.4177
85.5014
85.5686
85.6224
85.6639
85.7002
85.7299
85.7539
85.7707
85.7845
85.794
85.8001
85.8021
85.8065
85.8108
85.8144
85.8147
85.8156
85.8151
85.8137
85.8101
85.8107
85.8125
85.8143
85.8132
85.8132
85.8122
85.811
85.8083
85.8102
85.8132
85.816
85.8157
85.8163
85.8161
85.8159
85.815
85.8187
85.8236
85.8282
85.83
85.8325
85.8339
85.835
85.8354
85.8399
85.8452
85.8501
85.8527
85.8564
85.8591
85.8614
85.8632
85.8685
85.8741
85.8791
85.8821
85.886
85.889
85.8918
85.8943
85.8994
85.9046
85.9093
85.9127
85.9167
85.92
85.9233
85.9262
85.9306
85.935
85.9392
85.9427
85.9462
85.9494
85.9525
85.9551
85.9576
85.9599
85.9624
85.9645
85.9664
85.9671
85.9679
85.9533
0.861782
0.817391
0.783524
0.779356
0.93416
1.79097
4.53792
9.91506
17.0843
24.6071
31.6133
37.8312
43.2692
48.021
52.1542
55.7459
58.8559
61.5358
63.8393
65.819
67.5258
69.003
70.2865
71.4036
72.3772
73.2247
73.9622
74.601
75.1528
75.6269
76.0329
76.3783
76.671
76.9176
77.126
77.3005
77.4463
77.5666
77.6659
77.7465
77.8118
77.8639
77.9072
77.9421
77.9706
77.9923
78.0094
78.0217
78.0305
78.036
78.0413
78.0454
78.049
78.0508
78.0521
78.052
78.0512
78.0495
78.0496
78.05
78.051
78.0508
78.0508
78.0499
78.049
78.0478
78.0487
78.0502
78.0521
78.0528
78.0536
78.0535
78.0536
78.0538
78.0564
78.0596
78.0633
78.0659
78.0685
78.0701
78.0716
78.0731
78.0766
78.0805
78.0848
78.0882
78.0917
78.0945
78.0972
78.0999
78.1043
78.1088
78.1134
78.1171
78.1209
78.1241
78.1272
78.1303
78.1347
78.1392
78.1437
78.1476
78.1515
78.155
78.1585
78.1619
78.166
78.1701
78.1742
78.178
78.1817
78.185
78.1883
78.1912
78.1941
78.1968
78.1994
78.2018
78.2041
78.2055
78.2063
78.193
0.86176
0.817314
0.781698
0.754287
0.750857
0.851578
1.34912
2.92471
6.28868
11.4019
17.464
23.6211
29.3988
34.634
39.2852
43.3447
46.8708
49.931
52.5926
54.9144
56.9459
58.7261
60.2861
61.6511
62.8433
63.8816
64.7833
65.5631
66.2356
66.8129
67.3068
67.7271
68.0837
68.3848
68.6387
68.8514
69.0292
69.177
69.2991
69.399
69.4806
69.5467
69.6007
69.644
69.6792
69.707
69.7289
69.7453
69.7576
69.7666
69.7737
69.7787
69.7829
69.7858
69.7878
69.7884
69.7883
69.7879
69.7879
69.7877
69.788
69.7882
69.7882
69.7875
69.7869
69.7865
69.787
69.7875
69.7886
69.7896
69.7905
69.7907
69.7911
69.7919
69.7937
69.7958
69.7987
69.8014
69.8039
69.8058
69.8077
69.8098
69.8127
69.8158
69.8194
69.8229
69.8264
69.8293
69.8322
69.8354
69.8393
69.8431
69.8472
69.8512
69.8551
69.8584
69.8618
69.8653
69.8693
69.8733
69.8775
69.8816
69.8856
69.8892
69.8929
69.8966
69.9006
69.9045
69.9085
69.9124
69.9163
69.9198
69.9233
69.9266
69.9298
69.9328
69.9357
69.9384
69.9411
69.9431
69.9443
69.9331
0.861741
0.817229
0.781255
0.75047
0.724586
0.711012
0.739776
0.914923
1.51729
3.01637
5.7901
9.79175
14.5643
19.5485
24.36
28.8025
32.8575
36.5514
39.9033
42.9206
45.6104
47.9852
50.0646
51.8732
53.4384
54.7877
55.9471
56.9404
57.7895
58.5135
59.1291
59.6509
60.0921
60.4641
60.7767
61.0385
61.2571
61.439
61.5895
61.7133
61.8147
61.8975
61.9647
62.0188
62.0625
62.0975
62.1251
62.1464
62.1629
62.1754
62.185
62.1917
62.197
62.2009
62.2037
62.2052
62.2059
62.2063
62.2065
62.2063
62.2063
62.2064
62.2064
62.206
62.2057
62.2056
62.2058
62.2059
62.2065
62.2074
62.2083
62.2087
62.2094
62.2103
62.2118
62.2133
62.2154
62.2178
62.2202
62.2223
62.2244
62.2267
62.2294
62.232
62.2351
62.2384
62.2417
62.2447
62.2478
62.2511
62.2547
62.2582
62.262
62.2659
62.2697
62.2732
62.2768
62.2804
62.2843
62.288
62.292
62.2961
62.3001
62.3039
62.3077
62.3115
62.3154
62.3193
62.3232
62.3272
62.3311
62.3349
62.3385
62.3421
62.3456
62.3489
62.3521
62.3551
62.3582
62.3606
62.3623
62.3533
0.861729
0.817179
0.781116
0.74996
0.72177
0.696605
0.676244
0.66725
0.691947
0.81794
1.20917
2.14345
3.92134
6.71076
10.4537
14.9039
19.675
24.4197
28.8924
32.9545
36.5514
39.6828
42.3793
44.6852
46.6489
48.3172
49.7324
50.9315
51.9468
52.8056
53.5312
54.1433
54.6588
55.0921
55.4554
55.7591
56.0125
56.2231
56.3976
56.5413
56.6593
56.7557
56.834
56.8973
56.9483
56.9891
57.0216
57.047
57.0669
57.0821
57.0937
57.1022
57.1086
57.1134
57.1169
57.1191
57.1205
57.1213
57.1218
57.1218
57.1218
57.1219
57.1219
57.1218
57.1216
57.1216
57.1217
57.1217
57.1222
57.1228
57.1236
57.1243
57.1251
57.126
57.1273
57.1286
57.1303
57.1323
57.1345
57.1366
57.1387
57.141
57.1435
57.1459
57.1487
57.1517
57.1548
57.1578
57.1609
57.1642
57.1675
57.1709
57.1744
57.1782
57.1819
57.1855
57.1891
57.1928
57.1965
57.2002
57.204
57.208
57.2119
57.2157
57.2196
57.2234
57.2273
57.2311
57.235
57.2389
57.2428
57.2466
57.2504
57.2541
57.2577
57.2612
57.2646
57.2678
57.271
57.2738
57.2758
57.2682
0.861731
0.817184
0.781122
0.749969
0.721786
0.696647
0.676374
0.667666
0.693283
0.821898
1.21879
2.16081
3.94284
6.72577
10.4533
14.8769
19.6186
24.3372
28.7901
32.8391
36.4282
39.5558
42.2512
44.5578
46.5232
48.1935
49.6109
50.8124
51.8298
52.6906
53.4181
54.0319
54.5489
54.9835
55.3479
55.6527
55.9069
56.1183
56.2934
56.4379
56.5564
56.6533
56.732
56.7957
56.8469