/*--------------------------------*- C++ -*----------------------------------*\
  =========                 |
  \\      /  F ield         | OpenFOAM: The Open Source CFD Toolbox
   \\    /   O peration     | Website:  https://openfoam.org
    \\  /    A nd           | Version:  8
     \\/     M anipulation  |
\*---------------------------------------------------------------------------*/
FoamFile
{
    version     2.0;
    format      ascii;
    class       volScalarField;
    location    "100";
    object      nut;
}
// * * * * * * * * * * * * * * * * * * * * * * * * * * * * * * * * * * * * * //

dimensions      [0 2 -1 0 0 0 0];

internalField   nonuniform List<scalar> 
7320
(
0.000285553
0.000275107
0.000325036
0.000362588
0.00037791
0.000386491
0.000393317
0.000399386
0.000404928
0.000410064
0.000414919
0.000419509
0.000423852
0.000427938
0.000431761
0.000435262
0.000438405
0.000441163
0.000443583
0.000445634
0.000447348
0.000448755
0.000449932
0.000450884
0.000451648
0.00045224
0.000452764
0.000453168
0.000453478
0.000453703
0.000453908
0.000454058
0.000454166
0.00045421
0.000454319
0.000454383
0.000454418
0.000454412
0.000454452
0.000454468
0.000454466
0.000454417
0.000454475
0.000454497
0.000454496
0.000454452
0.000454479
0.000454483
0.000454466
0.0004544
0.00045446
0.000454484
0.000454479
0.000454427
0.000454458
0.000454465
0.000454451
0.000454383
0.000454452
0.000454484
0.00045448
0.000454426
0.00045446
0.000454467
0.000454457
0.000454396
0.000454473
0.000454508
0.000454506
0.000454452
0.000454489
0.000454497
0.000454487
0.000454439
0.000454522
0.000454559
0.000454559
0.000454515
0.000454557
0.000454563
0.000454553
0.000454515
0.000454595
0.000454628
0.000454625
0.000454592
0.000454639
0.000454645
0.000454637
0.000454612
0.000454686
0.000454713
0.00045471
0.000454686
0.000454726
0.000454733
0.000454729
0.000454712
0.000454773
0.000454793
0.000454793
0.00045478
0.00045481
0.00045482
0.000454821
0.000454815
0.000454852
0.000454869
0.000454875
0.000454874
0.000454889
0.000454898
0.000454905
0.000454911
0.000454912
0.00045492
0.00045493
0.00045494
0.00045493
0.000454934
0.000454934
0.000454951
0.000558951
0.000960376
0.00277119
0.0035804
0.00387791
0.0040275
0.00413583
0.00422622
0.0043054
0.00437624
0.00444157
0.00450177
0.00455768
0.00460944
0.00465757
0.00470111
0.00473997
0.00477382
0.00480393
0.00482913
0.00485015
0.00486731
0.00488202
0.00489369
0.00490309
0.0049102
0.00491717
0.0049222
0.00492604
0.00492864
0.00493145
0.00493324
0.00493451
0.00493472
0.00493667
0.0049375
0.0049379
0.00493752
0.00493833
0.00493845
0.00493832
0.00493728
0.0049387
0.00493903
0.00493896
0.00493801
0.00493872
0.00493868
0.00493832
0.00493699
0.00493851
0.00493888
0.00493872
0.00493761
0.00493842
0.00493842
0.00493807
0.00493669
0.00493836
0.00493884
0.00493866
0.0049375
0.00493835
0.00493834
0.00493804
0.00493678
0.00493853
0.00493903
0.00493885
0.00493766
0.00493853
0.00493851
0.00493822
0.00493716
0.00493899
0.00493948
0.0049393
0.0049383
0.00493922
0.00493914
0.00493882
0.00493797
0.00493967
0.00494005
0.00493985
0.00493905
0.00494004
0.00493993
0.00493965
0.00493903
0.00494056
0.00494085
0.00494064
0.00494004
0.00494087
0.0049408
0.0049406
0.00494016
0.00494138
0.00494155
0.00494142
0.00494103
0.00494162
0.00494162
0.00494152
0.00494127
0.00494199
0.00494212
0.00494211
0.00494196
0.00494221
0.00494225
0.00494228
0.00494226
0.00494221
0.00494227
0.00494238
0.00494245
0.00494222
0.00494223
0.00494241
0.00494237
0.000753642
0.00209198
0.00695724
0.00900212
0.00979131
0.0102001
0.0104958
0.0107417
0.0109568
0.0111491
0.0113262
0.0114896
0.0116414
0.0117823
0.0119136
0.0120331
0.0121403
0.0122344
0.0123181
0.0123888
0.0124482
0.012497
0.0125388
0.0125723
0.0125994
0.0126204
0.0126401
0.0126547
0.0126661
0.0126741
0.0126821
0.0126875
0.0126914
0.0126927
0.0126977
0.0127001
0.0127014
0.0127008
0.0127029
0.0127033
0.0127031
0.0127008
0.012704
0.0127049
0.0127048
0.0127026
0.0127042
0.0127041
0.0127033
0.0127003
0.0127036
0.0127045
0.0127042
0.0127017
0.0127034
0.0127034
0.0127026
0.0126995
0.0127032
0.0127043
0.012704
0.0127014
0.0127032
0.0127032
0.0127026
0.0126998
0.0127037
0.0127048
0.0127045
0.0127018
0.0127037
0.0127037
0.0127031
0.0127008
0.0127049
0.0127061
0.0127057
0.0127035
0.0127055
0.0127054
0.0127048
0.012703
0.0127067
0.0127077
0.0127073
0.0127056
0.0127077
0.0127076
0.012707
0.0127057
0.0127091
0.0127098
0.0127094
0.0127081
0.01271
0.0127099
0.0127095
0.0127086
0.0127113
0.0127118
0.0127116
0.0127108
0.0127121
0.0127122
0.012712
0.0127115
0.0127131
0.0127135
0.0127135
0.0127132
0.0127138
0.012714
0.0127141
0.0127141
0.012714
0.0127141
0.0127144
0.0127146
0.0127141
0.0127141
0.0127145
0.0127143
0.000931222
0.00366916
0.0120498
0.0156891
0.0171772
0.0179679
0.018538
0.0190095
0.0194207
0.0197881
0.0201256
0.0204368
0.0207262
0.0209953
0.0212463
0.0214758
0.0216827
0.0218653
0.0220278
0.0221663
0.0222832
0.02238
0.0224625
0.0225294
0.0225839
0.0226264
0.0226653
0.0226949
0.0227181
0.0227348
0.0227508
0.022762
0.0227703
0.0227739
0.022783
0.0227879
0.0227908
0.0227905
0.022794
0.022795
0.0227949
0.0227915
0.0227965
0.0227981
0.022798
0.0227947
0.022797
0.0227969
0.0227955
0.0227908
0.0227959
0.0227974
0.0227969
0.022793
0.0227956
0.0227956
0.0227944
0.0227896
0.0227951
0.022797
0.0227965
0.0227925
0.0227952
0.0227952
0.0227943
0.0227901
0.022796
0.0227979
0.0227974
0.0227934
0.0227961
0.0227963
0.0227955
0.0227921
0.0227983
0.0228002
0.0227998
0.0227966
0.0227995
0.0227995
0.0227987
0.022796
0.0228017
0.0228034
0.0228029
0.0228004
0.0228036
0.0228036
0.0228029
0.0228011
0.0228062
0.0228075
0.022807
0.0228052
0.0228079
0.0228081
0.0228076
0.0228063
0.0228105
0.0228114
0.0228112
0.02281
0.022812
0.0228123
0.0228122
0.0228116
0.0228141
0.0228148
0.022815
0.0228146
0.0228155
0.0228159
0.0228161
0.0228162
0.0228162
0.0228165
0.022817
0.0228173
0.0228165
0.0228165
0.0228171
0.0228165
0.0010962
0.005554
0.0177824
0.0234445
0.025888
0.0272139
0.0281652
0.0289468
0.0296262
0.0302319
0.0307866
0.0312978
0.031773
0.0322152
0.0326279
0.0330064
0.033349
0.0336525
0.0339228
0.0341545
0.034351
0.0345147
0.0346538
0.0347676
0.0348605
0.0349338
0.0349993
0.0350503
0.0350904
0.03512
0.035147
0.0351667
0.0351815
0.0351891
0.0352032
0.0352118
0.0352172
0.0352176
0.0352229
0.0352248
0.0352251
0.0352208
0.0352275
0.0352299
0.0352301
0.0352256
0.0352285
0.0352284
0.0352265
0.0352202
0.0352267
0.0352289
0.0352284
0.0352232
0.0352263
0.0352263
0.0352246
0.0352183
0.0352254
0.0352282
0.0352276
0.0352223
0.0352256
0.0352258
0.0352247
0.0352192
0.0352268
0.0352296
0.035229
0.0352238
0.0352272
0.0352276
0.0352268
0.0352225
0.0352305
0.0352334
0.0352331
0.035229
0.0352326
0.0352329
0.035232
0.0352288
0.0352362
0.0352387
0.0352384
0.0352353
0.0352393
0.0352397
0.035239
0.0352369
0.0352434
0.0352455
0.0352451
0.0352429
0.0352464
0.0352469
0.0352466
0.0352452
0.0352505
0.035252
0.035252
0.0352507
0.0352533
0.035254
0.0352541
0.0352535
0.0352567
0.0352579
0.0352584
0.0352581
0.0352593
0.03526
0.0352605
0.0352608
0.0352607
0.0352613
0.035262
0.0352625
0.0352616
0.0352615
0.0352623
0.035261
0.0012837
0.00759316
0.0240136
0.0321996
0.0359121
0.0379635
0.0394276
0.0406224
0.0416565
0.0425762
0.0434157
0.0441884
0.0449059
0.0455736
0.0461966
0.0467694
0.047289
0.047751
0.0481623
0.0485167
0.0488183
0.0490707
0.0492849
0.0494611
0.0496055
0.0497205
0.0498213
0.0499011
0.0499641
0.0500115
0.0500533
0.0500847
0.0501083
0.0501219
0.0501423
0.0501559
0.0501648
0.0501668
0.0501741
0.0501774
0.0501783
0.0501735
0.0501816
0.0501852
0.0501858
0.0501804
0.0501835
0.0501834
0.050181
0.0501733
0.0501807
0.0501838
0.0501834
0.050177
0.0501803
0.0501802
0.0501782
0.0501706
0.0501788
0.0501826
0.050182
0.0501757
0.0501792
0.0501796
0.0501784
0.050172
0.0501808
0.0501846
0.0501842
0.050178
0.0501816
0.0501825
0.0501819
0.0501772
0.0501864
0.0501905
0.0501905
0.0501859
0.0501897
0.0501906
0.0501899
0.0501865
0.050195
0.0501987
0.0501987
0.0501953
0.0501999
0.0502009
0.0502005
0.0501984
0.050206
0.0502091
0.0502089
0.0502066
0.0502106
0.0502118
0.0502118
0.0502106
0.0502168
0.0502192
0.0502195
0.0502183
0.0502213
0.0502226
0.0502231
0.0502228
0.0502266
0.0502285
0.0502294
0.0502294
0.0502309
0.050232
0.0502329
0.0502336
0.0502336
0.0502344
0.0502354
0.0502362
0.0502352
0.0502349
0.050236
0.0502334
0.00156713
0.00964692
0.0306148
0.0418919
0.0472484
0.0502588
0.0523965
0.0541287
0.0556208
0.0569439
0.0581475
0.0592535
0.0602788
0.0612324
0.0621214
0.0629399
0.0636834
0.0643463
0.0649361
0.0654466
0.0658823
0.0662481
0.0665583
0.0668148
0.0670256
0.0671946
0.0673407
0.0674579
0.0675509
0.0676217
0.0676827
0.0677294
0.0677649
0.0677869
0.067815
0.0678351
0.0678488
0.0678532
0.0678629
0.0678682
0.0678701
0.0678652
0.0678744
0.0678794
0.0678807
0.0678745
0.0678775
0.0678775
0.0678746
0.0678658
0.0678735
0.0678775
0.0678773
0.06787
0.067873
0.067873
0.0678708
0.0678621
0.0678708
0.0678756
0.0678753
0.0678682
0.0678715
0.0678722
0.0678712
0.0678643
0.0678736
0.0678785
0.0678784
0.0678718
0.0678751
0.0678765
0.0678765
0.0678718
0.0678818
0.0678871
0.0678878
0.067883
0.0678867
0.0678883
0.0678882
0.0678851
0.0678942
0.0678992
0.0678999
0.0678966
0.0679014
0.0679033
0.0679035
0.0679019
0.06791
0.0679143
0.0679147
0.0679126
0.0679169
0.067919
0.0679196
0.0679189
0.0679256
0.0679292
0.0679301
0.0679293
0.0679326
0.0679348
0.0679359
0.0679362
0.0679404
0.0679433
0.0679447
0.0679453
0.067947
0.0679488
0.0679502
0.0679513
0.0679515
0.0679527
0.0679542
0.0679553
0.0679544
0.0679538
0.0679551
0.0679506
0.00207791
0.0115911
0.037438
0.0524291
0.0598704
0.0641221
0.0671276
0.0695453
0.0716173
0.0734482
0.0751079
0.0766295
0.0780376
0.0793453
0.0805629
0.0816844
0.082704
0.0836146
0.0844244
0.0851277
0.0857293
0.0862361
0.0866655
0.0870221
0.087316
0.0875531
0.0877556
0.0879198
0.088051
0.0881517
0.0882369
0.0883032
0.088354
0.0883872
0.0884245
0.088453
0.0884729
0.0884811
0.0884935
0.0885013
0.0885048
0.0885003
0.0885101
0.0885169
0.0885192
0.0885127
0.0885151
0.0885151
0.0885119
0.0885022
0.0885095
0.0885146
0.0885148
0.088507
0.0885091
0.0885091
0.0885067
0.0884975
0.0885057
0.0885118
0.0885119
0.0885045
0.0885071
0.088508
0.0885075
0.0885007
0.0885098
0.0885159
0.0885163
0.0885096
0.0885121
0.0885144
0.0885152
0.0885112
0.0885212
0.088528
0.0885296
0.0885253
0.0885283
0.0885309
0.0885317
0.0885295
0.0885386
0.0885452
0.0885469
0.0885443
0.0885487
0.0885519
0.0885532
0.0885526
0.0885606
0.0885663
0.0885677
0.0885663
0.0885704
0.0885738
0.0885754
0.0885757
0.0885825
0.0885875
0.0885893
0.0885893
0.0885927
0.088596
0.0885981
0.0885993
0.0886038
0.0886078
0.08861
0.0886114
0.0886135
0.0886161
0.0886181
0.08862
0.0886205
0.0886222
0.0886242
0.0886257
0.0886251
0.0886241
0.0886256
0.0886185
0.00301341
0.0133133
0.0443026
0.0636718
0.0737062
0.0795361
0.0836419
0.0869204
0.0897144
0.0921737
0.0943945
0.0964255
0.0983004
0.100039
0.101654
0.103141
0.104494
0.105703
0.106777
0.107713
0.108515
0.109193
0.109766
0.110245
0.11064
0.110961
0.111232
0.111454
0.111632
0.11177
0.111885
0.111976
0.112046
0.112094
0.112142
0.112181
0.112209
0.112222
0.112238
0.112249
0.112255
0.112251
0.112261
0.11227
0.112274
0.112267
0.112269
0.112269
0.112265
0.112255
0.112261
0.112267
0.112268
0.11226
0.112261
0.112261
0.112259
0.112249
0.112256
0.112264
0.112264
0.112257
0.112258
0.11226
0.11226
0.112254
0.112262
0.112269
0.112271
0.112264
0.112265
0.112269
0.112271
0.112268
0.112277
0.112286
0.112289
0.112286
0.112287
0.112291
0.112293
0.112293
0.112301
0.112309
0.112313
0.112311
0.112315
0.11232
0.112323
0.112324
0.112331
0.112338
0.112341
0.112341
0.112344
0.112349
0.112353
0.112354
0.112361
0.112367
0.112371
0.112372
0.112375
0.11238
0.112383
0.112386
0.11239
0.112396
0.112399
0.112402
0.112404
0.112408
0.112411
0.112414
0.112414
0.112417
0.11242
0.112422
0.112421
0.11242
0.112422
0.112411
0.00460193
0.0147105
0.0509883
0.0754209
0.0886235
0.0964288
0.101911
0.106256
0.109937
0.113163
0.116065
0.11871
0.121146
0.123398
0.125487
0.127408
0.129154
0.130715
0.132102
0.133312
0.134352
0.135231
0.135976
0.1366
0.137116
0.137537
0.13789
0.138182
0.138417
0.138601
0.138752
0.138873
0.138967
0.139033
0.139094
0.139146
0.139184
0.139204
0.139224
0.139239
0.139247
0.139246
0.139256
0.139267
0.139272
0.139266
0.139266
0.139267
0.139263
0.139253
0.139256
0.139264
0.139266
0.139258
0.139257
0.139257
0.139254
0.139246
0.13925
0.139259
0.139261
0.139254
0.139253
0.139255
0.139256
0.139251
0.139258
0.139266
0.139269
0.139264
0.139263
0.139267
0.139271
0.13927
0.139278
0.139289
0.139293
0.139292
0.139292
0.139297
0.139301
0.139303
0.13931
0.13932
0.139325
0.139326
0.139328
0.139335
0.13934
0.139343
0.139349
0.139359
0.139363
0.139365
0.139367
0.139375
0.13938
0.139383
0.139389
0.139398
0.139403
0.139405
0.139409
0.139415
0.13942
0.139425
0.139429
0.139436
0.139441
0.139445
0.139448
0.139453
0.139457
0.139461
0.139463
0.139466
0.139469
0.139472
0.139473
0.139471
0.139473
0.139458
0.00701996
0.0156907
0.0572297
0.0874079
0.104417
0.11466
0.121844
0.127497
0.132256
0.136407
0.140124
0.143502
0.146602
0.149461
0.152104
0.154532
0.156736
0.158708
0.160456
0.161984
0.163299
0.164415
0.165359
0.166152
0.166811
0.167349
0.1678
0.168174
0.168477
0.168715
0.16891
0.169067
0.169189
0.169278
0.169355
0.169422
0.169473
0.169501
0.169526
0.169546
0.169558
0.16956
0.169569
0.169583
0.169591
0.169586
0.169584
0.169584
0.169581
0.169571
0.169571
0.16958
0.169583
0.169576
0.169572
0.169572
0.16957
0.169562
0.169564
0.169574
0.169577
0.169571
0.169568
0.169571
0.169573
0.16957
0.169573
0.169583
0.169588
0.169584
0.169581
0.169587
0.169592
0.169595
0.1696
0.169612
0.16962
0.16962
0.169618
0.169625
0.169632
0.169636
0.169641
0.169654
0.169662
0.169665
0.169666
0.169675
0.169682
0.169688
0.169692
0.169704
0.169711
0.169714
0.169716
0.169726
0.169733
0.169739
0.169744
0.169755
0.169762
0.169767
0.16977
0.169779
0.169786
0.169792
0.169797
0.169806
0.169813
0.169819
0.169822
0.169828
0.169834
0.16984
0.169842
0.169846
0.169851
0.169854
0.169856
0.169854
0.169856
0.169836
0.0103066
0.0161808
0.0627143
0.0992862
0.120795
0.134008
0.143276
0.15052
0.156578
0.161835
0.166519
0.170761
0.174641
0.178208
0.181495
0.184507
0.187238
0.189679
0.191841
0.193733
0.195363
0.196749
0.197922
0.198911
0.199734
0.20041
0.200973
0.201443
0.201825
0.202129
0.202374
0.202574
0.202732
0.202848
0.202944
0.20303
0.203095
0.203135
0.203165
0.203192
0.203209
0.203215
0.203223
0.20324
0.20325
0.203247
0.203243
0.203244
0.203241
0.203232
0.203228
0.203237
0.203242
0.203237
0.20323
0.203229
0.203228
0.203221
0.203218
0.203229
0.203234
0.203231
0.203224
0.203227
0.203231
0.203231
0.203231
0.203242
0.203248
0.203248
0.203241
0.203248
0.203256
0.203262
0.203265
0.203279
0.203289
0.203293
0.203288
0.203298
0.203307
0.203315
0.203317
0.203332
0.203343
0.203349
0.203348
0.20336
0.20337
0.20338
0.203382
0.203396
0.203406
0.203412
0.203413
0.203425
0.203435
0.203444
0.203447
0.203461
0.203471
0.203479
0.203481
0.203492
0.203502
0.203511
0.203516
0.203527
0.203536
0.203544
0.203548
0.203557
0.203564
0.203572
0.203575
0.203581
0.203586
0.203591
0.203594
0.203591
0.203594
0.203567
0.0143215
0.016143
0.0670832
0.110622
0.137368
0.154154
0.165951
0.175118
0.182732
0.189303
0.19513
0.200385
0.205173
0.20956
0.213587
0.217268
0.220598
0.223572
0.226203
0.228506
0.230492
0.232184
0.233618
0.234829
0.23584
0.236674
0.237367
0.237948
0.238423
0.238803
0.239109
0.23936
0.239558
0.239707
0.239826
0.239934
0.240017
0.240071
0.240109
0.240144
0.240167
0.240177
0.240184
0.240205
0.240219
0.240219
0.240213
0.240213
0.24021
0.240203
0.240194
0.240204
0.240211
0.240207
0.240197
0.240196
0.240195
0.24019
0.240183
0.240195
0.240202
0.2402
0.240191
0.240194
0.2402
0.240202
0.240198
0.240211
0.240219
0.240221
0.240212
0.24022
0.240231
0.24024
0.24024
0.240257
0.24027
0.240278
0.240271
0.240282
0.240294
0.240306
0.240306
0.240324
0.240338
0.240347
0.240345
0.24036
0.240373
0.240386
0.240387
0.240403
0.240416
0.240425
0.240425
0.24044
0.240453
0.240466
0.240468
0.240485
0.240498
0.240508
0.240511
0.240525
0.240537
0.24055
0.240554
0.240568
0.240579
0.24059
0.240595
0.240606
0.240615
0.240625
0.24063
0.240637
0.240644
0.24065
0.240655
0.240651
0.240655
0.240621
0.0187588
0.0155999
0.0699384
0.120883
0.153631
0.174665
0.189511
0.200991
0.210461
0.218588
0.225757
0.232195
0.238037
0.243369
0.248245
0.252688
0.256697
0.260272
0.263429
0.266193
0.268579
0.270616
0.272343
0.273805
0.27503
0.276044
0.276885
0.277594
0.278177
0.278645
0.279022
0.279332
0.279579
0.279768
0.279915
0.280048
0.280154
0.280224
0.280272
0.280316
0.280347
0.280364
0.280371
0.280395
0.280414
0.280416
0.280408
0.280409
0.280407
0.280401
0.280387
0.280398
0.280406
0.280405
0.280391
0.280389
0.28039
0.280387
0.280374
0.280386
0.280395
0.280397
0.280384
0.280388
0.280395
0.280401
0.280393
0.280406
0.280418
0.280423
0.28041
0.280419
0.280433
0.280447
0.280444
0.280462
0.28048
0.280491
0.280482
0.280495
0.28051
0.280527
0.280524
0.280544
0.280562
0.280576
0.280572
0.280589
0.280607
0.280624
0.280623
0.280642
0.280658
0.280671
0.28067
0.280687
0.280704
0.280721
0.280722
0.280742
0.280758
0.280772
0.280775
0.280792
0.280807
0.280823
0.280828
0.280844
0.280859
0.280873
0.280879
0.280892
0.280904
0.280916
0.280922
0.280931
0.28094
0.280948
0.280954
0.28095
0.280955
0.280913
0.0232096
0.0146706
0.0708652
0.12943
0.168947
0.194973
0.213468
0.227719
0.239401
0.24937
0.258115
0.265931
0.272994
0.279416
0.285263
0.290572
0.295349
0.2996
0.303347
0.306626
0.30946
0.311881
0.313938
0.315683
0.317149
0.318368
0.31938
0.320235
0.32094
0.321512
0.321972
0.322352
0.322657
0.322893
0.323073
0.323237
0.323368
0.32346
0.323521
0.323576
0.323617
0.323642
0.323649
0.323677
0.323701
0.323708
0.323698
0.3237
0.323699
0.323694
0.323675
0.323686
0.323696
0.323697
0.32368
0.323678
0.323679
0.323678
0.32366
0.323672
0.323684
0.323688
0.323672
0.323676
0.323685
0.323694
0.323682
0.323696
0.32371
0.323719
0.323704
0.323714
0.323731
0.323749
0.323743
0.323763
0.323784
0.3238
0.323789
0.323804
0.323823
0.323844
0.323839
0.323862
0.323884
0.323902
0.323897
0.323917
0.323939
0.323961
0.323957
0.323979
0.323999
0.324016
0.324015
0.324035
0.324056
0.324077
0.324077
0.3241
0.32412
0.324138
0.324141
0.32416
0.324179
0.324199
0.324204
0.324224
0.324242
0.324259
0.324267
0.324282
0.324296
0.324311
0.32432
0.324331
0.324341
0.324351
0.32436
0.324356
0.324361
0.324311
0.027258
0.0136152
0.0694752
0.135508
0.182527
0.214349
0.237177
0.25474
0.269059
0.281207
0.291806
0.301232
0.309714
0.317392
0.324354
0.33065
0.336297
0.34131
0.345719
0.349574
0.352907
0.355759
0.358185
0.360248
0.361986
0.363438
0.364644
0.365666
0.366514
0.367205
0.367763
0.368225
0.368598
0.368891
0.369112
0.369313
0.369475
0.369592
0.369669
0.369739
0.369791
0.369826
0.369836
0.369868
0.369898
0.36991
0.3699
0.369902
0.369902
0.369899
0.369876
0.369885
0.369898
0.369901
0.369882
0.369878
0.369881
0.369882
0.369859
0.36987
0.369884
0.369891
0.369873
0.369876
0.369887
0.369899
0.369884
0.369898
0.369915
0.369928
0.369911
0.369921
0.369941
0.369963
0.369955
0.369977
0.370002
0.370022
0.370011
0.370027
0.370049
0.370075
0.370069
0.370093
0.37012
0.370143
0.370138
0.37016
0.370185
0.370212
0.370208
0.370232
0.370256
0.370277
0.370276
0.370299
0.370323
0.370349
0.370349
0.370374
0.370399
0.370421
0.370425
0.370447
0.37047
0.370493
0.3705
0.370522
0.370543
0.370564
0.370574
0.370592
0.370609
0.370627
0.370638
0.370651
0.370664
0.370675
0.370687
0.370683
0.370689
0.37063
0.0305844
0.0128797
0.0654854
0.138246
0.193402
0.231866
0.259799
0.281311
0.298774
0.313509
0.326294
0.33761
0.347745
0.356881
0.365129
0.372558
0.379196
0.385072
0.390227
0.394729
0.39862
0.401956
0.404796
0.407217
0.409264
0.41098
0.41241
0.413625
0.414637
0.415468
0.41614
0.416699
0.417153
0.417513
0.417785
0.418029
0.418228
0.418376
0.418475
0.418562
0.41863
0.418677
0.418691
0.418729
0.418765
0.418783
0.418774
0.418777
0.418779
0.418778
0.418751
0.418759
0.418773
0.41878
0.418758
0.418754
0.418757
0.418759
0.418733
0.418742
0.418758
0.418768
0.418748
0.418751
0.418763
0.418779
0.41876
0.418774
0.418794
0.41881
0.418793
0.418802
0.418825
0.418851
0.418842
0.418864
0.418893
0.418919
0.418907
0.418924
0.41895
0.41898
0.418973
0.418999
0.41903
0.419058
0.419054
0.419078
0.419108
0.419139
0.419135
0.419161
0.419189
0.419215
0.419214
0.419239
0.419268
0.419298
0.419299
0.419327
0.419355
0.419381
0.419388
0.419412
0.419438
0.419466
0.419475
0.419499
0.419524
0.419549
0.419561
0.419582
0.419602
0.419623
0.419637
0.419652
0.419668
0.419681
0.419695
0.419692
0.4197
0.419632
0.0330382
0.0131182
0.0588375
0.136693
0.200397
0.246359
0.280252
0.306452
0.327666
0.345483
0.360863
0.374407
0.386484
0.397324
0.407067
0.415805
0.423584
0.430447
0.436451
0.441684
0.446206
0.450087
0.453396
0.456223
0.458622
0.460642
0.462331
0.463767
0.464971
0.465965
0.466774
0.467447
0.467998
0.468439
0.468775
0.469071
0.469315
0.469501
0.469628
0.469737
0.469823
0.469886
0.469908
0.469952
0.469995
0.470021
0.470015
0.470019
0.470024
0.470025
0.469995
0.470001
0.470017
0.470026
0.470004
0.469998
0.470001
0.470005
0.469976
0.469983
0.47
0.470013
0.469993
0.469994
0.470008
0.470025
0.470005
0.470018
0.47004
0.47006
0.470043
0.470052
0.470076
0.470106
0.470097
0.47012
0.470152
0.470183
0.470173
0.47019
0.470219
0.470253
0.470247
0.470274
0.470309
0.470342
0.470339
0.470365
0.470398
0.470434
0.470432
0.470459
0.470491
0.470521
0.470523
0.47055
0.470582
0.470616
0.470619
0.470649
0.470681
0.470712
0.470721
0.470748
0.470778
0.470809
0.470821
0.470848
0.470876
0.470905
0.470921
0.470944
0.470967
0.470991
0.471008
0.471026
0.471044
0.471059
0.471077
0.471074
0.471084
0.471007
0.034651
0.0151204
0.0498589
0.129914
0.202116
0.256379
0.297151
0.328884
0.354571
0.376071
0.394547
0.41074
0.425115
0.437963
0.449465
0.459735
0.468841
0.476847
0.483829
0.4899
0.495143
0.499646
0.503493
0.506786
0.50959
0.511962
0.513953
0.51565
0.517079
0.518267
0.519239
0.520051
0.520718
0.521258
0.521672
0.522032
0.522331
0.522564
0.522727
0.522864
0.522973
0.523055
0.52309
0.523142
0.523194
0.523229
0.523228
0.523235
0.523242
0.523246
0.523215
0.523219
0.523235
0.523247
0.523225
0.523218
0.523221
0.523227
0.523195
0.523199
0.523217
0.523233
0.523213
0.523213
0.523227
0.523247
0.523227
0.523238
0.523261
0.523285
0.523269
0.523277
0.523303
0.523336
0.523327
0.52335
0.523386
0.52342
0.523413
0.523431
0.523463
0.5235
0.523496
0.523524
0.523562
0.523599
0.5236
0.523627
0.523664
0.523704
0.523704
0.523733
0.523769
0.523803
0.523808
0.523836
0.523872
0.52391
0.523916
0.523947
0.523983
0.524018
0.524031
0.52406
0.524093
0.524129
0.524144
0.524173
0.524205
0.524238
0.524257
0.524283
0.524309
0.524337
0.524357
0.524378
0.524398
0.524416
0.524436
0.524436
0.524447
0.524362
0.0355876
0.019383
0.0394464
0.117218
0.19697
0.260152
0.308736
0.346943
0.377949
0.40386
0.42605
0.445413
0.462533
0.477774
0.491365
0.50345
0.514124
0.523474
0.531603
0.538651
0.544733
0.549959
0.554433
0.55827
0.561549
0.564336
0.566687
0.568694
0.570392
0.571814
0.572985
0.573965
0.574775
0.575436
0.57595
0.57639
0.576757
0.577048
0.577257
0.577431
0.57757
0.577677
0.577729
0.577793
0.577856
0.577902
0.577908
0.577919
0.57793
0.577938
0.577908
0.577909
0.577925
0.577939
0.577919
0.57791
0.577914
0.57792
0.577888
0.577889
0.577906
0.577923
0.577905
0.577904
0.577918
0.57794
0.57792
0.577929
0.577953
0.57798
0.577966
0.577974
0.578
0.578035
0.578029
0.578051
0.578089
0.578127
0.578125
0.578143
0.578177
0.578217
0.578216
0.578244
0.578285
0.578326
0.578332
0.57836
0.5784
0.578443
0.578447
0.578477
0.578516
0.578554
0.578563
0.578593
0.578631
0.578673
0.578683
0.578716
0.578756
0.578795
0.578812
0.578843
0.57888
0.578919
0.578938
0.578969
0.579005
0.579041
0.579064
0.579093
0.579123
0.579153
0.579177
0.579201
0.579224
0.579245
0.579268
0.57927
0.579284
0.579191
0.0360636
0.0251695
0.0292044
0.098585
0.183326
0.255555
0.312811
0.358491
0.395779
0.426964
0.453622
0.476806
0.497231
0.515353
0.531455
0.545722
0.558276
0.569234
0.578733
0.586947
0.594028
0.600116
0.605339
0.609829
0.613679
0.616968
0.619757
0.622143
0.624172
0.62588
0.627299
0.628488
0.629477
0.630289
0.630931
0.631474
0.631927
0.632291
0.632561
0.632782
0.63296
0.633099
0.633176
0.633256
0.633333
0.633393
0.63341
0.633427
0.633444
0.633456
0.633429
0.633428
0.633443
0.63346
0.633442
0.633433
0.633436
0.633443
0.633412
0.633408
0.633424
0.633443
0.633427
0.633425
0.633439
0.63346
0.633443
0.63345
0.633474
0.633502
0.633493
0.6335
0.633526
0.633562
0.633559
0.63358
0.633619
0.633661
0.633664
0.633683
0.633718
0.63376
0.633764
0.633791
0.633834
0.633879
0.63389
0.63392
0.633961
0.634008
0.634017
0.634047
0.634089
0.634131
0.634145
0.634176
0.634218
0.634263
0.634278
0.634312
0.634354
0.634397
0.634419
0.634453
0.634492
0.634535
0.634558
0.634592
0.634631
0.634671
0.634699
0.63473
0.634763
0.634797
0.634825
0.634852
0.634878
0.634901
0.634928
0.634933
0.634949
0.63485
0.0362731
0.0304622
0.0213296
0.075345
0.159928
0.240207
0.3067
0.360822
0.405433
0.442887
0.474915
0.502722
0.527156
0.548774
0.56793
0.584851
0.599695
0.612615
0.623789
0.633429
0.641735
0.648885
0.655033
0.660333
0.664895
0.668812
0.672152
0.675017
0.677463
0.679535
0.681269
0.682726
0.683944
0.684952
0.68576
0.686436
0.687001
0.687461
0.687812
0.688095
0.688325
0.688507
0.688619
0.688723
0.688818
0.688895
0.688928
0.688954
0.688978
0.688996
0.688975
0.688973
0.688988
0.689005
0.688992
0.688983
0.688985
0.688992
0.688963
0.688956
0.688969
0.688988
0.688976
0.688973
0.688986
0.689007
0.688993
0.688997
0.68902
0.689049
0.689044
0.689051
0.689076
0.689113
0.689114
0.689134
0.689173
0.689217
0.689226
0.689246
0.689282
0.689326
0.689335
0.689363
0.689406
0.689454
0.689472
0.689502
0.689546
0.689595
0.68961
0.689641
0.689685
0.68973
0.689751
0.689783
0.689826
0.689874
0.689895
0.68993
0.689975
0.690022
0.690049
0.690085
0.690127
0.690173
0.690202
0.690238
0.69028
0.690323
0.690356
0.69039
0.690426
0.690463
0.690495
0.690526
0.690555
0.690582
0.690611
0.69062
0.690638
0.690534
0.036352
0.0338306
0.0179942
0.0509739
0.12686
0.211836
0.287304
0.350606
0.40357
0.448376
0.486813
0.520208
0.549516
0.575403
0.598301
0.618485
0.636157
0.651514
0.664781
0.676221
0.686084
0.694592
0.701935
0.708284
0.713774
0.71851
0.722574
0.726068
0.729063
0.731614
0.733762
0.735574
0.737096
0.738363
0.739393
0.74025
0.740965
0.741552
0.742011
0.742381
0.742681
0.742921
0.743082
0.74322
0.743341
0.743441
0.743496
0.743536
0.74357
0.743597
0.743585
0.743584
0.743598
0.743617
0.743608
0.7436
0.743602
0.743609
0.743583
0.743573
0.743582
0.7436
0.743592
0.743588
0.7436
0.74362
0.743609
0.743612
0.743632
0.743661
0.743662
0.743669
0.743693
0.743729
0.743734
0.743754
0.743791
0.743836
0.743852
0.743874
0.74391
0.743956
0.74397
0.743998
0.744041
0.744091
0.744116
0.744148
0.744193
0.744244
0.744266
0.744298
0.744343
0.744391
0.744418
0.744453
0.744497
0.744548
0.744575
0.744612
0.744658
0.744708
0.744741
0.74478
0.744825
0.744873
0.744908
0.744946
0.74499
0.745037
0.745075
0.745113
0.745152
0.745192
0.745229
0.745263
0.745296
0.745325
0.745358
0.745371
0.745393
0.745285
0.0363768
0.0354112
0.0206097
0.0312579
0.0873561
0.169374
0.251482
0.323966
0.386076
0.43929
0.485256
0.525338
0.560556
0.591659
0.619156
0.643379
0.664582
0.683015
0.698964
0.712746
0.724667
0.734996
0.743955
0.751738
0.7585
0.764362
0.769418
0.773779
0.77753
0.780737
0.783455
0.785755
0.787693
0.789316
0.790649
0.791757
0.792681
0.793443
0.794051
0.794542
0.794941
0.795262
0.795492
0.79568
0.79584
0.79597
0.796055
0.796116
0.796166
0.796205
0.796206
0.79621
0.796225
0.796244
0.796241
0.796236
0.796237
0.796244
0.796223
0.796211
0.796216
0.796231
0.796227
0.796223
0.796232
0.796252
0.796245
0.796246
0.796263
0.79629
0.796296
0.796304
0.796327
0.796361
0.796371
0.79639
0.796425
0.79647
0.796492
0.796516
0.796553
0.796599
0.796619
0.796648
0.796691
0.796742
0.796772
0.796807
0.796853
0.796906
0.796935
0.796969
0.797014
0.797065
0.797098
0.797136
0.797182
0.797235
0.797268
0.797307
0.797355
0.797407
0.797446
0.797488
0.797536
0.797587
0.797627
0.797669
0.797715
0.797765
0.797807
0.79785
0.797892
0.797936
0.797977
0.798015
0.798052
0.798085
0.798122
0.79814
0.798165
0.798056
0.036383
0.0359874
0.0276798
0.0218648
0.0501049
0.115646
0.197384
0.276972
0.348205
0.410577
0.465116
0.513027
0.55532
0.592751
0.625883
0.655108
0.680745
0.703117
0.722582
0.739519
0.75428
0.767171
0.778435
0.788282
0.796881
0.80437
0.81086
0.816472
0.821307
0.825454
0.828984
0.831978
0.834509
0.836636
0.838399
0.839865
0.841086
0.842097
0.842915
0.843578
0.844119
0.844555
0.844885
0.845147
0.845363
0.84554
0.845665
0.845758
0.845831
0.845888
0.845908
0.845921
0.845939
0.845961
0.845965
0.845962
0.845965
0.845973
0.845955
0.845943
0.845944
0.845956
0.845954
0.845951
0.845959
0.845976
0.845972
0.845973
0.845986
0.846011
0.84602
0.84603
0.846051
0.846084
0.846097
0.846117
0.846149
0.846192
0.84622
0.846247
0.846284
0.84633
0.846356
0.846386
0.846428
0.846479
0.846516
0.846554
0.846601
0.846655
0.84669
0.846728
0.846774
0.846826
0.846865
0.846906
0.846955
0.847009
0.847048
0.84709
0.84714
0.847194
0.847239
0.847285
0.847335
0.847389
0.847435
0.84748
0.847529
0.847582
0.847629
0.847676
0.847723
0.84777
0.847815
0.847858
0.847899
0.847937
0.847977
0.848002
0.84803
0.847921
0.0363838
0.0361539
0.0333712
0.0242828
0.0277216
0.0624553
0.128384
0.207536
0.285386
0.356586
0.420266
0.476965
0.527467
0.572434
0.612378
0.647755
0.678973
0.706463
0.73067
0.752019
0.770881
0.787554
0.802272
0.815233
0.826611
0.836556
0.845199
0.85268
0.85913
0.864666
0.869386
0.873395
0.876788
0.879645
0.882028
0.884012
0.885664
0.887035
0.888154
0.889067
0.889812
0.890416
0.890887
0.891259
0.891561
0.891806
0.891989
0.892128
0.892236
0.892321
0.892365
0.892394
0.892422
0.892449
0.892459
0.892463
0.892468
0.892477
0.892464
0.892452
0.892451
0.892459
0.892457
0.892455
0.892461
0.892476
0.892474
0.892475
0.892486
0.892507
0.892519
0.89253
0.892551
0.892581
0.892597
0.892617
0.892647
0.892688
0.892719
0.892749
0.892787
0.892833
0.892863
0.892896
0.892938
0.892988
0.893029