/*--------------------------------*- C++ -*----------------------------------*\
  =========                 |
  \\      /  F ield         | OpenFOAM: The Open Source CFD Toolbox
   \\    /   O peration     | Website:  https://openfoam.org
    \\  /    A nd           | Version:  8
     \\/     M anipulation  |
\*---------------------------------------------------------------------------*/
FoamFile
{
    version     2.0;
    format      ascii;
    class       volScalarField;
    location    "100";
    object      p;
}
// * * * * * * * * * * * * * * * * * * * * * * * * * * * * * * * * * * * * * //

dimensions      [0 2 -2 0 0 0 0];

internalField   nonuniform List<scalar> 
7320
(
4743.78
4739.39
4711.47
4657.66
4608.64
4566.05
4526.76
4489.14
4452.81
4417.55
4383.18
4349.56
4316.65
4284.36
4252.61
4221.24
4190.02
4158.65
4126.82
4094.26
4060.92
4026.68
3991.6
3955.67
3919.07
3881.84
3844.09
3805.83
3767.25
3728.35
3689.2
3649.8
3610.26
3570.57
3530.76
3490.78
3450.78
3410.71
3370.59
3330.37
3290.17
3249.94
3209.68
3169.32
3129.02
3088.7
3048.39
3008
2967.67
2927.34
2887
2846.58
2806.22
2765.87
2725.52
2685.12
2644.77
2604.43
2564.09
2523.65
2483.29
2442.94
2402.59
2362.19
2321.84
2281.5
2241.16
2200.72
2160.37
2120.02
2079.68
2039.27
1998.93
1958.59
1918.24
1877.81
1837.45
1797.1
1756.75
1716.35
1676.01
1635.66
1595.3
1554.88
1514.52
1474.16
1433.8
1393.4
1353.05
1312.69
1272.32
1231.9
1191.54
1151.17
1110.8
1070.39
1030.03
989.662
949.286
908.863
868.493
828.112
787.737
747.328
706.955
666.573
626.189
585.776
545.393
505.002
464.615
424.214
383.825
343.432
303.038
262.65
222.248
181.865
141.442
101.107
60.6062
20.4106
4742.98
4739.38
4711.5
4657.67
4608.65
4566.05
4526.76
4489.14
4452.81
4417.55
4383.18
4349.56
4316.65
4284.36
4252.61
4221.23
4190.02
4158.65
4126.82
4094.26
4060.92
4026.68
3991.6
3955.67
3919.07
3881.84
3844.09
3805.83
3767.25
3728.35
3689.2
3649.8
3610.26
3570.57
3530.76
3490.78
3450.78
3410.71
3370.59
3330.37
3290.17
3249.94
3209.68
3169.32
3129.02
3088.7
3048.39
3008
2967.67
2927.34
2887
2846.58
2806.22
2765.87
2725.52
2685.12
2644.77
2604.43
2564.09
2523.65
2483.29
2442.94
2402.59
2362.19
2321.84
2281.5
2241.16
2200.72
2160.37
2120.02
2079.68
2039.27
1998.93
1958.59
1918.24
1877.81
1837.45
1797.1
1756.75
1716.35
1676.01
1635.66
1595.3
1554.88
1514.52
1474.16
1433.8
1393.4
1353.05
1312.69
1272.32
1231.9
1191.54
1151.17
1110.8
1070.39
1030.03
989.662
949.286
908.863
868.493
828.112
787.737
747.328
706.955
666.573
626.189
585.776
545.393
505.002
464.615
424.214
383.825
343.432
303.038
262.65
222.248
181.865
141.442
101.107
60.6061
20.4105
4742.78
4739.4
4711.55
4657.69
4608.65
4566.05
4526.76
4489.14
4452.81
4417.55
4383.18
4349.56
4316.65
4284.36
4252.61
4221.23
4190.02
4158.65
4126.82
4094.26
4060.92
4026.68
3991.6
3955.67
3919.07
3881.84
3844.09
3805.83
3767.25
3728.35
3689.2
3649.8
3610.26
3570.57
3530.76
3490.78
3450.78
3410.71
3370.59
3330.37
3290.17
3249.94
3209.68
3169.32
3129.02
3088.7
3048.39
3008
2967.67
2927.34
2887
2846.58
2806.22
2765.87
2725.53
2685.12
2644.77
2604.43
2564.09
2523.65
2483.29
2442.94
2402.59
2362.19
2321.84
2281.5
2241.16
2200.72
2160.37
2120.02
2079.68
2039.27
1998.93
1958.59
1918.24
1877.81
1837.45
1797.1
1756.75
1716.35
1676.01
1635.66
1595.3
1554.88
1514.52
1474.16
1433.8
1393.4
1353.05
1312.69
1272.32
1231.9
1191.54
1151.17
1110.8
1070.39
1030.03
989.662
949.286
908.863
868.493
828.112
787.737
747.328
706.955
666.573
626.189
585.776
545.393
505.002
464.615
424.214
383.825
343.432
303.038
262.65
222.248
181.865
141.442
101.107
60.6062
20.4106
4742.76
4739.44
4711.62
4657.72
4608.66
4566.06
4526.76
4489.14
4452.81
4417.55
4383.18
4349.56
4316.65
4284.36
4252.61
4221.23
4190.02
4158.64
4126.82
4094.26
4060.92
4026.68
3991.6
3955.67
3919.07
3881.84
3844.09
3805.83
3767.25
3728.35
3689.2
3649.8
3610.26
3570.57
3530.76
3490.78
3450.78
3410.71
3370.59
3330.37
3290.17
3249.94
3209.68
3169.32
3129.02
3088.7
3048.39
3008
2967.67
2927.34
2887
2846.58
2806.22
2765.87
2725.53
2685.12
2644.77
2604.43
2564.09
2523.65
2483.29
2442.94
2402.59
2362.19
2321.84
2281.5
2241.16
2200.72
2160.37
2120.02
2079.68
2039.27
1998.93
1958.59
1918.24
1877.81
1837.45
1797.1
1756.75
1716.35
1676
1635.66
1595.3
1554.88
1514.52
1474.16
1433.8
1393.4
1353.05
1312.69
1272.32
1231.9
1191.54
1151.17
1110.8
1070.39
1030.03
989.662
949.286
908.863
868.493
828.112
787.737
747.328
706.955
666.573
626.189
585.776
545.393
505.002
464.615
424.214
383.825
343.432
303.038
262.65
222.248
181.864
141.442
101.107
60.606
20.4103
4742.74
4739.47
4711.69
4657.76
4608.68
4566.06
4526.77
4489.15
4452.81
4417.55
4383.18
4349.56
4316.65
4284.36
4252.61
4221.23
4190.02
4158.64
4126.82
4094.26
4060.91
4026.68
3991.6
3955.67
3919.07
3881.84
3844.09
3805.83
3767.25
3728.35
3689.2
3649.8
3610.26
3570.57
3530.76
3490.78
3450.78
3410.71
3370.59
3330.37
3290.17
3249.94
3209.68
3169.32
3129.02
3088.7
3048.39
3008
2967.67
2927.34
2887
2846.58
2806.22
2765.87
2725.53
2685.12
2644.77
2604.43
2564.09
2523.65
2483.29
2442.94
2402.6
2362.19
2321.84
2281.5
2241.16
2200.72
2160.37
2120.02
2079.68
2039.27
1998.93
1958.59
1918.24
1877.81
1837.45
1797.1
1756.75
1716.35
1676
1635.66
1595.3
1554.88
1514.52
1474.16
1433.8
1393.4
1353.05
1312.69
1272.32
1231.9
1191.54
1151.17
1110.8
1070.39
1030.03
989.662
949.286
908.863
868.492
828.112
787.737
747.328
706.955
666.573
626.189
585.776
545.393
505.002
464.615
424.214
383.825
343.432
303.038
262.65
222.248
181.864
141.442
101.107
60.6063
20.4105
4742.7
4739.51
4711.78
4657.79
4608.69
4566.07
4526.77
4489.15
4452.82
4417.55
4383.18
4349.56
4316.65
4284.35
4252.61
4221.23
4190.02
4158.64
4126.81
4094.26
4060.91
4026.68
3991.6
3955.67
3919.07
3881.84
3844.09
3805.83
3767.25
3728.35
3689.2
3649.8
3610.26
3570.57
3530.76
3490.78
3450.78
3410.71
3370.59
3330.37
3290.17
3249.94
3209.68
3169.32
3129.02
3088.7
3048.39
3008
2967.67
2927.34
2887
2846.58
2806.22
2765.87
2725.53
2685.12
2644.77
2604.43
2564.09
2523.65
2483.29
2442.94
2402.6
2362.19
2321.84
2281.5
2241.16
2200.72
2160.37
2120.02
2079.68
2039.27
1998.93
1958.59
1918.24
1877.81
1837.45
1797.1
1756.75
1716.35
1676
1635.66
1595.3
1554.88
1514.52
1474.16
1433.8
1393.4
1353.05
1312.69
1272.32
1231.9
1191.54
1151.17
1110.8
1070.39
1030.03
989.662
949.286
908.863
868.492
828.112
787.737
747.328
706.955
666.573
626.19
585.776
545.393
505.002
464.615
424.214
383.825
343.432
303.038
262.65
222.248
181.864
141.442
101.107
60.6058
20.41
4742.66
4739.56
4711.87
4657.84
4608.71
4566.08
4526.77
4489.15
4452.82
4417.55
4383.18
4349.56
4316.65
4284.35
4252.61
4221.23
4190.02
4158.64
4126.81
4094.26
4060.91
4026.68
3991.6
3955.67
3919.07
3881.84
3844.09
3805.83
3767.25
3728.35
3689.2
3649.8
3610.26
3570.57
3530.76
3490.78
3450.78
3410.71
3370.59
3330.37
3290.17
3249.94
3209.68
3169.32
3129.02
3088.7
3048.39
3008
2967.67
2927.34
2887
2846.58
2806.22
2765.87
2725.53
2685.12
2644.77
2604.43
2564.09
2523.65
2483.29
2442.94
2402.6
2362.19
2321.84
2281.5
2241.16
2200.72
2160.37
2120.02
2079.68
2039.27
1998.93
1958.59
1918.24
1877.81
1837.45
1797.1
1756.75
1716.35
1676
1635.66
1595.3
1554.88
1514.52
1474.16
1433.8
1393.4
1353.05
1312.69
1272.32
1231.9
1191.54
1151.17
1110.8
1070.39
1030.03
989.662
949.286
908.863
868.492
828.112
787.737
747.328
706.955
666.573
626.19
585.776
545.393
505.002
464.615
424.214
383.824
343.432
303.038
262.65
222.248
181.864
141.442
101.107
60.6062
20.4105
4742.64
4739.6
4711.97
4657.89
4608.73
4566.09
4526.78
4489.15
4452.82
4417.55
4383.18
4349.56
4316.65
4284.35
4252.61
4221.23
4190.01
4158.64
4126.81
4094.26
4060.91
4026.68
3991.59
3955.67
3919.07
3881.84
3844.09
3805.83
3767.25
3728.35
3689.2
3649.8
3610.26
3570.57
3530.76
3490.78
3450.78
3410.71
3370.59
3330.37
3290.17
3249.94
3209.68
3169.32
3129.02
3088.7
3048.39
3008
2967.67
2927.34
2887
2846.58
2806.22
2765.87
2725.53
2685.12
2644.77
2604.43
2564.09
2523.65
2483.29
2442.94
2402.6
2362.19
2321.84
2281.5
2241.16
2200.72
2160.37
2120.02
2079.68
2039.27
1998.93
1958.59
1918.24
1877.81
1837.45
1797.1
1756.75
1716.35
1676
1635.66
1595.3
1554.88
1514.52
1474.16
1433.8
1393.4
1353.05
1312.69
1272.33
1231.9
1191.53
1151.17
1110.8
1070.39
1030.03
989.662
949.286
908.863
868.492
828.112
787.737
747.328
706.955
666.573
626.19
585.776
545.393
505.002
464.615
424.214
383.824
343.432
303.038
262.65
222.248
181.864
141.442
101.107
60.6056
20.4096
4742.62
4739.64
4712.08
4657.96
4608.76
4566.1
4526.79
4489.16
4452.82
4417.55
4383.18
4349.56
4316.64
4284.35
4252.6
4221.22
4190.01
4158.64
4126.81
4094.25
4060.91
4026.68
3991.59
3955.67
3919.07
3881.84
3844.09
3805.83
3767.25
3728.35
3689.2
3649.8
3610.26
3570.57
3530.76
3490.78
3450.78
3410.71
3370.59
3330.37
3290.17
3249.94
3209.68
3169.32
3129.02
3088.7
3048.39
3008
2967.67
2927.34
2887
2846.58
2806.22
2765.87
2725.53
2685.12
2644.77
2604.43
2564.09
2523.65
2483.29
2442.94
2402.6
2362.19
2321.84
2281.5
2241.16
2200.72
2160.37
2120.02
2079.68
2039.27
1998.93
1958.59
1918.24
1877.81
1837.45
1797.1
1756.75
1716.35
1676
1635.66
1595.3
1554.88
1514.52
1474.16
1433.8
1393.4
1353.05
1312.69
1272.33
1231.9
1191.53
1151.17
1110.8
1070.39
1030.03
989.662
949.287
908.863
868.492
828.112
787.737
747.328
706.954
666.573
626.19
585.776
545.393
505.002
464.615
424.214
383.824
343.432
303.038
262.65
222.248
181.864
141.442
101.107
60.6061
20.4103
4742.61
4739.67
4712.18
4658.03
4608.79
4566.12
4526.79
4489.16
4452.82
4417.55
4383.18
4349.56
4316.64
4284.35
4252.6
4221.22
4190.01
4158.63
4126.81
4094.25
4060.91
4026.67
3991.59
3955.67
3919.07
3881.84
3844.09
3805.83
3767.25
3728.35
3689.2
3649.8
3610.26
3570.57
3530.76
3490.78
3450.78
3410.71
3370.59
3330.37
3290.17
3249.94
3209.68
3169.32
3129.02
3088.7
3048.39
3008
2967.67
2927.34
2887
2846.58
2806.22
2765.87
2725.53
2685.12
2644.77
2604.43
2564.09
2523.65
2483.29
2442.94
2402.6
2362.19
2321.84
2281.5
2241.16
2200.72
2160.37
2120.02
2079.68
2039.27
1998.93
1958.59
1918.24
1877.81
1837.45
1797.1
1756.75
1716.35
1676
1635.66
1595.3
1554.88
1514.52
1474.16
1433.8
1393.4
1353.05
1312.69
1272.33
1231.9
1191.53
1151.17
1110.8
1070.39
1030.03
989.662
949.287
908.863
868.492
828.112
787.737
747.328
706.954
666.573
626.19
585.776
545.393
505.002
464.615
424.213
383.824
343.432
303.038
262.65
222.248
181.864
141.442
101.107
60.6053
20.4091
4742.59
4739.69
4712.28
4658.12
4608.84
4566.14
4526.81
4489.17
4452.83
4417.55
4383.18
4349.55
4316.64
4284.35
4252.6
4221.22
4190.01
4158.63
4126.81
4094.25
4060.91
4026.67
3991.59
3955.67
3919.07
3881.84
3844.09
3805.83
3767.25
3728.35
3689.2
3649.8
3610.26
3570.57
3530.76
3490.78
3450.78
3410.71
3370.59
3330.37
3290.17
3249.94
3209.68
3169.32
3129.02
3088.7
3048.39
3008
2967.67
2927.34
2887.01
2846.58
2806.22
2765.87
2725.53
2685.12
2644.77
2604.43
2564.09
2523.65
2483.29
2442.94
2402.6
2362.19
2321.84
2281.5
2241.16
2200.72
2160.37
2120.02
2079.68
2039.27
1998.93
1958.59
1918.24
1877.81
1837.45
1797.1
1756.75
1716.35
1676
1635.66
1595.3
1554.87
1514.52
1474.16
1433.8
1393.4
1353.05
1312.69
1272.33
1231.9
1191.53
1151.17
1110.8
1070.39
1030.03
989.662
949.287
908.863
868.492
828.112
787.737
747.328
706.954
666.573
626.19
585.776
545.392
505.002
464.615
424.213
383.824
343.432
303.038
262.65
222.248
181.864
141.441
101.107
60.6059
20.4102
4742.57
4739.69
4712.37
4658.23
4608.89
4566.17
4526.82
4489.18
4452.83
4417.55
4383.18
4349.55
4316.64
4284.34
4252.6
4221.22
4190
4158.63
4126.8
4094.25
4060.91
4026.67
3991.59
3955.67
3919.07
3881.84
3844.09
3805.83
3767.25
3728.35
3689.2
3649.8
3610.26
3570.57
3530.76
3490.78
3450.78
3410.71
3370.59
3330.37
3290.17
3249.94
3209.68
3169.32
3129.02
3088.7
3048.39
3008
2967.67
2927.34
2887.01
2846.58
2806.22
2765.87
2725.53
2685.12
2644.77
2604.43
2564.09
2523.65
2483.29
2442.94
2402.6
2362.19
2321.84
2281.51
2241.16
2200.72
2160.37
2120.02
2079.68
2039.27
1998.93
1958.59
1918.24
1877.81
1837.45
1797.1
1756.75
1716.35
1676
1635.66
1595.3
1554.87
1514.52
1474.16
1433.8
1393.4
1353.05
1312.69
1272.33
1231.9
1191.53
1151.17
1110.8
1070.39
1030.03
989.662
949.287
908.863
868.492
828.111
787.737
747.328
706.954
666.573
626.19
585.775
545.392
505.001
464.615
424.213
383.824
343.432
303.038
262.65
222.247
181.864
141.441
101.107
60.605
20.4084
4742.55
4739.68
4712.45
4658.35
4608.96
4566.2
4526.84
4489.19
4452.84
4417.56
4383.18
4349.56
4316.64
4284.34
4252.59
4221.21
4190
4158.63
4126.8
4094.25
4060.9
4026.67
3991.59
3955.67
3919.07
3881.84
3844.09
3805.83
3767.25
3728.35
3689.2
3649.8
3610.25
3570.57
3530.76
3490.78
3450.78
3410.71
3370.59
3330.37
3290.17
3249.94
3209.68
3169.32
3129.02
3088.7
3048.39
3008
2967.67
2927.34
2887.01
2846.58
2806.22
2765.87
2725.53
2685.12
2644.77
2604.43
2564.09
2523.65
2483.29
2442.94
2402.6
2362.19
2321.84
2281.51
2241.16
2200.72
2160.37
2120.02
2079.68
2039.27
1998.93
1958.59
1918.24
1877.81
1837.45
1797.1
1756.75
1716.35
1676
1635.66
1595.3
1554.87
1514.52
1474.16
1433.8
1393.4
1353.05
1312.69
1272.33
1231.9
1191.53
1151.17
1110.8
1070.39
1030.03
989.662
949.287
908.863
868.492
828.111
787.737
747.328
706.954
666.573
626.19
585.775
545.392
505.001
464.615
424.213
383.824
343.432
303.038
262.65
222.247
181.864
141.441
101.107
60.6055
20.4098
4742.5
4739.66
4712.5
4658.49
4609.05
4566.25
4526.87
4489.21
4452.85
4417.57
4383.19
4349.56
4316.64
4284.34
4252.59
4221.21
4190
4158.62
4126.8
4094.24
4060.9
4026.67
3991.59
3955.66
3919.07
3881.84
3844.09
3805.83
3767.25
3728.35
3689.2
3649.79
3610.25
3570.57
3530.76
3490.78
3450.78
3410.71
3370.59
3330.37
3290.17
3249.94
3209.68
3169.32
3129.02
3088.7
3048.39
3008
2967.67
2927.34
2887.01
2846.58
2806.22
2765.87
2725.53
2685.12
2644.77
2604.43
2564.09
2523.65
2483.29
2442.94
2402.6
2362.19
2321.84
2281.51
2241.16
2200.72
2160.37
2120.02
2079.68
2039.27
1998.93
1958.59
1918.24
1877.81
1837.45
1797.1
1756.75
1716.35
1676
1635.66
1595.3
1554.87
1514.52
1474.16
1433.8
1393.4
1353.05
1312.69
1272.33
1231.9
1191.53
1151.17
1110.8
1070.39
1030.03
989.662
949.287
908.863
868.492
828.111
787.737
747.327
706.954
666.573
626.19
585.775
545.392
505.001
464.615
424.213
383.824
343.432
303.038
262.65
222.247
181.864
141.441
101.107
60.6047
20.4077
4742.44
4739.6
4712.52
4658.65
4609.16
4566.31
4526.91
4489.23
4452.87
4417.58
4383.19
4349.56
4316.64
4284.34
4252.59
4221.21
4189.99
4158.62
4126.79
4094.24
4060.9
4026.66
3991.58
3955.66
3919.06
3881.84
3844.09
3805.83
3767.25
3728.34
3689.2
3649.79
3610.25
3570.57
3530.76
3490.78
3450.78
3410.71
3370.59
3330.37
3290.17
3249.94
3209.68
3169.32
3129.02
3088.7
3048.39
3008
2967.67
2927.34
2887.01
2846.58
2806.22
2765.87
2725.53
2685.12
2644.77
2604.43
2564.09
2523.65
2483.29
2442.94
2402.6
2362.19
2321.84
2281.51
2241.16
2200.72
2160.37
2120.02
2079.68
2039.27
1998.93
1958.59
1918.24
1877.81
1837.45
1797.1
1756.75
1716.35
1676
1635.66
1595.3
1554.87
1514.52
1474.16
1433.8
1393.4
1353.05
1312.69
1272.33
1231.9
1191.53
1151.17
1110.8
1070.39
1030.03
989.662
949.287
908.863
868.491
828.111
787.737
747.327
706.954
666.573
626.19
585.775
545.392
505.001
464.615
424.213
383.824
343.431
303.038
262.65
222.247
181.864
141.441
101.107
60.6051
20.4096
4742.35
4739.52
4712.5
4658.82
4609.3
4566.4
4526.96
4489.26
4452.89
4417.59
4383.2
4349.57
4316.64
4284.34
4252.59
4221.2
4189.99
4158.61
4126.79
4094.24
4060.89
4026.66
3991.58
3955.66
3919.06
3881.84
3844.09
3805.83
3767.25
3728.34
3689.2
3649.79
3610.25
3570.57
3530.76
3490.78
3450.78
3410.71
3370.59
3330.37
3290.17
3249.94
3209.69
3169.32
3129.02
3088.7
3048.39
3008
2967.67
2927.34
2887.01
2846.58
2806.22
2765.87
2725.53
2685.12
2644.77
2604.43
2564.09
2523.65
2483.29
2442.94
2402.6
2362.19
2321.84
2281.51
2241.16
2200.72
2160.37
2120.02
2079.68
2039.27
1998.93
1958.59
1918.24
1877.81
1837.45
1797.1
1756.75
1716.35
1676
1635.66
1595.3
1554.87
1514.52
1474.16
1433.8
1393.4
1353.05
1312.69
1272.33
1231.9
1191.53
1151.17
1110.8
1070.39
1030.03
989.662
949.287
908.863
868.491
828.111
787.737
747.327
706.954
666.573
626.19
585.775
545.392
505.001
464.615
424.213
383.824
343.431
303.038
262.65
222.247
181.863
141.441
101.107
60.6042
20.4069
4742.25
4739.39
4712.44
4659
4609.47
4566.5
4527.03
4489.31
4452.92
4417.61
4383.22
4349.58
4316.65
4284.34
4252.59
4221.2
4189.99
4158.61
4126.79
4094.23
4060.89
4026.66
3991.58
3955.66
3919.06
3881.84
3844.09
3805.83
3767.25
3728.34
3689.2
3649.79
3610.25
3570.57
3530.76
3490.78
3450.78
3410.7
3370.59
3330.37
3290.17
3249.94
3209.69
3169.32
3129.02
3088.7
3048.39
3008
2967.67
2927.34
2887.01
2846.58
2806.22
2765.87
2725.53
2685.12
2644.77
2604.43
2564.09
2523.65
2483.29
2442.94
2402.6
2362.19
2321.84
2281.51
2241.16
2200.72
2160.37
2120.02
2079.68
2039.27
1998.93
1958.59
1918.24
1877.81
1837.45
1797.1
1756.75
1716.35
1676
1635.66
1595.3
1554.88
1514.52
1474.16
1433.8
1393.4
1353.05
1312.69
1272.33
1231.9
1191.53
1151.17
1110.8
1070.39
1030.03
989.662
949.287
908.863
868.491
828.111
787.737
747.327
706.954
666.573
626.19
585.775
545.392
505.001
464.615
424.213
383.824
343.431
303.037
262.65
222.247
181.864
141.441
101.107
60.6046
20.4091
4742.12
4739.22
4712.32
4659.2
4609.67
4566.64
4527.11
4489.37
4452.96
4417.64
4383.24
4349.59
4316.66
4284.35
4252.59
4221.2
4189.98
4158.61
4126.78
4094.23
4060.89
4026.65
3991.58
3955.66
3919.06
3881.83
3844.09
3805.83
3767.25
3728.34
3689.2
3649.79
3610.25
3570.57
3530.76
3490.78
3450.78
3410.7
3370.59
3330.37
3290.17
3249.94
3209.69
3169.32
3129.02
3088.7
3048.39
3008
2967.67
2927.34
2887.01
2846.58
2806.22
2765.87
2725.53
2685.12
2644.77
2604.43
2564.09
2523.65
2483.29
2442.94
2402.6
2362.19
2321.84
2281.5
2241.16
2200.72
2160.37
2120.02
2079.68
2039.27
1998.93
1958.59
1918.24
1877.81
1837.45
1797.1
1756.75
1716.35
1676
1635.66
1595.3
1554.88
1514.52
1474.16
1433.8
1393.4
1353.05
1312.69
1272.33
1231.9
1191.53
1151.17
1110.8
1070.39
1030.03
989.662
949.287
908.863
868.491
828.111
787.737
747.327
706.954
666.573
626.19
585.775
545.392
505.001
464.615
424.213
383.824
343.431
303.037
262.65
222.247
181.863
141.441
101.107
60.6038
20.406
4741.97
4738.97
4712.15
4659.38
4609.9
4566.81
4527.23
4489.45
4453.02
4417.68
4383.27
4349.61
4316.67
4284.36
4252.6
4221.2
4189.98
4158.6
4126.78
4094.22
4060.88
4026.65
3991.57
3955.65
3919.06
3881.83
3844.08
3805.82
3767.25
3728.34
3689.2
3649.79
3610.25
3570.57
3530.76
3490.78
3450.78
3410.7
3370.59
3330.37
3290.17
3249.94
3209.68
3169.32
3129.02
3088.7
3048.39
3008
2967.67
2927.34
2887.01
2846.58
2806.22
2765.87
2725.53
2685.12
2644.77
2604.43
2564.09
2523.65
2483.29
2442.94
2402.6
2362.19
2321.84
2281.5
2241.16
2200.72
2160.37
2120.02
2079.68
2039.27
1998.93
1958.59
1918.24
1877.81
1837.45
1797.1
1756.75
1716.35
1676
1635.66
1595.3
1554.88
1514.52
1474.16
1433.8
1393.4
1353.05
1312.69
1272.33
1231.9
1191.53
1151.17
1110.8
1070.39
1030.03
989.662
949.287
908.863
868.491
828.111
787.737
747.328
706.954
666.573
626.19
585.776
545.392
505.001
464.615
424.213
383.824
343.431
303.037
262.65
222.247
181.863
141.441
101.107
60.6041
20.4086
4741.8
4738.65
4711.93
4659.56
4610.15
4567.01
4527.37
4489.55
4453.09
4417.74
4383.31
4349.65
4316.7
4284.37
4252.61
4221.21
4189.98
4158.6
4126.77
4094.22
4060.88
4026.65
3991.57
3955.65
3919.05
3881.83
3844.08
3805.82
3767.24
3728.34
3689.2
3649.79
3610.25
3570.57
3530.76
3490.78
3450.78
3410.7
3370.59
3330.37
3290.17
3249.94
3209.68
3169.33
3129.02
3088.7
3048.39
3008
2967.67
2927.34
2887.01
2846.58
2806.22
2765.87
2725.53
2685.12
2644.77
2604.43
2564.09
2523.65
2483.29
2442.94
2402.6
2362.19
2321.84
2281.5
2241.16
2200.72
2160.37
2120.02
2079.68
2039.27
1998.93
1958.59
1918.24
1877.81
1837.45
1797.1
1756.75
1716.35
1676
1635.66
1595.3
1554.88
1514.52
1474.16
1433.8
1393.4
1353.05
1312.69
1272.33
1231.9
1191.53
1151.17
1110.8
1070.39
1030.03
989.662
949.287
908.863
868.492
828.111
787.737
747.328
706.954
666.572
626.19
585.776
545.392
505.001
464.615
424.213
383.824
343.431
303.037
262.65
222.247
181.863
141.441
101.106
60.6035
20.4052
4741.59
4738.24
4711.64
4659.73
4610.43
4567.26
4527.56
4489.68
4453.19
4417.81
4383.37
4349.69
4316.73
4284.4
4252.62
4221.22
4189.99
4158.6
4126.77
4094.22
4060.87
4026.64
3991.57
3955.65
3919.05
3881.83
3844.08
3805.82
3767.24
3728.34
3689.2
3649.79
3610.25
3570.57
3530.76
3490.78
3450.78
3410.7
3370.59
3330.37
3290.17
3249.94
3209.68
3169.33
3129.02
3088.7
3048.39
3008
2967.67
2927.34
2887.01
2846.58
2806.22
2765.87
2725.53
2685.12
2644.77
2604.43
2564.09
2523.65
2483.29
2442.94
2402.6
2362.19
2321.84
2281.5
2241.16
2200.73
2160.37
2120.02
2079.68
2039.27
1998.93
1958.59
1918.24
1877.81
1837.45
1797.1
1756.75
1716.35
1676
1635.66
1595.3
1554.88
1514.52
1474.16
1433.8
1393.4
1353.05
1312.69
1272.33
1231.9
1191.53
1151.17
1110.8
1070.39
1030.03
989.662
949.287
908.864
868.492
828.111
787.736
747.328
706.954
666.572
626.19
585.776
545.392
505.001
464.615
424.213
383.824
343.431
303.037
262.65
222.247
181.864
141.441
101.106
60.6038
20.4085
4741.36
4737.73
4711.29
4659.9
4610.72
4567.54
4527.78
4489.86
4453.32
4417.92
4383.45
4349.75
4316.78
4284.44
4252.65
4221.24
4190
4158.61
4126.77
4094.22
4060.87
4026.64
3991.56
3955.65
3919.05
3881.83
3844.08
3805.82
3767.24
3728.34
3689.2
3649.79
3610.25
3570.57
3530.76
3490.78
3450.78
3410.7
3370.59
3330.37
3290.17
3249.94
3209.68
3169.33
3129.02
3088.7
3048.39
3008
2967.67
2927.34
2887
2846.58
2806.22
2765.87
2725.52
2685.12
2644.77
2604.43
2564.09
2523.65
2483.29
2442.94
2402.59
2362.19
2321.84
2281.5
2241.16
2200.73
2160.37
2120.02
2079.68
2039.27
1998.93
1958.59
1918.24
1877.81
1837.45
1797.1
1756.75
1716.35
1676
1635.66
1595.3
1554.88
1514.52
1474.16
1433.8
1393.4
1353.05
1312.69
1272.33
1231.9
1191.53
1151.17
1110.8
1070.39
1030.03
989.662
949.287
908.864
868.492
828.111
787.736
747.328
706.954
666.572
626.19
585.776
545.392
505.001
464.615
424.213
383.824
343.431
303.038
262.65
222.247
181.863
141.441
101.106
60.6036
20.4045
4741.08
4737.15
4710.86
4660.07
4611.02
4567.85
4528.05
4490.07
4453.49
4418.05
4383.55
4349.84
4316.85
4284.49
4252.69
4221.27
4190.02
4158.62
4126.78
4094.22
4060.87
4026.64
3991.56
3955.65
3919.05
3881.83
3844.08
3805.82
3767.24
3728.34
3689.2
3649.79
3610.25
3570.57
3530.76
3490.78
3450.78
3410.7
3370.59
3330.37
3290.17
3249.94
3209.68
3169.33
3129.02
3088.7
3048.38
3008
2967.67
2927.34
2887
2846.58
2806.22
2765.87
2725.52
2685.12
2644.77
2604.43
2564.09
2523.65
2483.29
2442.94
2402.59
2362.19
2321.84
2281.5
2241.16
2200.73
2160.37
2120.02
2079.68
2039.27
1998.93
1958.59
1918.24
1877.81
1837.45
1797.1
1756.75
1716.35
1676
1635.66
1595.3
1554.88
1514.52
1474.16
1433.8
1393.4
1353.05
1312.69
1272.33
1231.9
1191.54
1151.17
1110.8
1070.39
1030.03
989.662
949.287
908.865
868.492
828.111
787.736
747.329
706.954
666.572
626.19
585.777
545.393
505.001
464.615
424.214
383.824
343.432
303.038
262.65
222.247
181.864
141.441
101.106
60.6042
20.408
4740.78
4736.51
4710.32
4660.24
4611.31
4568.17
4528.36
4490.33
4453.71
4418.22
4383.7
4349.96
4316.94
4284.57
4252.75
4221.32
4190.06
4158.65
4126.8
4094.23
4060.88
4026.65
3991.57
3955.65
3919.05
3881.83
3844.08
3805.83
3767.25
3728.34
3689.2
3649.8
3610.25
3570.57
3530.76
3490.78
3450.78
3410.71
3370.59
3330.37
3290.17
3249.94
3209.68
3169.33
3129.02
3088.7
3048.38
3008
2967.67
2927.34
2887
2846.58
2806.22
2765.87
2725.52
2685.12
2644.77
2604.43
2564.08
2523.65
2483.29
2442.94
2402.59
2362.19
2321.84
2281.5
2241.16
2200.73
2160.37
2120.02
2079.68
2039.28
1998.93
1958.59
1918.24
1877.81
1837.45
1797.1
1756.75
1716.35
1676
1635.66
1595.3
1554.88
1514.52
1474.16
1433.8
1393.4
1353.05
1312.69
1272.32
1231.9
1191.54
1151.17
1110.8
1070.39
1030.03
989.661
949.286
908.865
868.493
828.111
787.736
747.329
706.954
666.572
626.189
585.777
545.393
505.001
464.615
424.214
383.824
343.432
303.038
262.65
222.248
181.864
141.442
101.105
60.6047
20.404
4740.43
4735.81
4709.72
4660.38
4611.61
4568.49
4528.69
4490.63
4453.96
4418.44
4383.88
4350.11
4317.08
4284.68
4252.84
4221.39
4190.12
4158.7
4126.83
4094.26
4060.9
4026.66
3991.58
3955.66
3919.06
3881.84
3844.09
3805.83
3767.25
3728.35
3689.2
3649.8
3610.26
3570.57
3530.76
3490.79
3450.78
3410.71
3370.59
3330.38
3290.17
3249.94
3209.68
3169.33
3129.02
3088.7
3048.38
3008
2967.67
2927.34
2887
2846.58
2806.22
2765.87
2725.52
2685.12
2644.77
2604.43
2564.08
2523.65
2483.29
2442.94
2402.59
2362.19
2321.84
2281.5
2241.16
2200.73
2160.37
2120.02
2079.67
2039.28
1998.93
1958.59
1918.24
1877.81
1837.45
1797.1
1756.75
1716.35
1676
1635.66
1595.3
1554.88
1514.52
1474.16
1433.8
1393.4
1353.05
1312.69
1272.32
1231.9
1191.54
1151.17
1110.8
1070.39
1030.03
989.661
949.286
908.866
868.493
828.111
787.736
747.33
706.955
666.572
626.189
585.778
545.393
505.002
464.615
424.214
383.825
343.432
303.038
262.65
222.248
181.864
141.442
101.105
60.6061
20.4076
4740.06
4735.06
4709.07
4660.49
4611.87
4568.79
4529.02
4490.97
4454.27
4418.71
4384.11
4350.31
4317.25
4284.83
4252.97
4221.5
4190.21
4158.77
4126.89
4094.31
4060.94
4026.7
3991.61
3955.68
3919.08
3881.85
3844.1
3805.85
3767.26
3728.36
3689.21
3649.81
3610.26
3570.57
3530.77
3490.79
3450.79
3410.71
3370.59
3330.38
3290.17
3249.94
3209.68
3169.33
3129.02
3088.7
3048.38
3008.01
2967.67
2927.34
2887
2846.58
2806.22
2765.87
2725.52
2685.12
2644.77
2604.43
2564.08
2523.66
2483.29
2442.94
2402.59
2362.19
2321.84
2281.5
2241.15
2200.73
2160.37
2120.02
2079.67
2039.28
1998.93
1958.59
1918.24
1877.81
1837.45
1797.1
1756.75
1716.35
1676.01
1635.66
1595.3
1554.88
1514.52
1474.16
1433.8
1393.4
1353.05
1312.69
1272.32
1231.9
1191.54
1151.16
1110.8
1070.39
1030.03
989.66
949.285
908.867
868.493
828.111
787.736
747.33
706.955
666.572
626.189
585.778
545.393
505.002
464.615
424.215
383.825
343.432
303.038
262.65
222.248
181.864
141.442
101.104
60.6077
20.4037
4739.68
4734.3
4708.42
4660.58
4612.1
4569.04
4529.3
4491.29
4454.61
4419.03
4384.4
4350.57
4317.47
4285.03
4253.14
4221.65
4190.34
4158.88
4126.99
4094.39
4061.01
4026.75
3991.65
3955.72
3919.12
3881.88
3844.13
3805.87
3767.28
3728.37
3689.22
3649.82
3610.27
3570.58
3530.77
3490.8
3450.79
3410.71
3370.59
3330.38
3290.17
3249.94
3209.68
3169.33
3129.02
3088.7
3048.38
3008.01
2967.67
2927.34
2887
2846.58
2806.22
2765.87
2725.52
2685.12
2644.77
2604.43
2564.08
2523.66
2483.29
2442.94
2402.59
2362.19
2321.84
2281.5
2241.15
2200.73
2160.37
2120.02
2079.67
2039.28
1998.93
1958.59
1918.24
1877.82
1837.46
1797.1
1756.75
1716.35
1676.01
1635.66
1595.3
1554.88
1514.52
1474.16
1433.8
1393.4
1353.05
1312.69
1272.32
1231.9
1191.54
1151.16
1110.8
1070.4
1030.03
989.66
949.285
908.869
868.494
828.111
787.735
747.331
706.955
666.572
626.189
585.779
545.394
505.002
464.615
424.215
383.825
343.433
303.038
262.65
222.248
181.864
141.443
101.103
60.6104
20.4053
4739.31
4733.57
4707.81
4660.66
4612.3
4569.24
4529.5
4491.53
4454.9
4419.36
4384.74
4350.88
4317.76
4285.29
4253.38
4221.86
4190.52
4159.04
4127.13
4094.51
4061.11
4026.84
3991.73
3955.79
3919.17
3881.93
3844.16
3805.91
3767.31
3728.4
3689.24
3649.84
3610.29
3570.59
3530.78
3490.81
3450.8
3410.72
3370.6
3330.39
3290.18
3249.94
3209.68
3169.34
3129.03
3088.7
3048.38
3008.01
2967.67
2927.34
2887
2846.59
2806.23
2765.87
2725.52
2685.12
2644.77
2604.43
2564.08
2523.66
2483.3
2442.94
2402.59
2362.19
2321.84
2281.5
2241.15
2200.73
2160.37
2120.02
2079.67
2039.28
1998.93
1958.58
1918.23
1877.82
1837.46
1797.1
1756.75
1716.36
1676.01
1635.65
1595.3
1554.88
1514.52
1474.16
1433.8
1393.4
1353.05
1312.69
1272.32
1231.91
1191.54
1151.16
1110.8
1070.4
1030.03
989.659
949.284
908.87
868.494
828.111
787.735
747.332
706.955
666.572
626.188
585.78
545.394
505.002
464.615
424.216
383.825
343.433
303.038
262.65
222.249
181.864
141.444
101.101
60.6134
20.4023
4738.99
4732.95
4707.29
4660.74
4612.48
4569.39
4529.65
4491.67
4455.05
4419.57
4385.01
4351.22
4318.11
4285.62
4253.69
4222.15
4190.79
4159.28
4127.34
4094.69
4061.27
4026.97
3991.84
3955.88
3919.25
3881.99
3844.22
3805.95
3767.35
3728.43
3689.27
3649.86
3610.31
3570.61
3530.79
3490.82
3450.81
3410.73
3370.6
3330.39
3290.18
3249.94
3209.68
3169.34
3129.03
3088.7
3048.38
3008.01
2967.67
2927.34
2886.99
2846.59
2806.23
2765.87
2725.52
2685.13
2644.77
2604.42
2564.08
2523.66
2483.3
2442.94
2402.59
2362.2
2321.84
2281.5
2241.15
2200.74
2160.37
2120.02
2079.67
2039.28
1998.93
1958.58
1918.23
1877.82
1837.46
1797.1
1756.75
1716.36
1676.01
1635.65
1595.3
1554.89
1514.52
1474.16
1433.8
1393.4
1353.05
1312.69
1272.32
1231.91
1191.54
1151.16
1110.8
1070.4
1030.03
989.658
949.283
908.872
868.495
828.111
787.735
747.333
706.956
666.571
626.188
585.781
545.395
505.003
464.615
424.216
383.826
343.433
303.038
262.65
222.249
181.865
141.444
101.1
60.6168
20.399
4738.8
4732.56
4706.96
4660.8
4612.6
4569.5
4529.74
4491.75
4455.14
4419.66
4385.13
4351.37
4318.32
4285.89
4254
4222.48
4191.1
4159.56
4127.58
4094.9
4061.44
4027.11
3991.95
3955.97
3919.32
3882.05
3844.26
3805.99
3767.38
3728.46
3689.29
3649.88
3610.32
3570.62
3530.8
3490.83
3450.82
3410.73
3370.61
3330.4
3290.19
3249.94
3209.68
3169.34
3129.03
3088.7
3048.38
3008.01
2967.67
2927.33
2886.99
2846.59
2806.23
2765.87
2725.52
2685.13
2644.77
2604.42
2564.07
2523.66
2483.3
2442.94
2402.59
2362.2
2321.84
2281.49
2241.15
2200.74
2160.38
2120.02
2079.67
2039.28
1998.93
1958.58
1918.23
1877.82
1837.46
1797.1
1756.75
1716.36
1676.01
1635.65
1595.3
1554.89
1514.52
1474.16
1433.8
1393.41
1353.05
1312.68
1272.32
1231.91
1191.54
1151.16
1110.8
1070.4
1030.03
989.657
949.282
908.873
868.495
828.111
787.734
747.334
706.956
666.571
626.187
585.782
545.395
505.003
464.615
424.217
383.826
343.433
303.038
262.65
222.25
181.865
141.445
101.099
60.6192
20.3966
4738.82
4732.57
4706.94
4660.78
4612.6
4569.5
4529.74
4491.75
4455.14
4419.66
4385.13
4351.37
4318.32
4285.89
4254.01
4222.48
4191.1
4159.56
4127.58
4094.9
4061.44
4027.11
3991.95
3955.98
3919.32
3882.05
3844.26
3806
3767.39
3728.46
3689.29
3649.88
3610.32
3570.62
3530.8
3490.83
3450.82
3410.73
3370.61
3330.4
3290.19
3249.94
3209.68
3169.34
3129.03
3088.7
3048.38
3008.02
2967.67
2927.33
2886.99
2846.59
2806.23
2765.87
2725.52
2685.13
2644.77
2604.42
2564.07
2523.66
2483.3
2442.94
2402.59
2362.2
2321.84
2281.49
2241.15
2200.74
2160.38
2120.01
2079.67
2039.28
1998.93
1958.58
1918.23
1877.82
1837.46
1797.1
1756.75
1716.36
1676.01
1635.65
1595.29
1554.89
1514.52
1474.16
1433.8