/*--------------------------------*- C++ -*----------------------------------*\
  =========                 |
  \\      /  F ield         | OpenFOAM: The Open Source CFD Toolbox
   \\    /   O peration     | Website:  https://openfoam.org
    \\  /    A nd           | Version:  8
     \\/     M anipulation  |
\*---------------------------------------------------------------------------*/
FoamFile
{
    version     2.0;
    format      ascii;
    class       surfaceScalarField;
    location    "100";
    object      phi;
}
// * * * * * * * * * * * * * * * * * * * * * * * * * * * * * * * * * * * * * //

dimensions      [0 3 -1 0 0 0 0];

internalField   nonuniform List<scalar> 
14458
(
0.0022081
0.00141742
0.00180358
0.000407015
0.00138894
0.000416576
0.00120736
0.000182883
0.0011471
6.12141e-05
0.00112451
2.32145e-05
0.00111424
1.14537e-05
0.00110962
5.45416e-06
0.00110836
1.76431e-06
0.00110932
-8.11939e-07
0.00111188
-9.80152e-07
0.0011157
-2.67804e-06
0.00112032
-3.90996e-06
0.00112528
-4.76186e-06
0.00113035
-3.57482e-06
0.00113541
-4.16307e-06
0.00114022
-4.48792e-06
0.00114439
-4.51208e-06
0.00114797
-1.4915e-06
0.00115121
-1.9011e-06
0.00115401
-2.17896e-06
0.00115622
-2.40928e-06
0.00115798
-8.65714e-08
0.00115952
-7.38859e-07
0.00116084
-1.32423e-06
0.00116163
-1.69317e-06
0.00116213
1.72841e-06
0.00116273
6.95883e-07
0.00116331
-1.4076e-07
0.00116365
-8.44122e-07
0.00116384
1.37953e-06
0.00116415
3.03081e-07
0.00116454
-6.63886e-07
0.00116451
-1.21083e-06
0.00116427
2.29475e-06
0.00116436
9.97812e-07
0.00116461
-4.73755e-08
0.00116464
-8.06199e-07
0.00116454
1.47832e-06
0.00116466
2.73364e-07
0.00116497
-7.93076e-07
0.00116481
-1.29797e-06
0.0011644
2.2939e-06
0.00116442
9.02261e-07
0.00116468
-2.22763e-07
0.00116469
-9.38639e-07
0.00116452
1.36375e-06
0.00116465
9.78496e-08
0.00116501
-1.00653e-06
0.00116484
-1.43998e-06
0.00116438
2.1327e-06
0.0011644
6.94519e-07
0.00116471
-4.6481e-07
0.00116473
-1.12906e-06
0.00116454
1.19795e-06
0.00116468
-8.54027e-08
0.00116507
-1.19904e-06
0.00116491
-1.58676e-06
0.00116442
1.99235e-06
0.00116446
5.28569e-07
0.0011648
-6.40594e-07
0.00116484
-1.27147e-06
0.00116466
1.00039e-06
0.00116482
-2.66383e-07
0.0011652
-1.34315e-06
0.00116504
-1.72474e-06
0.00116458
1.69362e-06
0.00116465
2.43723e-07
0.00116502
-9.02145e-07
0.00116508
-1.50168e-06
0.00116492
7.29437e-07
0.0011651
-5.10648e-07
0.00116546
-1.52002e-06
0.00116528
-1.8771e-06
0.00116485
1.40253e-06
0.00116495
-7.23029e-09
0.00116531
-1.06632e-06
0.00116535
-1.63195e-06
0.00116523
4.53941e-07
0.00116544
-7.40109e-07
0.00116578
-1.64544e-06
0.00116561
-1.98957e-06
0.00116526
1.04773e-06
0.00116539
-2.66401e-07
0.00116571
-1.20564e-06
0.00116571
-1.71142e-06
0.00116561
2.16742e-07
0.00116583
-9.10765e-07
0.00116611
-1.69282e-06
0.00116596
-2.03e-06
0.00116568
7.43514e-07
0.00116582
-4.40628e-07
0.00116609
-1.24683e-06
0.00116609
-1.7254e-06
0.00116601
-3.34827e-08
0.0011662
-1.02256e-06
0.00116643
-1.70117e-06
0.00116632
-2.04516e-06
0.00116613
2.26668e-07
0.00116627
-7.639e-07
0.00116649
-1.40781e-06
0.00116651
-1.85133e-06
0.00116648
-5.07675e-07
0.00116662
-1.27443e-06
0.0011668
-1.79061e-06
0.00116677
-2.12048e-06
0.00116669
-5.79785e-07
0.0011668
-1.23123e-06
0.00116694
-1.63437e-06
0.001167
-1.96743e-06
0.00116703
-1.25507e-06
0.00116712
-1.64135e-06
0.00116721
-1.85105e-06
0.00116731
-2.09438e-06
0.00116738
-1.81388e-06
0.00116742
-1.91985e-06
0.00116747
-1.91019e-06
0.00116757
-2.02387e-06
0.00116766
-2.23674e-06
0.00116759
-2.08534e-06
0.00116763
-3.73305e-07
-4.97422e-07
0.00305392
0.00267522
0.00239441
0.00106776
0.00176605
0.00104576
0.00152817
0.00042129
0.00145045
0.000139315
0.0014211
5.28106e-05
0.00140755
2.54921e-05
0.00140127
1.20598e-05
0.00139934
3.88882e-06
0.00140027
-1.70121e-06
0.00140327
-3.33408e-06
0.00140789
-6.83641e-06
0.00141354
-9.28973e-06
0.00141965
-1.08074e-05
0.00142592
-9.24284e-06
0.00143218
-1.00682e-05
0.00143813
-1.03245e-05
0.00144327
-9.81372e-06
0.00144768
-5.05363e-06
0.00145166
-5.344e-06
0.00145509
-5.37778e-06
0.0014578
-5.20865e-06
0.00145994
-1.55991e-06
0.00146182
-2.30104e-06
0.00146343
-2.9575e-06
0.00146439
-3.03488e-06
0.00146497
2.04203e-06
0.0014657
4.86221e-07
0.00146641
-6.86722e-07
0.00146682
-1.46436e-06
0.00146704
1.77996e-06
0.00146742
1.68388e-07
0.0014679
-1.27447e-06
0.00146786
-1.68424e-06
0.00146755
3.43717e-06
0.00146766
1.32478e-06
0.00146797
-2.84805e-07
0.001468
-1.16006e-06
0.00146787
2.16271e-06
0.00146803
2.72016e-07
0.00146841
-1.38594e-06
0.00146821
-1.69354e-06
0.00146769
3.57725e-06
0.00146772
1.2484e-06
0.00146805
-5.43353e-07
0.00146805
-1.32544e-06
0.00146784
2.05793e-06
0.00146801
2.05782e-08
0.00146846
-1.72806e-06
0.00146825
-1.88129e-06
0.00146766
3.401e-06
0.00146769
9.56295e-07
0.00146808
-9.22133e-07
0.0014681
-1.59794e-06
0.00146786
1.84568e-06
0.00146805
-2.43724e-07
0.00146854
-2.02546e-06
0.00146833
-2.08725e-06
0.00146771
3.23078e-06
0.00146776
7.1476e-07
0.0014682
-1.19788e-06
0.00146824
-1.81057e-06
0.00146802
1.55936e-06
0.00146822
-5.05942e-07
0.0014687
-2.21518e-06
0.00146849
-2.27833e-06
0.0014679
2.79126e-06
0.001468
2.89497e-07
0.00146847
-1.58769e-06
0.00146855
-2.14982e-06
0.00146835
1.16867e-06
0.00146857
-8.59951e-07
0.00146902
-2.44222e-06
0.0014688
-2.47785e-06
0.00146825
2.35748e-06
0.00146838
-8.42454e-08
0.00146884
-1.79753e-06
0.00146889
-2.31742e-06
0.00146874
7.53215e-07
0.001469
-1.20881e-06
0.00146943
-2.59435e-06
0.00146922
-2.64359e-06
0.00146876
1.80115e-06
0.00146893
-4.69126e-07
0.00146933
-1.95898e-06
0.00146933
-2.39308e-06
0.0014692
4.08907e-07
0.00146948
-1.45547e-06
0.00146985
-2.61792e-06
0.00146965
-2.71004e-06
0.00146929
1.31469e-06
0.00146947
-7.21097e-07
0.00146981
-1.97207e-06
0.00146981
-2.40939e-06
0.00146971
3.78948e-08
0.00146995
-1.58175e-06
0.00147024
-2.58106e-06
0.0014701
-2.767e-06
0.00146986
5.11146e-07
0.00147004
-1.17281e-06
0.00147031
-2.14908e-06
0.00147034
-2.60948e-06
0.0014703
-6.62278e-07
0.00147048
-1.89595e-06
0.0014707
-2.65866e-06
0.00147067
-2.95106e-06
0.00147056
-7.10533e-07
0.0014707
-1.78841e-06
0.00147087
-2.40976e-06
0.00147096
-2.81366e-06
0.00147099
-1.75653e-06
0.0014711
-2.35307e-06
0.00147122
-2.71083e-06
0.00147135
-3.05731e-06
0.00147144
-2.53551e-06
0.00147149
-2.65643e-06
0.00147155
-2.77465e-06
0.00147168
-2.97861e-06
0.00147179
-3.16895e-06
0.00147169
-2.81916e-06
0.00147175
-2.59552e-06
-2.84469e-06
0.00390613
0.00389891
0.00298194
0.00199267
0.00215823
0.00186989
0.00186516
0.000714648
0.00176965
0.000235024
0.00173343
8.91717e-05
0.00171663
4.25404e-05
0.00170881
2.00543e-05
0.00170633
6.47993e-06
0.00170738
-2.71113e-06
0.00171098
-6.6052e-06
0.00171656
-1.2192e-05
0.00172342
-1.59946e-05
0.00173085
-1.81893e-05
0.00173848
-1.65705e-05
0.00174611
-1.75119e-05
0.00175335
-1.74822e-05
0.0017596
-1.61261e-05
0.00176496
-9.99371e-06
0.0017698
-9.91681e-06
0.00177397
-9.41016e-06
0.00177725
-8.52169e-06
0.00177984
-3.81514e-06
0.00178212
-4.41627e-06
0.00178407
-4.89211e-06
0.00178523
-4.36377e-06
0.00178594
1.78258e-06
0.00178682
-1.47377e-07
0.00178768
-1.4477e-06
0.00178817
-2.04925e-06
0.00178845
1.82497e-06
0.0017889
-1.6577e-07
0.00178948
-1.89782e-06
0.00178944
-1.87212e-06
0.00178905
4.22784e-06
0.00178919
1.39621e-06
0.00178956
-6.07436e-07
0.0017896
-1.35282e-06
0.00178944
2.60481e-06
0.00178963
1.5313e-07
0.0017901
-1.93051e-06
0.00178985
-1.73017e-06
0.00178922
4.58277e-06
0.00178926
1.38465e-06
0.00178966
-9.2557e-07
0.00178966
-1.52e-06
0.00178941
2.55897e-06
0.00178961
-1.4714e-07
0.00179016
-2.38853e-06
0.0017899
-1.93678e-06
0.00178918
4.44585e-06
0.00178923
1.04395e-06
0.0017897
-1.41998e-06
0.00178972
-1.84569e-06
0.00178943
2.33848e-06
0.00178966
-4.6567e-07
0.00179026
-2.77247e-06
0.00179
-2.17787e-06
0.00178925
4.28263e-06
0.00178931
7.49945e-07
0.00178984
-1.78232e-06
0.00178989
-2.11261e-06
0.00178962
1.99281e-06
0.00178987
-7.81891e-07
0.00179045
-2.97999e-06
0.0017902
-2.40035e-06
0.00178948
3.74566e-06
0.0017896
2.22649e-07
0.00179017
-2.26749e-06
0.00179026
-2.52964e-06
0.00179002
1.52367e-06
0.00179029
-1.20883e-06
0.00179084
-3.21617e-06
0.00179057
-2.61342e-06
0.0017899
3.20631e-06
0.00179006
-2.4134e-07
0.00179061
-2.48479e-06
0.00179067
-2.7046e-06
0.00179049
1.00121e-06
0.00179081
-1.65051e-06
0.00179132
-3.36249e-06
0.00179107
-2.818e-06
0.00179051
2.48087e-06
0.00179072
-7.16495e-07
0.00179121
-2.62674e-06
0.00179121
-2.74355e-06
0.00179105
5.84736e-07
0.00179139
-1.94681e-06
0.00179183
-3.3326e-06
0.00179159
-2.90824e-06
0.00179115
1.83497e-06
0.00179137
-1.01853e-06
0.00179178
-2.58267e-06
0.00179178
-2.75795e-06
0.00179166
1.28137e-07
0.00179195
-2.04968e-06
0.00179231
-3.22679e-06
0.00179213
-3.02447e-06
0.00179184
8.01699e-07
0.00179205
-1.53388e-06
0.00179238
-2.71919e-06
0.00179242
-3.01812e-06
0.00179237
-7.27464e-07
0.00179259
-2.35656e-06
0.00179286
-3.24277e-06
0.00179282
-3.33537e-06
0.00179269
-7.34328e-07
0.00179285
-2.19185e-06
0.00179307
-2.92129e-06
0.00179316
-3.29097e-06
0.00179321
-2.0565e-06
0.00179334
-2.81219e-06
0.00179349
-3.18258e-06
0.00179364
-3.58359e-06
0.00179375
-3.03275e-06
0.0017938
-3.13346e-06
0.00179388
-3.18096e-06
0.00179403
-3.47621e-06
0.00179417
-3.76083e-06
0.00179405
-3.14478e-06
0.00179412
-1.39173e-06
-1.67624e-06
0.00487203
0.00513085
0.00365557
0.00320981
0.00262306
0.00290286
0.00226526
0.00107272
0.00214835
0.000352139
0.00210382
0.000133831
0.00208315
6.34682e-05
0.00207352
2.98554e-05
0.00207044
9.65934e-06
0.00207168
-3.93277e-06
0.00207602
-1.06082e-05
0.00208279
-1.87305e-05
0.00209113
-2.41836e-05
0.00210017
-2.72074e-05
0.00210948
-2.55595e-05
0.00211878
-2.66341e-05
0.00212761
-2.62537e-05
0.00213525
-2.38616e-05
0.00214181
-1.61047e-05
0.00214771
-1.55542e-05
0.0021528
-1.43725e-05
0.00215681
-1.25897e-05
0.00215999
-6.64065e-06
0.00216276
-7.0424e-06
0.00216515
-7.27907e-06
0.00216658
-5.99954e-06
0.00216745
1.37643e-06
0.00216853
-9.74405e-07
0.00216958
-2.40633e-06
0.00217018
-2.7713e-06
0.00217053
1.81136e-06
0.00217108
-6.06212e-07
0.00217179
-2.66415e-06
0.00217174
-2.09422e-06
0.00217129
5.11057e-06
0.00217145
1.44382e-06
0.0021719
-1.01214e-06
0.00217195
-1.57735e-06
0.00217176
3.08668e-06
0.002172
-9.51064e-09
0.00217255
-2.58383e-06
0.00217226
-1.75291e-06
0.0021715
5.73582e-06
0.00217155
1.52323e-06
0.00217202
-1.38908e-06
0.00217203
-1.73439e-06
0.00217173
3.12177e-06
0.00217197
-3.57569e-07
0.00217262
-3.16922e-06
0.00217231
-1.97085e-06
0.00217146
5.65685e-06
0.00217151
1.13542e-06
0.00217208
-2.01073e-06
0.0021721
-2.11297e-06
0.00217176
2.90166e-06
0.00217203
-7.30842e-07
0.00217274
-3.64736e-06
0.00217244
-2.24525e-06
0.00217153
5.51128e-06
0.00217161
7.87359e-07
0.00217224
-2.46811e-06
0.0021723
-2.43682e-06
0.00217199
2.49455e-06
0.00217228
-1.10248e-06
0.00217297
-3.86543e-06
0.00217267
-2.49528e-06
0.00217182
4.87029e-06
0.00217195
1.49623e-07
0.00217264
-3.05516e-06
0.00217275
-2.93585e-06
0.00217246
1.94475e-06
0.00217278
-1.6045e-06
0.00217344
-4.10187e-06
0.00217311
-2.7154e-06
0.00217232
4.21824e-06
0.00217251
-4.10351e-07
0.00217316
-3.27145e-06
0.00217324
-3.11156e-06
0.00217302
1.30639e-06
0.0021734
-2.14714e-06
0.00217401
-4.23313e-06
0.00217371
-2.96038e-06
0.00217305
3.30423e-06
0.00217329
-9.82041e-07
0.00217387
-3.3815e-06
0.00217388
-3.10049e-06
0.00217369
8.15148e-07
0.00217409
-2.49421e-06
0.00217462
-4.1348e-06
0.00217433
-3.07746e-06
0.00217381
2.47878e-06
0.00217407
-1.3361e-06
0.00217456
-3.26465e-06
0.00217456
-3.11126e-06
0.00217442
2.66139e-07
0.00217476
-2.5629e-06
0.00217519
-3.94261e-06
0.00217498
-3.26402e-06
0.00217462
1.18728e-06
0.00217488
-1.91517e-06
0.00217528
-3.34505e-06
0.00217532
-3.44e-06
0.00217526
-7.57732e-07
0.00217553
-2.84895e-06
0.00217584
-3.8858e-06
0.00217579
-3.73248e-06
0.00217564
-6.93908e-07
0.00217583
-2.59907e-06
0.00217609
-3.4801e-06
0.00217621
-3.80408e-06
0.00217626
-2.33623e-06
0.00217642
-3.27811e-06
0.00217659
-3.74067e-06
0.00217678
-4.20633e-06
0.0021769
-3.46737e-06
0.00217697
-3.5433e-06
0.00217706
-3.69236e-06
0.00217725
-4.1011e-06
0.00217741
-4.33317e-06
0.00217727
-3.42825e-06
0.00217736
-3.04296e-06
-3.58665e-06
0.00600333
0.00639057
0.00446135
0.00475232
0.00319078
0.00417378
0.0027535
0.00151022
0.00260969
0.000496111
0.00255463
0.000188994
0.0025291
8.91955e-05
0.00251722
4.18688e-05
0.00251339
1.35792e-05
0.00251486
-5.37098e-06
0.00252013
-1.56365e-05
0.00252837
-2.68053e-05
0.00253853
-3.4216e-05
0.00254958
-3.82222e-05
0.00256097
-3.67164e-05
0.00257236
-3.79011e-05
0.0025832
-3.70141e-05
0.0025926
-3.3307e-05
0.00260068
-2.38678e-05
0.00260795
-2.26434e-05
0.00261422
-2.05256e-05
0.00261917
-1.75696e-05
0.0026231
-1.03116e-05
0.00262653
-1.03654e-05
0.00262947
-1.0186e-05
0.00263125
-7.91145e-06
0.00263236
5.98338e-07
0.00263371
-2.14819e-06
0.002635
-3.61269e-06
0.00263575
-3.60128e-06
0.00263619
1.61616e-06
0.00263687
-1.21155e-06
0.00263774
-3.53529e-06
0.00263769
-2.22801e-06
0.00263717
5.93749e-06
0.00263738
1.37517e-06
0.00263792
-1.5e-06
0.00263798
-1.76374e-06
0.00263776
3.52233e-06
0.00263804
-2.47493e-07
0.0026387
-3.28547e-06
0.00263836
-1.61974e-06
0.00263747
6.90772e-06
0.00263752
1.58373e-06
0.00263808
-1.92747e-06
0.0026381
-1.89339e-06
0.00263773
3.67144e-06
0.00263803
-6.36375e-07
0.0026388
-4.0085e-06
0.00263843
-1.84025e-06
0.00263742
6.91628e-06
0.00263748
1.15742e-06
0.00263815
-2.68437e-06
0.00263818
-2.32102e-06
0.00263778
3.46595e-06
0.0026381
-1.06141e-06
0.00263894
-4.58612e-06
0.00263858
-2.14364e-06
0.00263751
6.80402e-06
0.0026376
7.56475e-07
0.00263835
-3.24521e-06
0.00263842
-2.70442e-06
0.00263805
3.00028e-06
0.00263839
-1.48513e-06
0.00263921
-4.80676e-06
0.00263885
-2.41786e-06
0.00263784
6.06246e-06
0.002638
8.74028e-09
0.00263882
-3.93582e-06
0.00263894
-3.28499e-06
0.0026386
2.37445e-06
0.00263899
-2.05792e-06
0.00263976
-5.0281e-06
0.00263937
-2.63312e-06
0.00263843
5.29698e-06
0.00263866
-6.47425e-07
0.00263943
-4.13709e-06
0.00263952
-3.45044e-06
0.00263926
1.61745e-06
0.00263972
-2.70467e-06
0.00264044
-5.1313e-06
0.00264008
-2.91905e-06
0.0026393
4.18217e-06
0.00263958
-1.31472e-06
0.00264028
-4.19582e-06
0.00264028
-3.36996e-06
0.00264006
1.05514e-06
0.00264054
-3.09889e-06
0.00264116
-4.94519e-06
0.00264082
-3.06572e-06
0.0026402
3.16238e-06
0.00264051
-1.71715e-06
0.00264109
-3.98678e-06
0.00264109
-3.37489e-06
0.00264092
4.15933e-07
0.00264133
-3.11358e-06
0.00264183
-4.64778e-06
0.00264159
-3.33903e-06
0.00264117
1.60347e-06
0.00264147
-2.34106e-06
0.00264194
-3.98156e-06
0.002642
-3.77384e-06
0.00264192
-7.69198e-07
0.00264224
-3.34785e-06
0.00264261
-4.48686e-06
0.00264255
-3.98865e-06
0.00264238
-6.27576e-07
0.0026426
-3.01329e-06
0.0026429
-3.99715e-06
0.00264304
-4.2249e-06
0.0026431
-2.58603e-06
0.00264329
-3.71355e-06
0.0026435
-4.17771e-06
0.00264372
-4.69287e-06
0.00264387
-3.91518e-06
0.00264395
-3.94599e-06
0.00264406
-4.03066e-06
0.00264428
-4.56201e-06
0.00264447
-4.86906e-06
0.0026443
-3.58867e-06
0.00264441
-1.86828e-06
-2.4876e-06
0.00734541
0.00768768
0.00544229
0.00665605
0.00389278
0.00572372
0.00335601
0.00204725
0.00317773
0.000674582
0.00310905
0.000257788
0.00307725
0.000121233
0.00306247
5.67969e-05
0.00305767
1.84765e-05
0.0030594
-7.09251e-06
0.0030658
-2.17368e-05
0.00307585
-3.66506e-05
0.00308826
-4.6493e-05
0.00310181
-5.17533e-05
0.00311581
-5.04345e-05
0.00312985
-5.17886e-05
0.00314322
-5.03195e-05
0.00315487
-4.50514e-05
0.00316491
-3.35145e-05
0.00317394
-3.14533e-05
0.00318173
-2.81895e-05
0.00318791
-2.38104e-05
0.00319283
-1.49155e-05
0.00319711
-1.45272e-05
0.00320077
-1.38341e-05
0.00320304
-1.03738e-05
0.00320448
-4.25282e-07
0.00320617
-3.62969e-06
0.00320778
-5.13063e-06
0.00320874
-4.67932e-06
0.00320932
1.3379e-06
0.00321017
-1.97715e-06
0.00321122
-4.62098e-06
0.0032112
-2.45948e-06
0.00321061
6.91433e-06
0.00321087
1.28815e-06
0.00321152
-2.09493e-06
0.00321161
-2.02066e-06
0.00321136
4.03665e-06
0.0032117
-5.37764e-07
0.00321248
-4.13654e-06
0.00321208
-1.50783e-06
0.00321103
8.31338e-06
0.00321109
1.6692e-06
0.00321175
-2.56544e-06
0.00321177
-2.10456e-06
0.00321135
4.32894e-06
0.0032117
-9.6584e-07
0.00321261
-5.01314e-06
0.00321218
-1.72382e-06
0.00321099
8.42917e-06
0.00321105
1.20246e-06
0.00321184
-3.47679e-06
0.00321188
-2.58574e-06
0.00321141
4.14391e-06
0.00321178
-1.44772e-06
0.00321277
-5.70416e-06
0.00321235
-2.0582e-06
0.00321109
8.3587e-06
0.00321119
7.42003e-07
0.00321207
-4.15658e-06
0.00321216
-3.03656e-06
0.00321172
3.61132e-06
0.00321213
-1.93002e-06
0.00321309
-5.92284e-06
0.00321267
-2.35585e-06
0.00321148
7.50017e-06
0.00321167
-1.34242e-07
0.00321263
-4.96673e-06
0.00321278
-3.71087e-06
0.00321238
2.89867e-06
0.00321283
-2.5829e-06
0.00321374
-6.1234e-06
0.00321328
-2.56242e-06
0.00321218
6.60463e-06
0.00321244
-9.00622e-07
0.00321334
-5.1479e-06
0.00321346
-3.86186e-06
0.00321316
2.00451e-06
0.00321369
-3.35029e-06
0.00321454
-6.19214e-06
0.00321412
-2.89467e-06
0.0032132
5.25543e-06
0.00321353
-1.67888e-06
0.00321434
-5.1451e-06
0.00321435
-3.69791e-06
0.00321409
1.36185e-06
0.00321466
-3.79769e-06
0.00321538
-5.90242e-06
0.00321499
-3.07557e-06
0.00321426
4.00839e-06
0.00321461
-2.13774e-06
0.00321531
-4.82738e-06
0.00321531
-3.69484e-06
0.00321511
6.17611e-07
0.00321559
-3.74858e-06
0.00321618
-5.47986e-06
0.00321589
-3.44871e-06
0.00321539
2.13402e-06
0.00321575
-2.81555e-06
0.0032163
-4.72258e-06
0.00321637
-4.17635e-06
0.00321629
-7.56924e-07
0.00321666
-3.92197e-06
0.0032171
-5.20354e-06
0.00321703
-4.31646e-06
0.00321682
-5.06267e-07
0.00321708
-3.47046e-06
0.00321744
-4.61286e-06
0.00321761
-4.74143e-06
0.00321768
-2.85003e-06
0.0032179
-4.20581e-06
0.00321814
-4.75697e-06
0.0032184
-5.34265e-06
0.00321858
-4.35033e-06
0.00321868
-4.33568e-06
0.0032188
-4.53026e-06
0.00321906
-5.21751e-06
0.00321929
-5.44929e-06
0.00321909
-3.76876e-06
0.00321924
-3.62369e-06
-4.7021e-06
0.00894517
0.00902617
0.00664736
0.00895442
0.00476756
0.00760389
0.00410491
0.00271012
0.00388186
0.000897809
0.00379525
0.000344499
0.00375522
0.000161459
0.00373663
7.55128e-05
0.0037305
2.47122e-05
0.00373248
-9.04239e-06
0.00374025
-2.92725e-05
0.00375251
-4.87564e-05
0.00376771
-6.15675e-05
0.00378438
-6.83868e-05
0.00380167
-6.74961e-05
0.00381904
-6.90443e-05
0.00383564
-6.68288e-05
0.00385018
-5.96394e-05
0.00386277
-4.57976e-05
0.00387408
-4.26021e-05
0.00388384
-3.78276e-05
0.00389163
-3.16291e-05
0.00389786
-2.08862e-05
0.00390325
-1.98349e-05
0.00390786
-1.83912e-05
0.00391078
-1.34192e-05
0.00391269
-2.00791e-06
0.00391484
-5.63141e-06
0.00391687
-7.05958e-06
0.00391811
-6.00136e-06
0.00391888
8.08117e-07
0.00391995
-2.98657e-06
0.00392124
-5.90315e-06
0.00392127
-2.66181e-06
0.00392062
7.86039e-06
0.00392095
1.07715e-06
0.00392173
-2.80992e-06
0.00392186
-2.27246e-06
0.00392158
4.52349e-06
0.00392199
-9.16088e-07
0.00392291
-5.0798e-06
0.00392245
-1.25658e-06
0.00392124
9.80308e-06
0.0039213
1.69567e-06
0.00392207
-3.30124e-06
0.0039221
-2.28136e-06
0.00392162
5.00451e-06
0.00392202
-1.37187e-06
0.00392308
-6.12181e-06
0.00392259
-1.45745e-06
0.0039212
1.006e-05
0.00392126
1.19615e-06
0.00392218
-4.38085e-06
0.00392223
-2.81562e-06
0.00392168
4.853e-06
0.00392212
-1.91079e-06
0.00392328
-6.9366e-06
0.00392279
-1.8214e-06
0.00392132
1.00461e-05
0.00392143
6.73129e-07
0.00392245
-5.19459e-06
0.00392256
-3.34156e-06
0.00392206
4.25127e-06
0.00392253
-2.45231e-06
0.00392366
-7.14679e-06
0.00392317
-2.14175e-06
0.00392178
9.06624e-06
0.00392198
-3.40243e-07
0.00392311
-6.13449e-06
0.00392329
-4.11655e-06
0.00392283
3.44928e-06
0.00392335
-3.18682e-06
0.00392441
-7.31286e-06
0.00392388
-2.32925e-06
0.00392259
8.0321e-06
0.00392288
-1.22424e-06
0.00392394
-6.28359e-06
0.00392408
-4.24364e-06
0.00392373
2.40712e-06
0.00392436
-4.08575e-06
0.00392535
-7.3361e-06
0.00392486
-2.71224e-06
0.00392378
6.42367e-06
0.00392416
-2.12083e-06
0.00392511
-6.20073e-06
0.00392513
-3.97505e-06
0.00392483
1.68301e-06
0.00392549
-4.58672e-06
0.00392634
-6.92173e-06
0.00392588
-2.93207e-06
0.00392502
4.92304e-06
0.00392544
-2.63821e-06
0.00392624
-5.75328e-06
0.00392625
-3.96157e-06
0.00392602
8.29933e-07
0.00392658
-4.45392e-06
0.00392727
-6.35172e-06
0.00392693
-3.42483e-06
0.00392636
2.7077e-06
0.00392677
-3.35828e-06
0.00392741
-5.51895e-06
0.0039275
-4.53069e-06
0.0039274
-7.39112e-07
0.00392783
-4.53812e-06
0.00392835
-5.92645e-06
0.00392827
-4.54058e-06
0.00392803
-3.71686e-07
0.00392833
-3.96645e-06
0.00392875
-5.23018e-06
0.00392895
-5.20684e-06
0.00392903
-3.11853e-06
0.00392929
-4.70731e-06
0.00392958
-5.25754e-06
0.00392988
-5.89136e-06
0.00393009
-4.8581e-06
0.00393021
-4.76279e-06
0.00393035
-4.89589e-06
0.00393066
-5.72786e-06
0.00393093
-6.07032e-06
0.0039307
-3.81614e-06
0.00393088
-2.41569e-06
-3.07783e-06
0.0108555
0.0104076
0.00813591
0.0116747
0.00586423
0.00987606
0.00504118
0.00353343
0.00475933
0.00117987
0.00464883
0.000455101
0.00459782
0.000212722
0.00457411
9.93714e-05
0.00456609
3.28314e-05
0.00456825
-1.1199e-05
0.00457764
-3.83435e-05
0.0045926
-6.35185e-05
0.00461124
-8.00675e-05
0.0046318
-8.89331e-05
0.00465323
-8.86291e-05
0.00467483
-9.05094e-05
0.00469553
-8.74573e-05
0.00471381
-7.80182e-05
0.00472971
-6.12896e-05
0.00474399
-5.66753e-05
0.00475633
-5.00236e-05
0.00476623
-4.16065e-05
0.00477419
-2.85149e-05
0.00478106
-2.66059e-05
0.00478691
-2.42076e-05
0.00479072
-1.74347e-05
0.00479327
-4.12824e-06
0.00479603
-8.20915e-06
0.00479861
-9.52496e-06
0.00480024
-7.7611e-06
0.00480129
7.22025e-08
0.00480265
-4.28241e-06
0.00480424
-7.5113e-06
0.00480436
-3.04184e-06
0.00480367
8.95133e-06
0.00480409
8.08416e-07
0.00480503
-3.6778e-06
0.00480521
-2.63755e-06
0.00480493
5.09035e-06
0.00480541
-1.37639e-06
0.00480649
-6.21095e-06
0.00480598
-1.04305e-06
0.00480458
1.15793e-05
0.00480464
1.74956e-06
0.00480554
-4.15656e-06
0.00480559
-2.53133e-06
0.00480503
5.80997e-06
0.00480551
-1.84631e-06
0.00480674
-7.42989e-06
0.00480617
-1.21447e-06
0.00480456
1.20067e-05
0.00480462
1.21963e-06
0.00480568
-5.42508e-06
0.00480575
-3.12275e-06
0.00480512
5.7003e-06
0.00480563
-2.44684e-06
0.00480697
-8.38431e-06
0.00480641
-1.61005e-06
0.0048047
1.206e-05
0.00480481
6.25984e-07
0.004806
-6.3927e-06
0.00480614
-3.73452e-06
0.00480556
5.01851e-06
0.0048061
-3.05497e-06
0.00480741
-8.57988e-06
0.00480684
-1.95141e-06
0.00480523
1.09379e-05
0.00480546
-5.48514e-07
0.00480676
-7.48369e-06
0.00480698
-4.6266e-06
0.00480646
4.11285e-06
0.00480706
-3.88238e-06
0.00480829
-8.70403e-06
0.00480767
-2.11416e-06
0.00480618
9.7447e-06
0.0048065
-1.56766e-06
0.00480773
-7.59479e-06
0.0048079
-4.7243e-06
0.0048075
2.89951e-06
0.00480823
-4.93416e-06
0.00480938
-8.67547e-06
0.00480881
-2.55504e-06
0.00480756
7.83427e-06
0.00480799
-2.60288e-06
0.00480909
-7.42018e-06
0.00480912
-4.33261e-06
0.00480878
2.08353e-06
0.00480954
-5.49587e-06
0.00481052
-8.11782e-06
0.00481
-2.81941e-06
0.004809
6.03817e-06
0.00480948
-3.19037e-06
0.00481041
-6.82399e-06
0.00481043
-4.30516e-06
0.00481017
1.10356e-06
0.00481081
-5.26697e-06
0.00481161
-7.37626e-06
0.00481123
-3.44702e-06
0.00481056
3.4219e-06
0.00481104
-3.96432e-06
0.00481178
-6.44329e-06
0.00481188
-4.97545e-06
0.00481178
-6.94569e-07
0.00481227
-5.25086e-06
0.00481287
-6.78799e-06
0.00481278
-4.85558e-06
0.0048125
-1.70723e-07
0.00481285
-4.52036e-06
0.00481334
-5.96645e-06
0.00481357
-5.79444e-06
0.00481367
-3.40556e-06
0.00481397
-5.28432e-06
0.00481431
-5.92287e-06
0.00481466
-6.64467e-06
0.00481491
-5.35214e-06
0.00481504
-5.18908e-06
0.00481522
-5.44438e-06
0.00481557
-6.48727e-06
0.00481589
-6.7338e-06
0.00481562
-3.93567e-06
0.00481585
-4.35371e-06
-5.78676e-06
0.0131403
0.0118282
0.00998117
0.0148344
0.00724614
0.0126115
0.00621778
0.00456204
0.005858
0.00153985
0.0057153
0.000597915
0.0056494
0.00027883
0.00561868
0.000130223
0.00560795
4.36764e-05
0.00561009
-1.33109e-05
0.00562134
-4.93316e-05
0.00563955
-8.15729e-05
0.00566243
-0.0001028
0.00568783
-0.000114305
0.00571447
-0.000115021
0.00574143
-0.000117366
0.0057674
-0.00011332
0.0057905
-0.000101169
0.00581072
-8.11799e-05
0.00582887
-7.46734e-05
0.00584458
-6.55854e-05
0.00585727
-5.4346e-05
0.00586753
-3.84961e-05
0.00587636
-3.53541e-05
0.00588385
-3.16292e-05
0.00588887
-2.25844e-05
0.00589232
-7.23234e-06
0.00589591
-1.16679e-05
0.00589922
-1.27088e-05
0.00590137
-1.00109e-05
0.00590281
-1.10092e-06
0.00590456
-5.98706e-06
0.00590654
-9.46507e-06
0.0059068
-3.48746e-06
0.0059061
9.97065e-06
0.00590664
3.64706e-07
0.00590778
-4.72795e-06
0.00590804
-3.04314e-06
0.00590776
5.61224e-06
0.00590835
-1.95704e-06
0.00590962
-7.48068e-06
0.00590905
-6.97609e-07
0.00590744
1.34756e-05
0.00590752
1.75144e-06
0.00590855
-5.13324e-06
0.00590862
-2.76172e-06
0.00590799
6.64402e-06
0.00590854
-2.41177e-06
0.00590996
-8.87953e-06
0.00590932
-8.19275e-07
0.00590746
1.41196e-05
0.00590752
1.20515e-06
0.00590873
-6.60435e-06
0.00590882
-3.40888e-06
0.00590811
6.59202e-06
0.00590869
-3.07314e-06
0.00591023
-9.98537e-06
0.0059096
-1.24529e-06
0.00590764
1.42568e-05
0.00590774
5.36102e-07
0.0059091
-7.74574e-06
0.00590927
-4.11812e-06
0.00590861
5.82516e-06
0.00590924
-3.74961e-06
0.00591074
-1.01583e-05
0.0059101
-1.60687e-06
0.00590824
1.29837e-05
0.00590849
-8.14643e-07
0.00590998
-9.00442e-06
0.00591025
-5.13976e-06
0.00590966
4.80908e-06
0.00591035
-4.67393e-06
0.00591175
-1.02252e-05
0.00591105
-1.73299e-06
0.00590933
1.16191e-05
0.00590969
-1.98046e-06
0.0059111
-9.06512e-06
0.0059113
-5.19795e-06
0.00591086
3.40894e-06
0.00591169
-5.89508e-06
0.00591301
-1.01348e-05
0.00591236
-2.23919e-06
0.00591093
9.37242e-06
0.00591141
-3.16786e-06
0.00591267
-8.77937e-06
0.00591272
-4.65796e-06
0.00591233
2.4993e-06
0.00591321
-6.51944e-06
0.00591434
-9.41032e-06
0.00591374
-2.55454e-06
0.0059126
7.24552e-06
0.00591313
-3.83242e-06
0.00591421
-8.0115e-06
0.00591424
-4.61329e-06
0.00591395
1.38613e-06
0.00591468
-6.17251e-06
0.0059156
-8.47072e-06
0.00591517
-3.34017e-06
0.0059144
4.19195e-06
0.00591494
-4.65233e-06
0.0059158
-7.45156e-06
0.00591592
-5.39111e-06
0.0059158
-6.52186e-07
0.00591637
-6.02683e-06
0.00591706
-7.6823e-06
0.00591697
-5.07795e-06
0.00591665
3.99549e-08
0.00591705
-5.12948e-06
0.00591761
-6.72809e-06
0.00591788
-6.34997e-06
0.005918
-3.71599e-06
0.00591835
-5.89089e-06
0.00591874
-6.53007e-06
0.00591915
-7.31066e-06
0.00591944
-5.95345e-06
0.00591959
-5.67316e-06
0.0059198
-5.87564e-06
0.0059202
-7.10216e-06
0.00592058
-7.48539e-06
0.00592027
-3.89415e-06
0.00592057
-3.23464e-06
-4.01946e-06
0.0158794
0.0132758
0.0122737
0.0184409
0.00899533
0.0158905
0.00770362
0.00585405
0.00723977
0.00200395
0.00705317
0.000784627
0.00696686
0.000365427
0.00692638
0.000170855
0.00691165
5.85283e-05
0.00691338
-1.50456e-05
0.00692668
-6.22813e-05
0.00694877
-0.000103463
0.00697682
-0.000130683
0.00700824
-0.000145727
0.00704143
-0.000147887
0.00707521
-0.000151015
0.00710791
-0.000145919
0.00713727
-0.000130641
0.00716313
-0.000106593
0.00718635
-9.76998e-05
0.00720649
-8.5552e-05
0.00722288
-7.08383e-05
0.00723621
-5.14567e-05
0.00724763
-4.66899e-05
0.0072573
-4.12436e-05
0.00726396
-2.94714e-05
0.00726865
-1.14551e-05
0.00727337
-1.62027e-05
0.00727764
-1.68441e-05
0.00728052
-1.30474e-05
0.00728251
-2.7365e-06
0.00728477
-8.20975e-06
0.00728726
-1.194e-05
0.00728774
-4.26284e-06
0.00728708
1.10696e-05
0.0072878
-2.16207e-07
0.00728918
-6.00874e-06
0.00728956
-3.63584e-06
0.0072893
6.18731e-06
0.00729002
-2.66709e-06
0.0072915
-8.98791e-06
0.00729089
-4.20632e-07
0.00728908
1.56981e-05
0.00728915
1.78346e-06
0.00729033
-6.24891e-06
0.00729043
-3.09334e-06
0.00728973
7.62042e-06
0.00729036
-3.065e-06
0.00729199
-1.0561e-05
0.00729127
-4.62294e-07
0.00728916
1.66046e-05
0.0072892
1.23439e-06
0.00729057
-7.93909e-06
0.00729069
-3.79661e-06
0.00728989
7.63907e-06
0.00729055
-3.78838e-06
0.00729231
-1.18333e-05
0.0072916
-9.19553e-07
0.00728936
1.6839e-05
0.00728946
4.81374e-07
0.007291
-9.27817e-06
0.00729121
-4.6172e-06
0.00729047
6.77379e-06
0.00729118
-4.54036e-06
0.00729289
-1.19745e-05
0.00729217
-1.29745e-06
0.00729005
1.53904e-05
0.00729031
-1.07547e-06
0.007292
-1.07318e-05
0.00729233
-5.78973e-06
0.00729168
5.62928e-06
0.00729246
-5.57406e-06
0.00729405
-1.19742e-05
0.00729326
-1.37825e-06
0.00729129
1.38315e-05
0.00729168
-2.40828e-06
0.00729328
-1.07352e-05
0.00729354
-5.80115e-06
0.00729305
4.0153e-06
0.007294
-6.99074e-06
0.0072955
-1.1817e-05
0.00729476
-1.95913e-06
0.00729313
1.11968e-05
0.00729366
-3.77393e-06
0.0072951
-1.0326e-05
0.00729516
-5.08944e-06
0.00729474
3.00239e-06
0.00729573
-7.6853e-06
0.00729702
-1.09052e-05
0.00729634
-2.33194e-06
0.00729504
8.68859e-06
0.00729564
-4.53215e-06
0.00729687
-9.36655e-06
0.00729691
-5.0221e-06
0.00729659
1.73588e-06
0.00729743
-7.20552e-06
0.00729848
-9.73976e-06
0.00729799
-3.29199e-06
0.00729711
5.12708e-06
0.00729772
-5.41295e-06
0.0072987
-8.60821e-06
0.00729885
-5.92058e-06
0.00729873
-5.82249e-07
0.00729938
-6.91782e-06
0.00730016
-8.73502e-06
0.00730006
-5.41008e-06
0.00729969
3.2768e-07
0.00730015
-5.80786e-06
0.00730079
-7.62632e-06
0.00730111
-7.0536e-06
0.00730125
-4.05001e-06
0.00730165
-6.58992e-06
0.0073021
-7.32234e-06
0.00730257
-8.22006e-06
0.00730291
-6.54073e-06
0.00730309
-6.16774e-06
0.00730333
-6.50921e-06
0.00730379
-8.0152e-06
0.00730423
-8.27892e-06
0.00730387
-3.97046e-06
0.00730426
-5.4512e-06
-7.55055e-06
0.0191699
0.0147242
0.0151251
0.0224867
0.011218
0.0197982
0.00958875
0.00748354
0.00898506
0.00260789
0.00873811
0.0010317
0.00862341
0.000480378
0.00856915
0.00022525
0.00854846
7.93601e-05
0.00854905
-1.55948e-05
0.00856448
-7.74316e-05
0.00859112
-0.000129934
0.00862544
-0.000164838
0.00866432
-0.000184576
0.00870575
-0.000189032
0.00874817
-0.000193333
0.0087895
-0.000187118
0.00882696
-0.000168158
0.00886021
-0.000139473
0.00889009
-0.000127431
0.00891606
-0.000111341
0.00893737
-9.22071e-05
0.00895479
-6.85618e-05
0.00896968
-6.15089e-05
0.00898225
-5.37194e-05
0.00899114
-3.85101e-05
0.00899755
-1.74891e-05
0.00900378
-2.22976e-05
0.00900935
-2.22637e-05
0.00901322
-1.70357e-05
0.00901597
-5.18222e-06
0.00901894
-1.11522e-05
0.00902208
-1.5022e-05
0.0090229
-5.29342e-06