/*--------------------------------*- C++ -*----------------------------------*\
  =========                 |
  \\      /  F ield         | OpenFOAM: The Open Source CFD Toolbox
   \\    /   O peration     | Website:  https://openfoam.org
    \\  /    A nd           | Version:  8
     \\/     M anipulation  |
\*---------------------------------------------------------------------------*/
FoamFile
{
    version     2.0;
    format      ascii;
    class       volVectorField;
    location    "100";
    object      U;
}
// * * * * * * * * * * * * * * * * * * * * * * * * * * * * * * * * * * * * * //

dimensions      [0 1 -1 0 0 0 0];

internalField   nonuniform List<vector> 
7320
(
(22.5815 -0.850054 0)
(20.1243 -0.0108239 0)
(14.7463 0.00412264 0)
(12.1041 0.00208387 0)
(11.2414 0.000713097 0)
(10.9395 0.000278038 0)
(10.8043 0.000140763 0)
(10.7407 7.2336e-05 0)
(10.7149 3.07523e-05 0)
(10.7163 1.93008e-06 0)
(10.7335 -1.87692e-06 0)
(10.7658 -2.05744e-05 0)
(10.8073 -3.44146e-05 0)
(10.8551 -4.41543e-05 0)
(10.9032 -3.33145e-05 0)
(10.9533 -4.01331e-05 0)
(11.0011 -4.43062e-05 0)
(11.0462 -4.5122e-05 0)
(11.0817 -1.5173e-05 0)
(11.1155 -1.9514e-05 0)
(11.1443 -2.25819e-05 0)
(11.1697 -2.49148e-05 0)
(11.1871 -1.57044e-06 0)
(11.2036 -8.03397e-06 0)
(11.2168 -1.39964e-05 0)
(11.2292 -1.757e-05 0)
(11.2323 1.69453e-05 0)
(11.2387 6.66727e-06 0)
(11.2439 -1.85006e-06 0)
(11.2499 -8.82473e-06 0)
(11.2504 1.35334e-05 0)
(11.2537 2.8018e-06 0)
(11.2563 -7.04658e-06 0)
(11.2612 -1.24127e-05 0)
(11.2558 2.29206e-05 0)
(11.2566 9.9341e-06 0)
(11.2576 -7.40105e-07 0)
(11.2613 -8.2979e-06 0)
(11.2582 1.4655e-05 0)
(11.2593 2.60557e-06 0)
(11.2606 -8.26859e-06 0)
(11.2652 -1.31944e-05 0)
(11.2576 2.29675e-05 0)
(11.2573 9.02146e-06 0)
(11.258 -2.47526e-06 0)
(11.2623 -9.58384e-06 0)
(11.2581 1.35087e-05 0)
(11.2591 8.55359e-07 0)
(11.2607 -1.03947e-05 0)
(11.2659 -1.45575e-05 0)
(11.2575 2.13189e-05 0)
(11.257 6.92885e-06 0)
(11.258 -4.90093e-06 0)
(11.2629 -1.14461e-05 0)
(11.2583 1.18241e-05 0)
(11.2593 -9.6551e-07 0)
(11.2611 -1.22804e-05 0)
(11.2668 -1.59339e-05 0)
(11.2579 1.9887e-05 0)
(11.2573 5.2709e-06 0)
(11.2587 -6.63728e-06 0)
(11.264 -1.28019e-05 0)
(11.2593 9.83804e-06 0)
(11.2606 -2.74057e-06 0)
(11.2624 -1.36331e-05 0)
(11.2679 -1.71817e-05 0)
(11.2592 1.69098e-05 0)
(11.259 2.4494e-06 0)
(11.2606 -9.20331e-06 0)
(11.2662 -1.50246e-05 0)
(11.2617 7.16305e-06 0)
(11.2632 -5.12859e-06 0)
(11.2651 -1.5313e-05 0)
(11.2701 -1.85926e-05 0)
(11.2617 1.40536e-05 0)
(11.2618 -1.4286e-08 0)
(11.2637 -1.07775e-05 0)
(11.2687 -1.62472e-05 0)
(11.2645 4.46375e-06 0)
(11.2664 -7.38778e-06 0)
(11.2686 -1.65143e-05 0)
(11.2729 -1.96705e-05 0)
(11.2654 1.05471e-05 0)
(11.266 -2.57801e-06 0)
(11.2679 -1.21214e-05 0)
(11.2722 -1.69838e-05 0)
(11.268 2.15473e-06 0)
(11.2702 -9.06134e-06 0)
(11.2723 -1.69503e-05 0)
(11.2757 -2.00622e-05 0)
(11.2693 7.51878e-06 0)
(11.2702 -4.31635e-06 0)
(11.2721 -1.25082e-05 0)
(11.2754 -1.71094e-05 0)
(11.2721 -3.30781e-07 0)
(11.2739 -1.01546e-05 0)
(11.2757 -1.69971e-05 0)
(11.2784 -2.02101e-05 0)
(11.2736 2.33781e-06 0)
(11.2747 -7.53805e-06 0)
(11.2763 -1.40668e-05 0)
(11.2789 -1.83333e-05 0)
(11.2768 -5.04764e-06 0)
(11.2783 -1.26218e-05 0)
(11.2796 -1.78261e-05 0)
(11.2816 -2.09505e-05 0)
(11.2791 -5.69165e-06 0)
(11.2801 -1.21336e-05 0)
(11.2811 -1.62368e-05 0)
(11.2828 -1.94484e-05 0)
(11.2824 -1.23863e-05 0)
(11.2833 -1.61562e-05 0)
(11.2841 -1.83724e-05 0)
(11.2852 -2.07757e-05 0)
(11.286 -1.77104e-05 0)
(11.2865 -1.87378e-05 0)
(11.2868 -1.89721e-05 0)
(11.2875 -2.02336e-05 0)
(11.2887 -2.19204e-05 0)
(11.2892 -2.06682e-05 0)
(11.2872 -7.04498e-06 0)
(11.2901 -9.31646e-06 0)
(26.5338 0.167722 0)
(23.0919 0.0101026 0)
(15.8109 0.00805262 0)
(12.8823 0.00345384 0)
(11.9479 0.00115354 0)
(11.6198 0.000437582 0)
(11.4709 0.000210463 0)
(11.3994 9.88269e-05 0)
(11.3689 3.12362e-05 0)
(11.368 -1.50643e-05 0)
(11.3841 -2.65546e-05 0)
(11.4167 -5.57372e-05 0)
(11.4591 -7.64878e-05 0)
(11.5085 -8.97343e-05 0)
(11.5584 -7.54265e-05 0)
(11.6104 -8.30763e-05 0)
(11.6602 -8.61296e-05 0)
(11.707 -8.29999e-05 0)
(11.7437 -4.08969e-05 0)
(11.7787 -4.4022e-05 0)
(11.8084 -4.51234e-05 0)
(11.8345 -4.46525e-05 0)
(11.8523 -1.21917e-05 0)
(11.8693 -1.90642e-05 0)
(11.8828 -2.53267e-05 0)
(11.8955 -2.70671e-05 0)
(11.8984 1.86184e-05 0)
(11.9049 5.02448e-06 0)
(11.9103 -5.60882e-06 0)
(11.9165 -1.31463e-05 0)
(11.9168 1.60941e-05 0)
(11.9202 1.88214e-06 0)
(11.9229 -1.10166e-05 0)
(11.9281 -1.57293e-05 0)
(11.9222 3.03421e-05 0)
(11.923 1.20965e-05 0)
(11.924 -2.20034e-06 0)
(11.928 -1.06751e-05 0)
(11.9246 1.91836e-05 0)
(11.9258 2.67082e-06 0)
(11.9272 -1.19994e-05 0)
(11.932 -1.59474e-05 0)
(11.9239 3.12948e-05 0)
(11.9236 1.13225e-05 0)
(11.9243 -4.42612e-06 0)
(11.9289 -1.21564e-05 0)
(11.9244 1.80757e-05 0)
(11.9255 4.30464e-07 0)
(11.9272 -1.49317e-05 0)
(11.9328 -1.76166e-05 0)
(11.9237 2.94972e-05 0)
(11.9232 8.65814e-06 0)
(11.9243 -7.7335e-06 0)
(11.9296 -1.45678e-05 0)
(11.9246 1.60514e-05 0)
(11.9257 -1.94199e-06 0)
(11.9276 -1.75086e-05 0)
(11.9337 -1.94057e-05 0)
(11.9242 2.78224e-05 0)
(11.9236 6.4836e-06 0)
(11.925 -1.0124e-05 0)
(11.9307 -1.63933e-05 0)
(11.9257 1.34668e-05 0)
(11.9271 -4.26741e-06 0)
(11.929 -1.91973e-05 0)
(11.9349 -2.10386e-05 0)
(11.9256 2.38928e-05 0)
(11.9254 2.72556e-06 0)
(11.9271 -1.35425e-05 0)
(11.9331 -1.93445e-05 0)
(11.9283 9.98332e-06 0)
(11.9299 -7.394e-06 0)
(11.9319 -2.12508e-05 0)
(11.9373 -2.28036e-05 0)
(11.9283 2.00751e-05 0)
(11.9284 -5.57252e-07 0)
(11.9304 -1.54572e-05 0)
(11.9357 -2.08505e-05 0)
(11.9312 6.35098e-06 0)
(11.9332 -1.04371e-05 0)
(11.9356 -2.2662e-05 0)
(11.9401 -2.42433e-05 0)
(11.9321 1.52565e-05 0)
(11.9327 -3.94513e-06 0)
(11.9348 -1.69858e-05 0)
(11.9393 -2.16065e-05 0)
(11.9349 3.31575e-06 0)
(11.9372 -1.26203e-05 0)
(11.9394 -2.29854e-05 0)
(11.9431 -2.48087e-05 0)
(11.9363 1.10545e-05 0)
(11.9372 -6.19143e-06 0)
(11.9392 -1.72244e-05 0)
(11.9428 -2.17532e-05 0)
(11.9392 3.61662e-08 0)
(11.9412 -1.38375e-05 0)
(11.943 -2.27781e-05 0)
(11.946 -2.52084e-05 0)
(11.9407 4.02498e-06 0)
(11.942 -1.02692e-05 0)
(11.9436 -1.89407e-05 0)
(11.9464 -2.34643e-05 0)
(11.9442 -6.16917e-06 0)
(11.9457 -1.67617e-05 0)
(11.9471 -2.35802e-05 0)
(11.9493 -2.66133e-05 0)
(11.9466 -6.7142e-06 0)
(11.9476 -1.5897e-05 0)
(11.9487 -2.13998e-05 0)
(11.9505 -2.51394e-05 0)
(11.95 -1.58175e-05 0)
(11.9511 -2.09581e-05 0)
(11.9518 -2.40864e-05 0)
(11.953 -2.71544e-05 0)
(11.9539 -2.26551e-05 0)
(11.9545 -2.37788e-05 0)
(11.9547 -2.46931e-05 0)
(11.9555 -2.6445e-05 0)
(11.9568 -2.81519e-05 0)
(11.9573 -2.55925e-05 0)
(11.9552 -1.91634e-05 0)
(11.9583 -2.21954e-05 0)
(28.8753 0.100019 0)
(24.4617 0.0150254 0)
(16.2518 0.0146 0)
(13.2154 0.00576922 0)
(12.2514 0.00190574 0)
(11.9115 0.000723098 0)
(11.7567 0.0003456 0)
(11.6821 0.000162675 0)
(11.6499 5.22113e-05 0)
(11.6483 -2.28006e-05 0)
(11.6643 -5.06752e-05 0)
(11.6973 -9.67441e-05 0)
(11.7405 -0.000128597 0)
(11.791 -0.000147586 0)
(11.842 -0.00013153 0)
(11.8952 -0.000140628 0)
(11.9461 -0.000142023 0)
(11.994 -0.000132764 0)
(12.0315 -7.74731e-05 0)
(12.0672 -7.8461e-05 0)
(12.0975 -7.609e-05 0)
(12.1242 -7.06845e-05 0)
(12.1423 -2.81787e-05 0)
(12.1596 -3.48016e-05 0)
(12.1734 -4.05177e-05 0)
(12.1863 -3.82363e-05 0)
(12.1892 1.87874e-05 0)
(12.1959 1.32566e-06 0)
(12.2013 -1.12155e-05 0)
(12.2076 -1.81691e-05 0)
(12.2079 1.79219e-05 0)
(12.2114 -1.8049e-07 0)
(12.2141 -1.6282e-05 0)
(12.2194 -1.83103e-05 0)
(12.2134 3.85311e-05 0)
(12.2142 1.3669e-05 0)
(12.2153 -4.65814e-06 0)
(12.2193 -1.28916e-05 0)
(12.2158 2.3925e-05 0)
(12.2171 2.08172e-06 0)
(12.2185 -1.68758e-05 0)
(12.2235 -1.75357e-05 0)
(12.2151 4.10302e-05 0)
(12.2148 1.32503e-05 0)
(12.2156 -7.51618e-06 0)
(12.2203 -1.45221e-05 0)
(12.2157 2.31346e-05 0)
(12.2168 -6.95237e-07 0)
(12.2185 -2.08704e-05 0)
(12.2242 -1.9474e-05 0)
(12.215 3.93728e-05 0)
(12.2144 1.00291e-05 0)
(12.2156 -1.19075e-05 0)
(12.2209 -1.75038e-05 0)
(12.2159 2.08999e-05 0)
(12.217 -3.63886e-06 0)
(12.2189 -2.42686e-05 0)
(12.2252 -2.166e-05 0)
(12.2155 3.7625e-05 0)
(12.2148 7.31356e-06 0)
(12.2163 -1.51e-05 0)
(12.2221 -1.98617e-05 0)
(12.217 1.76924e-05 0)
(12.2184 -6.53484e-06 0)
(12.2203 -2.62181e-05 0)
(12.2264 -2.3651e-05 0)
(12.2169 3.26903e-05 0)
(12.2166 2.53036e-06 0)
(12.2184 -1.9467e-05 0)
(12.2245 -2.36038e-05 0)
(12.2196 1.33754e-05 0)
(12.2212 -1.04312e-05 0)
(12.2233 -2.85038e-05 0)
(12.2287 -2.56601e-05 0)
(12.2196 2.78164e-05 0)
(12.2197 -1.65605e-06 0)
(12.2217 -2.15873e-05 0)
(12.2272 -2.5285e-05 0)
(12.2226 8.69041e-06 0)
(12.2246 -1.4377e-05 0)
(12.227 -2.99827e-05 0)
(12.2317 -2.74896e-05 0)
(12.2235 2.14092e-05 0)
(12.2241 -5.95538e-06 0)
(12.2262 -2.30983e-05 0)
(12.2308 -2.58431e-05 0)
(12.2263 4.89712e-06 0)
(12.2287 -1.70874e-05 0)
(12.2309 -2.99493e-05 0)
(12.2347 -2.8269e-05 0)
(12.2277 1.57403e-05 0)
(12.2286 -8.73338e-06 0)
(12.2307 -2.29451e-05 0)
(12.2343 -2.59895e-05 0)
(12.2306 7.46684e-07 0)
(12.2327 -1.82375e-05 0)
(12.2345 -2.92308e-05 0)
(12.2375 -2.91218e-05 0)
(12.2322 6.51523e-06 0)
(12.2335 -1.35918e-05 0)
(12.2352 -2.4513e-05 0)
(12.238 -2.82758e-05 0)
(12.2357 -7.06073e-06 0)
(12.2373 -2.13491e-05 0)
(12.2387 -2.96792e-05 0)
(12.2409 -3.15664e-05 0)
(12.2381 -7.31672e-06 0)
(12.2392 -1.99699e-05 0)
(12.2403 -2.67978e-05 0)
(12.2421 -3.06189e-05 0)
(12.2417 -1.916e-05 0)
(12.2427 -2.58667e-05 0)
(12.2435 -2.95677e-05 0)
(12.2447 -3.32801e-05 0)
(12.2456 -2.78103e-05 0)
(12.2461 -2.88725e-05 0)
(12.2464 -2.98327e-05 0)
(12.2471 -3.2357e-05 0)
(12.2485 -3.44919e-05 0)
(12.249 -2.98763e-05 0)
(12.2469 -1.98573e-05 0)
(12.25 -2.3655e-05 0)
(30.5658 0.048975 0)
(25.3373 0.0249832 0)
(16.6048 0.0236862 0)
(13.4908 0.00893009 0)
(12.5005 0.00293651 0)
(12.1495 0.00111549 0)
(11.9895 0.000530052 0)
(11.9123 0.000249407 0)
(11.879 8.05696e-05 0)
(11.877 -3.33254e-05 0)
(11.8932 -8.55539e-05 0)
(11.9268 -0.00015412 0)
(11.9709 -0.000200581 0)
(12.0224 -0.000226888 0)
(12.0747 -0.00021028 0)
(12.1292 -0.000220619 0)
(12.1814 -0.000218963 0)
(12.2306 -0.000200578 0)
(12.2691 -0.000130535 0)
(12.3057 -0.000127548 0)
(12.3368 -0.000119381 0)
(12.3641 -0.000106214 0)
(12.3828 -5.24432e-05 0)
(12.4006 -5.75363e-05 0)
(12.4147 -6.133e-05 0)
(12.4279 -5.25065e-05 0)
(12.4311 1.58746e-05 0)
(12.4379 -5.57345e-06 0)
(12.4435 -1.94719e-05 0)
(12.45 -2.44662e-05 0)
(12.4504 1.82411e-05 0)
(12.454 -3.86768e-06 0)
(12.4567 -2.30507e-05 0)
(12.4621 -2.03237e-05 0)
(12.4561 4.68495e-05 0)
(12.4569 1.43222e-05 0)
(12.458 -8.20259e-06 0)
(12.4621 -1.49454e-05 0)
(12.4586 2.85172e-05 0)
(12.4599 7.30149e-07 0)
(12.4613 -2.27677e-05 0)
(12.4663 -1.78782e-05 0)
(12.4579 5.16833e-05 0)
(12.4576 1.46319e-05 0)
(12.4584 -1.16671e-05 0)
(12.4631 -1.65534e-05 0)
(12.4585 2.83956e-05 0)
(12.4596 -2.53462e-06 0)
(12.4614 -2.79649e-05 0)
(12.4671 -1.99722e-05 0)
(12.4578 5.04939e-05 0)
(12.4573 1.09332e-05 0)
(12.4584 -1.72557e-05 0)
(12.4638 -2.00616e-05 0)
(12.4587 2.6118e-05 0)
(12.4598 -6.01801e-06 0)
(12.4618 -3.22553e-05 0)
(12.468 -2.24999e-05 0)
(12.4583 4.8863e-05 0)
(12.4576 7.69137e-06 0)
(12.4591 -2.13423e-05 0)
(12.4649 -2.29688e-05 0)
(12.4598 2.23127e-05 0)
(12.4613 -9.45698e-06 0)
(12.4632 -3.43499e-05 0)
(12.4692 -2.4786e-05 0)
(12.4597 4.29304e-05 0)
(12.4594 1.85868e-06 0)
(12.4613 -2.66826e-05 0)
(12.4674 -2.75002e-05 0)
(12.4624 1.72067e-05 0)
(12.4641 -1.40873e-05 0)
(12.4661 -3.66893e-05 0)
(12.4716 -2.69025e-05 0)
(12.4624 3.69755e-05 0)
(12.4625 -3.24855e-06 0)
(12.4645 -2.88407e-05 0)
(12.47 -2.92254e-05 0)
(12.4654 1.14196e-05 0)
(12.4675 -1.89886e-05 0)
(12.4698 -3.80683e-05 0)
(12.4745 -2.91206e-05 0)
(12.4663 2.88047e-05 0)
(12.4669 -8.47005e-06 0)
(12.4691 -3.0104e-05 0)
(12.4737 -2.93612e-05 0)
(12.4691 6.89711e-06 0)
(12.4715 -2.21954e-05 0)
(12.4738 -3.74377e-05 0)
(12.4775 -3.01457e-05 0)
(12.4705 2.14681e-05 0)
(12.4715 -1.17505e-05 0)
(12.4735 -2.93136e-05 0)
(12.4772 -2.9479e-05 0)
(12.4735 1.86867e-06 0)
(12.4755 -2.30658e-05 0)
(12.4774 -3.59564e-05 0)
(12.4804 -3.16299e-05 0)
(12.475 9.84334e-06 0)
(12.4763 -1.72386e-05 0)
(12.478 -3.04115e-05 0)
(12.4808 -3.23997e-05 0)
(12.4785 -7.53353e-06 0)
(12.4801 -2.60458e-05 0)
(12.4816 -3.57527e-05 0)
(12.4838 -3.54738e-05 0)
(12.481 -7.23491e-06 0)
(12.482 -2.39613e-05 0)
(12.4832 -3.20966e-05 0)
(12.485 -3.55394e-05 0)
(12.4845 -2.20243e-05 0)
(12.4856 -3.04338e-05 0)
(12.4864 -3.4703e-05 0)
(12.4876 -3.90063e-05 0)
(12.4885 -3.23785e-05 0)
(12.489 -3.32157e-05 0)
(12.4893 -3.44272e-05 0)
(12.49 -3.79501e-05 0)
(12.4914 -4.01957e-05 0)
(12.4919 -3.28896e-05 0)
(12.4898 -2.3551e-05 0)
(12.493 -2.90156e-05 0)
(31.8494 0.0527887 0)
(26.0357 0.0389641 0)
(16.9788 0.0352047 0)
(13.7853 0.012894 0)
(12.7636 0.00423574 0)
(12.3989 0.00161197 0)
(12.2327 0.00076228 0)
(12.1526 0.000358079 0)
(12.1181 0.000115962 0)
(12.1158 -4.65586e-05 0)
(12.1322 -0.000130537 0)
(12.1666 -0.000226936 0)
(12.2117 -0.000291364 0)
(12.2645 -0.000326658 0)
(12.3182 -0.000310578 0)
(12.3743 -0.000322102 0)
(12.4281 -0.000316143 0)
(12.4788 -0.000285994 0)
(12.5188 -0.000199475 0)
(12.5567 -0.000190793 0)
(12.5889 -0.000174605 0)
(12.6171 -0.000151126 0)
(12.6366 -8.46775e-05 0)
(12.655 -8.7069e-05 0)
(12.6697 -8.76109e-05 0)
(12.6833 -7.00558e-05 0)
(12.6869 1.00488e-05 0)
(12.694 -1.55065e-05 0)
(12.6999 -3.0228e-05 0)
(12.7065 -3.21391e-05 0)
(12.7071 1.72216e-05 0)
(12.7108 -9.07076e-06 0)
(12.7137 -3.12052e-05 0)
(12.7191 -2.20311e-05 0)
(12.7132 5.53843e-05 0)
(12.7141 1.41962e-05 0)
(12.7152 -1.26708e-05 0)
(12.7193 -1.69641e-05 0)
(12.7158 3.3085e-05 0)
(12.7172 -1.28393e-06 0)
(12.7185 -2.95392e-05 0)
(12.7235 -1.72694e-05 0)
(12.7152 6.32813e-05 0)
(12.7149 1.55931e-05 0)
(12.7157 -1.66947e-05 0)
(12.7204 -1.83897e-05 0)
(12.7158 3.39379e-05 0)
(12.7169 -4.99454e-06 0)
(12.7187 -3.60656e-05 0)
(12.7243 -1.94318e-05 0)
(12.7151 6.28259e-05 0)
(12.7146 1.14698e-05 0)
(12.7157 -2.35956e-05 0)
(12.721 -2.2405e-05 0)
(12.716 3.17408e-05 0)
(12.7171 -9.00775e-06 0)
(12.7191 -4.13249e-05 0)
(12.7253 -2.22696e-05 0)
(12.7156 6.14548e-05 0)
(12.7149 7.69625e-06 0)
(12.7164 -2.86744e-05 0)
(12.7222 -2.58936e-05 0)
(12.7171 2.73377e-05 0)
(12.7186 -1.29825e-05 0)
(12.7205 -4.3484e-05 0)
(12.7265 -2.48137e-05 0)
(12.717 5.45017e-05 0)
(12.7167 7.65217e-07 0)
(12.7185 -3.50389e-05 0)
(12.7246 -3.1239e-05 0)
(12.7197 2.14511e-05 0)
(12.7214 -1.83396e-05 0)
(12.7234 -4.57449e-05 0)
(12.7288 -2.69372e-05 0)
(12.7197 4.74163e-05 0)
(12.7198 -5.30135e-06 0)
(12.7218 -3.71122e-05 0)
(12.7273 -3.29121e-05 0)
(12.7227 1.44923e-05 0)
(12.7248 -2.42637e-05 0)
(12.7271 -4.69018e-05 0)
(12.7317 -2.95577e-05 0)
(12.7236 3.72993e-05 0)
(12.7242 -1.14798e-05 0)
(12.7263 -3.79519e-05 0)
(12.7309 -3.2444e-05 0)
(12.7264 9.24287e-06 0)
(12.7288 -2.79567e-05 0)
(12.731 -4.5482e-05 0)
(12.7347 -3.08609e-05 0)
(12.7278 2.80952e-05 0)
(12.7287 -1.52566e-05 0)
(12.7307 -3.63286e-05 0)
(12.7344 -3.25109e-05 0)
(12.7307 3.30718e-06 0)
(12.7328 -2.83778e-05 0)
(12.7346 -4.30349e-05 0)
(12.7376 -3.31301e-05 0)
(12.7323 1.38528e-05 0)
(12.7335 -2.12734e-05 0)
(12.7352 -3.67044e-05 0)
(12.738 -3.61225e-05 0)
(12.7358 -7.72845e-06 0)
(12.7373 -3.09799e-05 0)
(12.7388 -4.1936e-05 0)
(12.741 -3.8673e-05 0)
(12.7382 -6.68135e-06 0)
(12.7393 -2.80462e-05 0)
(12.7404 -3.74403e-05 0)
(12.7422 -4.01541e-05 0)
(12.7417 -2.46382e-05 0)
(12.7428 -3.48997e-05 0)
(12.7435 -3.96223e-05 0)
(12.7448 -4.44918e-05 0)
(12.7456 -3.67403e-05 0)
(12.7462 -3.72218e-05 0)
(12.7465 -3.85991e-05 0)
(12.7472 -4.33122e-05 0)
(12.7486 -4.56392e-05 0)
(12.7491 -3.50491e-05 0)
(12.747 -2.54197e-05 0)
(12.7502 -3.29135e-05 0)
(32.8359 0.0703098 0)
(26.6812 0.0563931 0)
(17.413 0.049309 0)
(14.1268 0.0177531 0)
(13.0649 0.00584159 0)
(12.6824 0.00222891 0)
(12.5084 0.00104987 0)
(12.4247 0.000492222 0)
(12.3886 0.000159795 0)
(12.3858 -6.243e-05 0)
(12.4026 -0.000186122 0)
(12.4377 -0.0003164 0)
(12.484 -0.000402704 0)
(12.5383 -0.00044911 0)
(12.5938 -0.000434617 0)
(12.6518 -0.000447509 0)
(12.7075 -0.000436095 0)
(12.7601 -0.000391557 0)
(12.8019 -0.000286156 0)
(12.8415 -0.000269965 0)
(12.8751 -0.000243405 0)
(12.9046 -0.000206971 0)
(12.9252 -0.000125836 0)
(12.9444 -0.000124317 0)
(12.9598 -0.00012024 0)
(12.9741 -9.1784e-05 0)
(12.9782 1.14201e-06 0)
(12.9858 -2.87146e-05 0)
(12.9919 -4.37943e-05 0)
(12.9988 -4.16146e-05 0)
(12.9997 1.48892e-05 0)
(13.0035 -1.59016e-05 0)
(13.0065 -4.09725e-05 0)
(13.012 -2.38104e-05 0)
(13.0064 6.44156e-05 0)
(13.0073 1.34091e-05 0)
(13.0085 -1.80937e-05 0)
(13.0125 -1.91598e-05 0)
(13.0092 3.78314e-05 0)
(13.0105 -3.93352e-06 0)
(13.0119 -3.73131e-05 0)
(13.0169 -1.60103e-05 0)
(13.0087 7.61691e-05 0)
(13.0084 1.6302e-05 0)
(13.0091 -2.25985e-05 0)
(13.0138 -2.02245e-05 0)
(13.0093 3.99686e-05 0)
(13.0104 -8.04745e-06 0)
(13.0121 -4.53009e-05 0)
(13.0177 -1.81616e-05 0)
(13.0086 7.66913e-05 0)
(13.0081 1.17862e-05 0)
(13.0091 -3.09498e-05 0)
(13.0144 -2.47507e-05 0)
(13.0095 3.79499e-05 0)
(13.0106 -1.2602e-05 0)
(13.0125 -5.16266e-05 0)
(13.0187 -2.12979e-05 0)
(13.0091 7.56985e-05 0)
(13.0084 7.45279e-06 0)
(13.0099 -3.71415e-05 0)
(13.0156 -2.88732e-05 0)
(13.0106 3.29196e-05 0)
(13.012 -1.71294e-05 0)
(13.0139 -5.37881e-05 0)
(13.0199 -2.40792e-05 0)
(13.0105 6.76574e-05 0)
(13.0102 -6.69139e-07 0)
(13.012 -4.46203e-05 0)
(13.018 -3.50927e-05 0)
(13.0132 2.62196e-05 0)
(13.0148 -2.324e-05 0)
(13.0168 -5.58669e-05 0)
(13.0222 -2.61322e-05 0)
(13.0131 5.93532e-05 0)
(13.0132 -7.76803e-06 0)
(13.0152 -4.65146e-05 0)
(13.0206 -3.66389e-05 0)
(13.0161 1.79816e-05 0)
(13.0182 -3.02874e-05 0)
(13.0205 -5.67055e-05 0)
(13.025 -2.9186e-05 0)
(13.017 4.70592e-05 0)
(13.0176 -1.4978e-05 0)
(13.0197 -4.6784e-05 0)
(13.0242 -3.54011e-05 0)
(13.0198 1.19763e-05 0)
(13.0221 -3.44803e-05 0)
(13.0243 -5.43216e-05 0)
(13.028 -3.08056e-05 0)
(13.0211 3.57476e-05 0)
(13.0221 -1.92753e-05 0)
(13.024 -4.41488e-05 0)
(13.0276 -3.53962e-05 0)
(13.024 5.06823e-06 0)
(13.0261 -3.4306e-05 0)
(13.0279 -5.0715e-05 0)
(13.0308 -3.4008e-05 0)
(13.0256 1.85962e-05 0)
(13.0268 -2.57765e-05 0)
(13.0285 -4.35879e-05 0)
(13.0313 -3.97707e-05 0)
(13.029 -7.71219e-06 0)
(13.0306 -3.6334e-05 0)
(13.032 -4.85106e-05 0)
(13.0342 -4.15539e-05 0)
(13.0315 -5.72409e-06 0)
(13.0325 -3.23886e-05 0)
(13.0336 -4.30889e-05 0)
(13.0354 -4.48103e-05 0)
(13.0349 -2.71848e-05 0)
(13.036 -3.9512e-05 0)
(13.0367 -4.46812e-05 0)
(13.0379 -5.01442e-05 0)
(13.0388 -4.11166e-05 0)
(13.0394 -4.11348e-05 0)
(13.0396 -4.2753e-05 0)
(13.0404 -4.88587e-05 0)
(13.0417 -5.11504e-05 0)
(13.0422 -3.66915e-05 0)
(13.0401 -2.83912e-05 0)
(13.0434 -3.85777e-05 0)
(33.5772 0.0850341 0)
(27.3298 0.0775191 0)
(17.9287 0.0664384 0)
(14.5312 0.0237284 0)
(13.4181 0.00783947 0)
(13.0126 0.00300174 0)
(12.8283 0.00140907 0)
(12.74 0.000659429 0)
(12.7017 0.000214994 0)
(12.6982 -8.09346e-05 0)
(12.7152 -0.000254196 0)
(12.7511 -0.000425909 0)
(12.7987 -0.000539094 0)
(12.8546 -0.000599469 0)
(12.9121 -0.00058795 0)
(12.9724 -0.000602631 0)
(13.0304 -0.000584566 0)
(13.0854 -0.000522635 0)
(13.1295 -0.000395226 0)
(13.1711 -0.00036926 0)
(13.2065 -0.00032948 0)
(13.2375 -0.000276898 0)
(13.2595 -0.000178376 0)
(13.2799 -0.000171401 0)
(13.2963 -0.000161051 0)
(13.3113 -0.000119142 0)
(13.3162 -1.17203e-05 0)
(13.3242 -4.60185e-05 0)
(13.3308 -6.09378e-05 0)
(13.3381 -5.35374e-05 0)
(13.3392 1.09204e-05 0)
(13.3433 -2.4735e-05 0)
(13.3465 -5.27816e-05 0)
(13.3521 -2.59432e-05 0)
(13.3467 7.40696e-05 0)
(13.3477 1.19217e-05 0)
(13.3489 -2.4643e-05 0)
(13.353 -2.16916e-05 0)
(13.3498 4.2851e-05 0)
(13.3512 -7.28154e-06 0)
(13.3526 -4.6294e-05 0)
(13.3574 -1.41817e-05 0)
(13.3494 9.06625e-05 0)
(13.3492 1.68453e-05 0)
(13.3499 -2.94852e-05 0)
(13.3544 -2.21604e-05 0)
(13.3501 4.66404e-05 0)
(13.3511 -1.17355e-05 0)
(13.3528 -5.58839e-05 0)
(13.3583 -1.62337e-05 0)
(13.3495 9.24255e-05 0)
(13.3489 1.19639e-05 0)
(13.3499 -3.94534e-05 0)
(13.3551 -2.72178e-05 0)
(13.3503 4.48919e-05 0)
(13.3514 -1.68583e-05 0)
(13.3533 -6.3398e-05 0)
(13.3593 -1.96706e-05 0)
(13.3499 9.19249e-05 0)
(13.3493 7.02219e-06 0)
(13.3507 -4.69105e-05 0)
(13.3562 -3.20509e-05 0)
(13.3514 3.91799e-05 0)
(13.3528 -2.19742e-05 0)
(13.3546 -6.55075e-05 0)
(13.3605 -2.26811e-05 0)
(13.3513 8.26903e-05 0)
(13.351 -2.42643e-06 0)
(13.3527 -5.56349e-05 0)
(13.3586 -3.924e-05 0)
(13.3539 3.15993e-05 0)
(13.3555 -2.88932e-05 0)
(13.3575 -6.73082e-05 0)
(13.3627 -2.45933e-05 0)
(13.3539 7.30413e-05 0)
(13.3539 -1.06651e-05 0)
(13.3559 -5.72658e-05 0)
(13.3612 -4.05919e-05 0)
(13.3568 2.19354e-05 0)
(13.3588 -3.72013e-05 0)
(13.3611 -6.77421e-05 0)
(13.3656 -2.81298e-05 0)
(13.3577 5.8279e-05 0)
(13.3582 -1.90208e-05 0)
(13.3603 -5.68223e-05 0)
(13.3647 -3.84102e-05 0)
(13.3604 1.51221e-05 0)
(13.3627 -4.19274e-05 0)
(13.3649 -6.42108e-05 0)
(13.3685 -3.01134e-05 0)
(13.3617 4.45644e-05 0)
(13.3626 -2.38901e-05 0)
(13.3646 -5.29887e-05 0)
(13.3681 -3.83117e-05 0)
(13.3646 7.14751e-06 0)
(13.3666 -4.10112e-05 0)
(13.3684 -5.92353e-05 0)
(13.3713 -3.44134e-05 0)
(13.3661 2.41338e-05 0)
(13.3673 -3.08656e-05 0)
(13.369 -5.12747e-05 0)
(13.3717 -4.3537e-05 0)
(13.3695 -7.54739e-06 0)
(13.3711 -4.22809e-05 0)
(13.3725 -5.5704e-05 0)
(13.3746 -4.42959e-05 0)
(13.3719 -4.42324e-06 0)
(13.3729 -3.71457e-05 0)
(13.374 -4.92476e-05 0)
(13.3758 -4.97069e-05 0)
(13.3753 -2.98269e-05 0)
(13.3763 -4.44645e-05 0)
(13.3771 -5.00733e-05 0)
(13.3783 -5.61339e-05 0)
(13.3792 -4.57891e-05 0)
(13.3797 -4.5179e-05 0)
(13.38 -4.70633e-05 0)
(13.3807 -5.46913e-05 0)
(13.382 -5.70871e-05 0)
(13.3826 -3.78162e-05 0)
(13.3804 -3.14356e-05 0)
(13.3838 -4.21835e-05 0)
(34.1053 0.0983955 0)
(28.0079 0.102742 0)
(18.5408 0.0871704 0)
(15.0107 0.0311259 0)
(13.833 0.0103507 0)
(13.3981 0.00398144 0)
(13.2007 0.00186333 0)
(13.1062 0.000870732 0)
(13.065 0.000286006 0)
(13.0603 -0.000101752 0)
(13.0774 -0.000337181 0)
(13.1141 -0.000559984 0)
(13.163 -0.00070652 0)
(13.2207 -0.000784772 0)
(13.2806 -0.000778199 0)
(13.3434 -0.000795453 0)
(13.4042 -0.000769446 0)
(13.4618 -0.000686668 0)
(13.5087 -0.000533335 0)
(13.5528 -0.000494698 0)
(13.5905 -0.000438057 0)
(13.6234 -0.000365361 0)
(13.6471 -0.000245923 0)
(13.6689 -0.000231432 0)
(13.6864 -0.000212616 0)
(13.7024 -0.000154181 0)
(13.7082 -3.00097e-05 0)
(13.717 -6.8759e-05 0)
(13.7241 -8.27794e-05 0)
(13.7317 -6.88292e-05 0)
(13.7334 4.69105e-06 0)
(13.7377 -3.61981e-05 0)
(13.7411 -6.71844e-05 0)
(13.7468 -2.8791e-05 0)
(13.7418 8.43057e-05 0)
(13.7429 9.53079e-06 0)
(13.7442 -3.25529e-05 0)
(13.7483 -2.47525e-05 0)
(13.7452 4.81383e-05 0)
(13.7466 -1.14778e-05 0)
(13.748 -5.66744e-05 0)
(13.7528 -1.18296e-05 0)
(13.7451 0.000107009 0)
(13.7448 1.72262e-05 0)
(13.7455 -3.74639e-05 0)
(13.7499 -2.42843e-05 0)
(13.7457 5.40513e-05 0)
(13.7468 -1.61509e-05 0)
(13.7484 -6.79882e-05 0)
(13.7538 -1.36594e-05 0)
(13.7452 0.000110325 0)
(13.7446 1.20272e-05 0)
(13.7456 -4.92241e-05 0)
(13.7506 -2.98913e-05 0)
(13.746 5.26776e-05 0)
(13.747 -2.18668e-05 0)
(13.7489 -7.68236e-05 0)
(13.7547 -1.73994e-05 0)
(13.7457 0.000110442 0)
(13.745 6.42112e-06 0)
(13.7463 -5.81225e-05 0)
(13.7517 -3.55263e-05 0)
(13.7471 4.6217e-05 0)
(13.7484 -2.76116e-05 0)
(13.7502 -7.88184e-05 0)
(13.7559 -2.0627e-05 0)
(13.747 9.98868e-05 0)
(13.7466 -4.51729e-06 0)
(13.7483 -6.82506e-05 0)
(13.7541 -4.38016e-05 0)
(13.7496 3.76712e-05 0)
(13.7511 -3.54035e-05 0)
(13.753 -8.02352e-05 0)
(13.7581 -2.23183e-05 0)
(13.7495 8.87477e-05 0)
(13.7495 -1.40213e-05 0)
(13.7514 -6.95285e-05 0)
(13.7565 -4.48851e-05 0)
(13.7523 2.64113e-05 0)
(13.7543 -4.51342e-05 0)
(13.7565 -8.01771e-05 0)
(13.7609 -2.63967e-05 0)
(13.7532 7.11794e-05 0)
(13.7537 -2.36615e-05 0)
(13.7557 -6.82201e-05 0)
(13.76 -4.15621e-05 0)
(13.7558 1.87327e-05 0)
(13.7581 -5.04322e-05 0)
(13.7602 -7.52992e-05 0)
(13.7637 -2.87976e-05 0)
(13.7572 5.47211e-05 0)
(13.758 -2.91717e-05 0)
(13.7599 -6.29866e-05 0)
(13.7634 -4.13415e-05 0)
(13.76 9.58236e-06 0)
(13.7619 -4.8613e-05 0)
(13.7637 -6.87223e-05 0)
(13.7665 -3.4373e-05 0)
(13.7615 3.05831e-05 0)
(13.7626 -3.66218e-05 0)
(13.7642 -5.98846e-05 0)
(13.7669 -4.75121e-05 0)
(13.7648 -7.22665e-06 0)
(13.7663 -4.89269e-05 0)
(13.7676 -6.36235e-05 0)
(13.7697 -4.69654e-05 0)
(13.7671 -2.73453e-06 0)
(13.7681 -4.23964e-05 0)
(13.7691 -5.60108e-05 0)
(13.7709 -5.49524e-05 0)
(13.7705 -3.25938e-05 0)
(13.7714 -4.98469e-05 0)
(13.7722 -5.58822e-05 0)
(13.7734 -6.26165e-05 0)
(13.7742 -5.07868e-05 0)
(13.7748 -4.94273e-05 0)
(13.775 -5.15954e-05 0)
(13.7758 -6.10049e-05 0)
(13.777 -6.34684e-05 0)
(13.7776 -3.86131e-05 0)
(13.7755 -3.46134e-05 0)
(13.7789 -4.68572e-05 0)
(34.4565 0.112141 0)
(28.7262 0.132324 0)
(19.2617 0.112178 0)
(15.5766 0.0403413 0)
(14.3189 0.0135397 0)
(13.8469 0.00523861 0)
(13.6327 0.00244549 0)
(13.53 0.00114189 0)
(13.4849 0.000379596 0)
(13.4785 -0.000123658 0)
(13.4952 -0.000437517 0)
(13.5325 -0.00072382 0)
(13.5828 -0.000912191 0)
(13.6425 -0.00101367 0)
(13.7049 -0.0010149 0)
(13.7706 -0.00103607 0)
(13.8346 -0.00100087 0)
(13.8954 -0.0008933 0)
(13.9457 -0.00070919 0)
(13.9927 -0.000654145 0)
(14.0329 -0.000576049 0)
(14.0682 -0.000478271 0)
(14.094 -0.000333334 0)
(14.1175 -0.000308533 0)
(14.1364 -0.000278405 0)
(14.1535 -0.000199684 0)
(14.1605 -5.57717e-05 0)
(14.1701 -9.87066e-05 0)
(14.1778 -0.000110843 0)
(14.186 -8.87388e-05 0)
(14.1882 -4.68339e-06 0)
(14.1929 -5.11081e-05 0)
(14.1966 -8.49375e-05 0)
(14.2024 -3.28724e-05 0)
(14.1978 9.49818e-05 0)
(14.1991 6.00048e-06 0)
(14.2004 -4.21341e-05 0)
(14.2045 -2.85995e-05 0)
(14.2017 5.36409e-05 0)
(14.2031 -1.66833e-05 0)
(14.2046 -6.87048e-05 0)
(14.2092 -9.04086e-06 0)
(14.2018 0.000125446 0)
(14.2015 1.74954e-05 0)
(14.2022 -4.66557e-05 0)
(14.2065 -2.67002e-05 0)
(14.2025 6.22865e-05 0)
(14.2035 -2.13674e-05 0)
(14.2051 -8.18215e-05 0)
(14.2103 -1.04762e-05 0)
(14.202 0.000130688 0)
(14.2014 1.20574e-05 0)
(14.2023 -6.03843e-05 0)
(14.2072 -3.28705e-05 0)
(14.2028 6.14052e-05 0)
(14.2038 -2.76968e-05 0)
(14.2056 -9.2119e-05 0)
(14.2112 -1.45228e-05 0)
(14.2025 0.000131556 0)
(14.2018 5.72178e-06 0)
(14.203 -7.09244e-05 0)
(14.2083 -3.94181e-05 0)
(14.2038 5.41136e-05 0)
(14.2051 -3.41171e-05 0)
(14.2069 -9.39282e-05 0)
(14.2123 -1.79533e-05 0)
(14.2038 0.000119529 0)
(14.2034 -6.90424e-06 0)
(14.205 -8.26475e-05 0)
(14.2106 -4.89243e-05 0)
(14.2063 4.44956e-05 0)
(14.2077 -4.286e-05 0)
(14.2096 -9.48477e-05 0)
(14.2145 -1.93362e-05 0)
(14.2062 0.000106733 0)
(14.2062 -1.78208e-05 0)
(14.208 -8.34807e-05 0)
(14.213 -4.96616e-05 0)
(14.209 3.14438e-05 0)
(14.2108 -5.42043e-05 0)
(14.2129 -9.42152e-05 0)
(14.2172 -2.40302e-05 0)
(14.2098 8.59714e-05 0)
(14.2103 -2.89168e-05 0)
(14.2121 -8.11515e-05 0)
(14.2164 -4.49798e-05 0)
(14.2124 2.28378e-05 0)
(14.2145 -6.01217e-05 0)
(14.2166 -8.77789e-05 0)
(14.2199 -2.691e-05 0)
(14.2137 6.6381e-05 0)
(14.2144 -3.51621e-05 0)
(14.2163 -7.43073e-05 0)
(14.2196 -4.46039e-05 0)
(14.2164 1.23874e-05 0)
(14.2182 -5.72288e-05 0)
(14.2199 -7.93465e-05 0)
(14.2226 -3.39537e-05 0)
(14.2178 3.80456e-05 0)
(14.2189 -4.31097e-05 0)
(14.2204 -6.95701e-05 0)
(14.2231 -5.18226e-05 0)
(14.2211 -6.7711e-06 0)
(14.2225 -5.63875e-05 0)
(14.2238 -7.24268e-05 0)
(14.2258 -4.96677e-05 0)
(14.2233 -6.44729e-07 0)
(14.2243 -4.82209e-05 0)
(14.2253 -6.35187e-05 0)
(14.227 -6.06872e-05 0)
(14.2266 -3.55651e-05 0)
(14.2275 -5.57704e-05 0)
(14.2283 -6.22696e-05 0)
(14.2294 -6.97596e-05 0)
(14.2302 -5.62192e-05 0)
(14.2308 -5.39555e-05 0)
(14.231 -5.65121e-05 0)
(14.2317 -6.79476e-05 0)
(14.233 -7.04726e-05 0)
(14.2335 -3.90564e-05 0)
(14.2314 -3.93806e-05 0)
(14.235 -5.31967e-05 0)
(34.6779 0.126345 0)
(29.4857 0.166395 0)
(20.1019 0.142224 0)
(16.2407 0.0518867 0)
(14.885 0.0176301 0)
(14.3667 0.00687181 0)
(14.1309 0.00320195 0)
(14.0178 0.00149563 0)
(13.9674 0.000506112 0)
(13.9583 -0.000143861 0)
(13.9744 -0.000557502 0)
(14.012 -0.000923397 0)
(14.0636 -0.00116475 0)
(14.1254 -0.00129681 0)
(14.1906 -0.00131009 0)
(14.2595 -0.00133734 0)
(14.3271 -0.00129183 0)
(14.3916 -0.00115504 0)
(14.4457 -0.000934358 0)
(14.4961 -0.000858072 0)
(14.5395 -0.000752621 0)
(14.5774 -0.00062349 0)
(14.6058 -0.000447211 0)
(14.6313 -0.000408285 0)
(14.6519 -0.000363021 0)
(14.6703 -0.000259372 0)
(14.6788 -9.19661e-05 0)
(14.6893 -0.00013837 0)
(14.6979 -0.000147185 0)
(14.7066 -0.000114949 0)
(14.7095 -1.85216e-05 0)
(14.7146 -7.06177e-05 0)
(14.7187 -0.000106983 0)
(14.7246 -3.88573e-05 0)
(14.7206 0.000105697 0)
(14.722 9.08026e-07 0)
(14.7235 -5.37712e-05 0)
(14.7276 -3.35504e-05 0)
(14.725 5.91787e-05 0)
(14.7265 -2.31382e-05 0)
(14.7279 -8.26056e-05 0)
(14.7325 -5.88377e-06 0)
(14.7255 0.000146095 0)
(14.7252 1.7637e-05 0)
(14.7258 -5.71571e-05 0)
(14.7299 -2.95005e-05 0)
(14.7262 7.13622e-05 0)
(14.7271 -2.74857e-05 0)
(14.7287 -9.75205e-05 0)
(14.7337 -6.67476e-06 0)
(14.7258 0.00015372 0)
(14.7252 1.20958e-05 0)
(14.726 -7.30089e-05 0)
(14.7307 -3.62286e-05 0)
(14.7265 7.11155e-05 0)
(14.7274 -3.44314e-05 0)
(14.7291 -0.000109416 0)
(14.7346 -1.10246e-05 0)
(14.7263 0.000155489 0)
(14.7255 4.96395e-06 0)
(14.7267 -8.54109e-05 0)
(14.7317 -4.38153e-05 0)
(14.7275 6.29011e-05 0)
(14.7288 -4.15709e-05 0)
(14.7304 -0.000110954 0)
(14.7356 -1.46346e-05 0)
(14.7275 0.000141823 0)
(14.7271 -9.57297e-06 0)
(14.7286 -9.89475e-05 0)
(14.7339 -5.472e-05 0)
(14.7299 5.20886e-05 0)
(14.7313 -5.13461e-05 0)
(14.733 -0.000111248 0)
(14.7377 -1.56055e-05 0)
(14.7298 0.000127196 0)
(14.7298 -2.20611e-05 0)
(14.7314 -9.92374e-05 0)
(14.7362 -5.50238e-05 0)
(14.7324 3.7033e-05 0)
(14.7342 -6.45175e-05 0)
(14.7363 -0.000109964 0)
(14.7403 -2.10001e-05 0)
(14.7333 0.000102812 0)
(14.7337 -3.48101e-05 0)
(14.7355 -9.57259e-05 0)
(14.7395 -4.87392e-05 0)
(14.7357 2.74446e-05 0)
(14.7378 -7.11018e-05 0)
(14.7397 -0.000101746 0)
(14.743 -2.44255e-05 0)
(14.737 7.96621e-05 0)
(14.7377 -4.19071e-05 0)
(14.7394 -8.70534e-05 0)
(14.7427 -4.81664e-05 0)
(14.7396 1.55645e-05 0)
(14.7414 -6.69493e-05 0)
(14.743 -9.11844e-05 0)
(14.7456 -3.31402e-05 0)
(14.741 4.65977e-05 0)
(14.7421 -5.03836e-05 0)
(14.7435 -8.04162e-05 0)
(14.746 -5.65313e-05 0)
(14.7441 -6.19382e-06 0)