/*--------------------------------*- C++ -*----------------------------------*\
  =========                 |
  \\      /  F ield         | OpenFOAM: The Open Source CFD Toolbox
   \\    /   O peration     | Website:  https://openfoam.org
    \\  /    A nd           | Version:  7
     \\/     M anipulation  |
\*---------------------------------------------------------------------------*/
FoamFile
{
    version     2.0;
    format      ascii;
    class       volScalarField;
    location    "2.5";
    object      T;
}
// * * * * * * * * * * * * * * * * * * * * * * * * * * * * * * * * * * * * * //

dimensions      [0 0 0 1 0 0 0];

internalField   nonuniform List<scalar> 
32100
(
1.17612e+67
-1.98859e+66
1.10017e+65
1.58207e+64
-2.03707e+63
-1.06918e+62
2.52524e+61
-1.96957e+60
-2.05208e+59
3.73204e+58
1.08437e+57
-8.86732e+55
5.37641e+53
4.55629e+53
1.64482e+53
-2.19526e+66
1.12982e+65
1.70618e+64
-2.10056e+63
-1.13567e+62
2.61479e+61
-1.99959e+60
-2.11966e+59
3.8959e+58
2.3984e+57
1.28755e+56
-1.18255e+56
3.02661e+54
3.78323e+53
1.22589e+53
1.13234e+65
1.89006e+64
-2.19433e+63
-1.21045e+62
2.75066e+61
-2.05335e+60
-2.25222e+59
3.91671e+58
1.57079e+57
-6.63547e+56
-5.89519e+55
-7.1609e+55
4.20244e+54
3.68244e+53
1.00824e+53
2.14819e+64
-2.34881e+63
-1.42053e+62
3.02994e+61
-1.84688e+60
-2.56911e+59
3.53561e+58
1.83577e+57
-6.25485e+56
-1.9165e+55
-5.56302e+55
-2.93517e+55
4.03728e+54
3.89357e+53
7.41787e+52
-2.37264e+63
-1.92443e+62
2.35071e+61
-6.28774e+59
-1.96803e+58
1.69961e+58
-2.8454e+57
-5.36882e+56
2.64369e+55
-1.90677e+55
-1.64958e+55
-7.19496e+54
3.09516e+54
3.53408e+53
4.34984e+52
-1.41761e+62
-1.82746e+60
-9.48656e+60
1.11209e+60
2.7323e+59
-1.92893e+58
-5.44858e+57
6.07548e+55
-6.21682e+54
-8.28313e+54
-7.1703e+51
3.39216e+53
1.96723e+54
2.54811e+53
1.78412e+52
7.3188e+61
-3.4569e+61
-7.69094e+60
1.29487e+60
2.39353e+59
-1.90224e+58
-4.87771e+57
-2.10461e+55
-7.03744e+54
-6.24812e+54
1.78978e+54
1.49693e+54
1.02901e+54
1.39541e+53
1.56976e+51
2.97385e+61
-2.95235e+61
-7.39306e+60
1.12362e+60
2.40887e+59
-1.52161e+58
-4.95332e+57
-6.33984e+55
-3.82797e+54
-6.82115e+54
1.01796e+54
9.03583e+53
4.23227e+53
5.22452e+52
-5.45055e+51
2.79344e+61
-2.60551e+61
-7.41724e+60
9.83896e+59
2.44321e+59
-1.19658e+58
-4.94158e+57
-1.01862e+56
-1.26366e+54
-7.11322e+54
2.77633e+53
3.54504e+53
1.24957e+53
7.54725e+51
-6.11473e+51
2.50338e+61
-2.30969e+61
-7.35769e+60
8.44399e+59
2.45367e+59
-8.59252e+57
-4.87952e+57
-1.41667e+56
1.08085e+54
-6.83319e+54
-3.64515e+52
1.70875e+53
2.10494e+52
-5.81551e+51
-4.06546e+51
2.20134e+61
-2.03121e+61
-7.26376e+60
7.04303e+59
2.4491e+59
-5.2041e+57
-4.77265e+57
-1.81208e+56
2.87536e+54
-6.29485e+54
-1.67169e+53
1.2796e+53
1.28409e+51
-5.22238e+51
-1.87808e+51
1.91789e+61
-1.79807e+61
-7.09109e+60
5.66569e+59
2.43114e+59
-1.87013e+57
-4.62398e+57
-2.19272e+56
3.92642e+54
-5.65972e+54
-2.36995e+53
1.07648e+53
4.00048e+51
-2.11411e+51
-5.42965e+50
1.52415e+61
-1.62926e+61
-6.56521e+60
4.53353e+59
2.39157e+59
1.32433e+57
-4.4403e+57
-2.54527e+56
4.17397e+54
-5.00765e+54
-2.80771e+53
8.68074e+52
5.47236e+51
-5.25308e+50
-5.70826e+49
7.04846e+60
-1.31168e+61
-5.20378e+60
3.14309e+59
2.12375e+59
3.99363e+57
-4.18283e+57
-2.84906e+56
3.60253e+54
-4.37536e+54
-3.25348e+53
7.32732e+52
4.7986e+51
-2.02328e+50
1.79819e+49
6.61056e+59
-9.02831e+60
-4.1585e+60
1.85943e+59
1.72998e+59
5.38256e+57
-3.57871e+57
-2.95528e+56
2.57678e+54
-3.85367e+54
-3.86405e+53
7.46932e+52
5.776e+51
-1.25363e+50
3.65272e+49
3.12786e+60
-6.27147e+60
-3.64343e+60
9.59751e+58
1.4732e+59
6.57582e+57
-3.02744e+57
-3.05417e+56
1.52325e+54
-3.42728e+54
-4.57865e+53
7.64677e+52
8.16383e+51
-1.16927e+50
4.73819e+49
4.44981e+60
-5.0161e+60
-3.35412e+60
3.40253e+58
1.35694e+59
8.23906e+57
-2.72078e+57
-3.27463e+56
6.8222e+52
-3.00887e+54
-5.20922e+53
6.93718e+52
1.00441e+52
-9.38323e+49
5.19748e+49
3.61054e+60
-4.28589e+60
-3.1989e+60
-1.70835e+58
1.29362e+59
9.88313e+57
-2.47413e+57
-3.5459e+56
-2.1668e+54
-2.57453e+54
-5.72844e+53
5.81745e+52
1.13015e+52
-2.7385e+49
4.89894e+49
2.95837e+60
-3.65994e+60
-3.02813e+60
-6.46996e+58
1.22636e+59
1.15575e+58
-2.21906e+57
-3.84218e+56
-5.18891e+54
-2.13298e+54
-6.13242e+53
4.47789e+52
1.20709e+52
7.25204e+49
4.03191e+49
2.31397e+60
-3.08439e+60
-2.83874e+60
-1.11055e+59
1.14974e+59
1.324e+58
-1.92957e+57
-4.12937e+56
-9.02904e+54
-1.70202e+54
-6.41654e+53
3.08873e+52
1.28611e+52
1.98095e+50
2.87647e+49
1.65856e+60
-2.56423e+60
-2.6313e+60
-1.55257e+59
1.06404e+59
1.48893e+58
-1.5971e+57
-4.3878e+56
-1.37281e+55
-1.3011e+54
-6.57226e+53
1.58244e+52
1.32807e+52
3.41817e+50
1.57421e+49
1.06696e+60
-2.09031e+60
-2.41698e+60
-1.96613e+59
9.69124e+58
1.64758e+58
-1.21796e+57
-4.61218e+56
-1.93701e+55
-9.49683e+53
-6.61111e+53
1.7052e+50
1.30097e+52
4.84614e+50
3.77513e+48
5.80805e+59
-1.6681e+60
-2.20399e+60
-2.34039e+59
8.65386e+58
1.79566e+58
-7.91102e+56
-4.79424e+56
-2.6095e+55
-6.6825e+53
-6.56041e+53
-1.52961e+52
1.26285e+52
6.27558e+50
-4.98103e+48
1.95664e+59
-1.29877e+60
-1.99275e+60
-2.66812e+59
7.52094e+58
1.92118e+58
-3.16717e+56
-4.92246e+56
-3.40529e+55
-4.8233e+53
-6.43461e+53
-3.09258e+52
1.23071e+52
7.82225e+50
-1.02144e+49
-1.0106e+59
-9.86557e+59
-1.78808e+60
-2.94927e+59
6.30264e+58
2.0195e+58
2.05458e+56
-4.97331e+56
-4.33922e+55
-4.25811e+53
-6.21103e+53
-4.73859e+52
1.19615e+52
9.59754e+50
-1.23428e+49
-3.21054e+59
-7.29304e+59
-1.58731e+60
-3.17698e+59
5.01229e+58
2.08899e+58
7.7357e+56
-4.91348e+56
-5.42438e+55
-5.46654e+53
-5.86529e+53
-6.57059e+52
1.15341e+52
1.17837e+51
-1.17997e+49
-4.74985e+59
-5.13968e+59
-1.39199e+60
-3.35252e+59
3.65899e+58
2.12553e+58
1.38551e+57
-4.71171e+56
-6.6636e+55
-9.08006e+53
-5.35558e+53
-8.56452e+52
1.07308e+52
1.43355e+51
-8.00632e+48
-5.99419e+59
-3.35309e+59
-1.20994e+60
-3.48612e+59
2.25322e+58
2.12329e+58
2.03758e+57
-4.32926e+56
-8.02997e+55
-1.60872e+54
-4.66608e+53
-1.05121e+53
9.16684e+51
1.68001e+51
2.74737e+47
-7.12829e+59
-2.02698e+59
-1.04508e+60
-3.57823e+59
8.06507e+57
2.07801e+58
2.72639e+57
-3.72443e+56
-9.49722e+55
-2.77628e+54
-3.82448e+53
-1.24029e+53
6.93186e+51
1.9241e+51
1.35945e+49
-8.00831e+59
-1.22046e+59
-8.94459e+59
-3.61279e+59
-6.62897e+57
1.98338e+58
3.44436e+57
-2.84374e+56
-1.10532e+56
-4.55176e+54
-2.89258e+53
-1.42038e+53
3.94662e+51
2.17349e+51
3.23648e+49
-8.36844e+59
-7.89115e+58
-7.49929e+59
-3.57253e+59
-2.1282e+58
1.83136e+58
4.17971e+57
-1.61548e+56
-1.26435e+56
-7.15293e+54
-1.96638e+53
-1.55676e+53
5.7131e+49
2.3583e+51
5.5785e+49
-8.1316e+59
-4.30608e+58
-6.06073e+59
-3.4653e+59
-3.5547e+58
1.61484e+58
4.90955e+57
4.61712e+54
-1.41391e+56
-1.08325e+55
-1.24332e+53
-1.62563e+53
-4.38476e+51
2.48626e+51
8.41847e+49
-7.65229e+59
-1.91896e+57
-4.75097e+59
-3.29879e+59
-4.90279e+58
1.32578e+58
5.59141e+57
2.2248e+56
-1.52779e+56
-1.59156e+55
-1.13276e+53
-1.67781e+53
-9.85158e+51
2.67684e+51
1.25174e+50
-7.3255e+59
2.58052e+58
-3.6627e+59
-3.08282e+59
-6.15838e+58
9.59692e+57
6.17448e+57
4.95726e+56
-1.56541e+56
-2.26729e+55
-2.34256e+53
-1.72211e+53
-1.79224e+52
2.95753e+51
1.94795e+50
-7.05754e+59
2.1424e+58
-2.76724e+59
-2.82816e+59
-7.31044e+58
5.13324e+57
6.58028e+57
8.19744e+56
-1.47438e+56
-3.12862e+55
-6.06959e+53
-1.63682e+53
-2.93684e+52
3.1652e+51
3.14245e+50
-6.66367e+59
1.61489e+56
-1.98264e+59
-2.54206e+59
-8.32582e+58
-1.70114e+56
6.65607e+57
1.18205e+57
-1.19262e+56
-4.15308e+55
-1.43399e+54
-1.35609e+53
-4.48728e+52
2.98368e+51
5.12958e+50
-6.18856e+59
-1.8714e+58
-1.29962e+59
-2.23787e+59
-9.17078e+58
-6.228e+57
6.3238e+57
1.56782e+57
-6.59829e+55
-5.24757e+55
-2.98062e+54
-8.61414e+52
-6.40988e+52
1.76952e+51
8.22572e+50
-5.68231e+59
-3.88232e+58
-7.45982e+58
-1.9187e+59
-9.78369e+58
-1.27462e+58
5.56531e+57
1.95322e+57
1.75385e+55
-6.25114e+55
-5.50544e+54
-3.42002e+52
-8.12942e+52
-1.31546e+51
1.23211e+51
-5.13804e+59
-6.41415e+58
-3.28584e+58
-1.57898e+59
-1.0033e+59
-1.91957e+58
4.33822e+57
2.302e+57
1.33146e+56
-6.88365e+55
-9.12085e+54
-3.76672e+52
-8.93835e+52
-6.98141e+51
1.65444e+51
-4.54905e+59
-9.33038e+58
-5.27348e+57
-1.23418e+59
-9.73704e+58
-2.50679e+58
2.62754e+57
2.56498e+57
2.75819e+56
-6.78017e+55
-1.36859e+55
-1.82762e+53
-8.10125e+52
-1.60883e+52
1.87552e+51
-3.89411e+59
-1.21865e+59
7.6945e+57
-9.03663e+58
-8.95625e+58
-2.99211e+58
4.98513e+56
2.66224e+57
4.35168e+56
-5.68272e+55
-1.87693e+55
-5.6899e+53
-4.3982e+52
-2.8664e+52
1.39302e+51
-3.18751e+59
-1.40622e+59
8.30623e+57
-6.0722e+58
-7.9192e+58
-3.34396e+58
-1.88033e+57
2.58217e+57
6.05925e+56
-3.52704e+55
-2.34862e+55
-1.26386e+54
1.43326e+52
-3.78967e+52
-1.6817e+50
-2.51453e+59
-1.4435e+59
1.87462e+57
-3.65168e+58
-6.76568e+58
-3.54884e+58
-4.31691e+57
2.27784e+57
7.84809e+56
-3.62199e+54
-2.62436e+55
-2.1314e+54
6.60652e+52
-3.99981e+52
-2.62196e+51
-1.94782e+59
-1.37009e+59
-5.70548e+57
-1.86976e+58
-5.58162e+58
-3.61211e+58
-6.63474e+57
1.78897e+57
8.89997e+56
3.5097e+55
-2.72647e+55
-3.05075e+54
9.74547e+52
-3.61116e+52
-5.59898e+51
-1.50146e+59
-1.25531e+59
-1.27622e+58
-6.81092e+57
-4.44032e+58
-3.55982e+58
-8.71304e+57
1.18973e+57
9.24946e+56
7.18366e+55
-2.73444e+55
-3.84549e+54
8.79797e+52
-3.09087e+52
-1.30113e+52
-1.15982e+59
-1.14059e+59
-1.98027e+58
5.19513e+56
-3.39643e+58
-3.42573e+58
-1.05487e+58
5.43052e+56
9.32813e+56
1.03133e+56
-2.38163e+55
-4.0761e+54
5.18036e+52
-1.02145e+52
-8.60722e+51
-8.93917e+58
-1.0333e+59
-2.68216e+58
4.40273e+57
-2.47806e+58
-3.23804e+58
-1.21892e+58
-1.22261e+56
9.15663e+56
1.31621e+56
-1.95091e+55
-4.04382e+54
1.78749e+52
-1.17062e+51
-4.3075e+51
-6.82757e+58
-9.27136e+58
-3.38193e+58
5.25873e+57
-1.68957e+58
-2.99331e+58
-1.35908e+58
-8.07683e+56
9.03839e+56
1.58544e+56
-1.65817e+55
-4.16762e+54
-5.47388e+51
2.70057e+51
-3.18971e+51
-5.11491e+58
-8.17281e+58
-3.96724e+58
3.81664e+57
-1.02166e+58
-2.67752e+58
-1.4585e+58
-1.52131e+57
8.83125e+56
1.87665e+56
-1.40129e+55
-4.41268e+54
-2.83062e+52
4.8566e+51
-3.26883e+51
-3.75322e+58
-7.0421e+58
-4.35665e+58
1.01646e+57
-4.68932e+57
-2.31194e+58
-1.51595e+58
-2.26056e+57
8.32254e+56
2.17357e+56
-1.12955e+55
-4.70027e+54
-5.44384e+52
6.17267e+51
-3.91275e+51
-2.68905e+58
-5.95627e+58
-4.61158e+58
-3.04681e+57
-4.18392e+56
-1.93319e+58
-1.55362e+58
-3.03456e+57
7.50764e+56
2.46068e+56
-8.20718e+54
-4.93404e+54
-8.36244e+52
6.10753e+51
-4.72709e+51
-1.86722e+58
-4.93349e+58
-4.75893e+58
-8.06554e+57
2.55992e+57
-1.54405e+58
-1.57304e+58
-3.87358e+57
6.3618e+56
2.72672e+56
-4.63212e+54
-4.97728e+54
-1.11838e+53
3.93429e+51
-5.39406e+51
-1.26166e+58
-3.95667e+58
-4.68061e+58
-1.30399e+58
4.36019e+57
-1.14122e+58
-1.55629e+58
-4.76857e+57
4.81335e+56
2.96729e+56
-8.35099e+53
-4.79146e+54
-1.3403e+53
-5.23806e+50
-6.45641e+51
-8.28641e+57
-3.07879e+58
-4.38854e+58
-1.77264e+58
4.91211e+57
-7.35631e+57
-1.49704e+58
-5.6844e+57
2.78692e+56
3.16059e+56
2.79711e+54
-4.39922e+54
-1.47742e+53
-6.95514e+51
-9.38475e+51
-5.17046e+57
-2.33759e+58
-4.00823e+58
-2.23106e+58
3.83633e+57
-3.4088e+57
-1.3873e+58
-6.57695e+57
2.37309e+55
3.28624e+56
5.77294e+54
-3.79405e+54
-1.53104e+53
-1.41884e+52
-1.43269e+52
-2.96505e+57
-1.70733e+58
-3.5574e+58
-2.65348e+58
1.198e+57
2.20975e+56
-1.22258e+58
-7.39507e+57
-2.85249e+56
3.32766e+56
7.39167e+54
-2.92818e+54
-1.5461e+53
-1.61713e+52
-1.53089e+52
-1.47688e+57
-1.17324e+58
-3.03097e+58
-2.96615e+58
-2.6886e+57
3.2083e+57
-1.00402e+58
-8.13265e+57
-6.46151e+56
3.16693e+56
7.06448e+54
-1.75426e+54
-1.37892e+53
-1.38121e+52
-1.40873e+52
-5.76017e+56
-7.43423e+57
-2.4528e+58
-3.12345e+58
-7.57241e+57
5.19233e+57
-7.24547e+57
-8.70212e+57
-1.04863e+57
2.80915e+56
5.29856e+54
-5.74796e+53
-1.43145e+53
-2.06782e+52
-1.44321e+52
-1.15954e+56
-4.19773e+57
-1.85746e+58
-3.10326e+58
-1.29318e+58
5.85454e+57
-3.8516e+57
-8.91369e+57
-1.49474e+57
2.37132e+56
3.69717e+54
1.46957e+53
-2.03057e+53
-4.1473e+52
-2.09444e+52
6.46488e+55
-1.97675e+57
-1.28409e+58
-2.89731e+58
-1.81862e+58
4.86216e+57
-3.32537e+55
-8.52319e+57
-1.99852e+57
2.57198e+56
6.23609e+54
1.67118e+53
-2.35893e+53
-1.03659e+53
-5.2404e+52
9.03672e+55
-6.2158e+56
-7.67494e+57
-2.52175e+58
-2.29255e+58
1.85163e+57
3.89136e+57
-7.24416e+57
-2.48424e+57
4.08484e+56
2.35063e+55
-2.09375e+54
-9.07066e+53
-6.09477e+53
-2.45738e+53
3.94808e+55
1.32639e+55
-3.42111e+57
-1.99207e+58
-2.67014e+58
-3.49808e+57
7.2873e+57
-4.9851e+57
-2.79125e+57
3.02689e+56
7.6105e+55
6.33661e+54
8.33991e+54
4.74659e+54
1.33238e+54
-7.12173e+54
8.5705e+55
-4.77109e+56
-1.328e+58
-2.87051e+58
-1.11156e+58
9.13248e+57
-2.0134e+57
-3.22445e+57
-6.97477e+55
1.45373e+56
2.83764e+55
2.1802e+55
2.21084e+55
1.12704e+55
-1.01904e+55
7.56879e+54
7.17258e+56
-5.92385e+57
-2.76843e+58
-2.00383e+58
8.44616e+57
1.61429e+57
-3.35567e+57
-7.01299e+56
-1.90358e+56
-2.18821e+56
-3.42962e+56
-4.36545e+56
-2.46268e+56
1.65196e+55
1.47411e+54
6.44138e+56
-1.80891e+56
-2.24289e+58
-2.83376e+58
4.81644e+57
5.21504e+57
-2.45239e+57
-8.1252e+56
-8.89855e+56
-8.87263e+56
-1.17181e+57
-8.91146e+56
-4.60959e+56
-6.48093e+54
1.51063e+54
1.02049e+57
4.6914e+56
-1.46778e+58
-3.28151e+58
-8.44367e+56
7.4023e+57
-8.58941e+56
-1.7264e+56
-1.94177e+56
-5.07167e+56
-4.80167e+56
-3.18875e+56
-4.50875e+56
1.41517e+58
5.96553e+57
3.35836e+57
-2.15628e+57
-1.40552e+58
-2.88185e+58
-5.19215e+57
7.66365e+57
6.63412e+56
5.58576e+55
-6.39827e+55
-8.69552e+55
-6.25003e+55
-7.65869e+55
-3.87067e+56
-1.88238e+59
-7.6144e+58
-3.03887e+58
-1.46309e+58
-2.18817e+58
-2.53843e+58
8.35269e+56
7.57016e+57
2.19022e+57
-1.62331e+56
-3.21629e+56
-2.21297e+56
-1.57896e+56
-9.67505e+55
-3.1227e+56
3.72244e+59
1.3933e+59
-4.17268e+58
-7.76502e+58
-6.28201e+58
-7.03607e+57
2.73442e+58
1.54604e+58
3.11406e+57
-1.05101e+56
-4.09332e+56
-2.99228e+56
-1.92374e+56
-1.07008e+56
-2.69368e+56
1.58405e+61
4.12944e+60
1.60951e+60
7.92077e+59
4.14859e+59
2.31461e+59
1.02087e+59
2.67106e+58
3.2028e+57
-1.29676e+57
-1.21093e+57
-6.8973e+56
-3.62877e+56
-1.78513e+56
-2.52059e+56
2.85064e+61
1.3466e+61
1.19349e+61
6.56538e+60
3.68062e+60
2.07786e+60
8.44478e+59
2.13222e+59
4.34115e+58
7.09195e+57
6.99571e+56
-3.4407e+55
1.01859e+55
6.62739e+55
2.96094e+56
-3.47619e+63
-4.47201e+62
-6.63211e+61
-6.49261e+60
3.6747e+60
3.40799e+60
1.36174e+60
3.75583e+59
8.95334e+58
2.0794e+58
5.21782e+57
1.74049e+57
8.79998e+56
6.63341e+56
1.36247e+57
2.79788e+64
-8.67744e+62
-8.45992e+62
-2.05655e+62
-3.42505e+61
-9.80069e+59
1.18978e+60
2.67013e+59
4.24428e+57
-4.95235e+58
-5.10115e+58
-3.96502e+58
-2.59408e+58
-1.40089e+58
-1.00165e+58
6.15036e+64
2.87252e+64
-7.2142e+61
-4.29981e+62
-4.47556e+61
-3.29699e+60
-4.76201e+58
1.37087e+59
-6.46939e+58
-1.47056e+58
2.61861e+58
3.21588e+58
1.84634e+58
2.57903e+57
-9.67602e+57
-2.8134e+66
4.67812e+64
3.20513e+64
-4.05528e+63
6.6963e+61
4.08214e+61
2.06843e+60
1.95789e+60
1.80643e+60
1.16094e+60
8.03556e+59
5.42735e+59
3.34737e+59
1.67801e+59
5.49411e+58
1.00306e+66
-2.69337e+66
9.95614e+64
2.36975e+64
-4.6294e+63
7.64725e+61
-3.854e+61
-7.8336e+61
-7.23298e+61
-6.25373e+61
-5.07633e+61
-3.70952e+61
-2.30635e+61
-1.13356e+61
-3.9639e+60
1.74949e+68
-5.23427e+65
-2.44698e+66
9.40599e+64
1.98835e+64
-5.46971e+63
-7.20323e+62
-6.09351e+62
-4.71816e+62
-3.28129e+62
-2.20901e+62
-1.45883e+62
-9.15816e+61
-5.19313e+61
-2.00383e+61
-1.35368e+69
1.61887e+68
-1.29048e+66
-2.33378e+66
9.10778e+64
1.99772e+64
-3.40018e+63
1.62043e+63
1.78789e+63
1.7384e+63
1.55018e+63
1.21717e+63
7.91832e+62
3.87315e+62
1.40335e+62
-2.89852e+69
-1.1727e+69
1.51458e+68
-1.69494e+66
-2.22224e+66
1.06425e+65
2.6457e+64
-3.52064e+63
-3.69088e+63
-6.47231e+63
-7.37709e+63
-6.54414e+63
-4.62528e+63
-2.44976e+63
-9.90728e+62
1.30051e+71
-3.27745e+69
-1.04617e+69
1.44409e+68
-2.09798e+66
-2.3436e+66
-3.82747e+64
-7.89706e+64
-7.43851e+64
-4.47974e+64
-2.5976e+64
-1.48979e+64
-8.47398e+63
-5.14517e+63
-2.6691e+63
-2.18646e+71
3.59422e+71
-8.14088e+69
-3.16184e+69
4.23178e+68
6.40914e+66
2.24529e+66
9.42443e+66
9.21376e+66
8.48865e+66
7.42984e+66
6.11594e+66
4.60091e+66
3.32559e+66
2.45771e+66
-2.46169e+73
-2.55018e+71
3.4222e+71
-6.3325e+69
-3.20273e+69
5.07897e+68
9.01082e+67
6.49147e+67
6.21386e+67
5.13784e+67
3.58328e+67
2.38164e+67
1.62457e+67
1.09895e+67
6.5577e+66
2.85766e+74
-2.29814e+73
-1.0386e+71
3.37343e+71
-3.07906e+69
-2.73858e+69
8.33831e+68
3.56204e+68
2.4543e+68
1.87264e+68
1.34599e+68
8.98874e+67
5.36503e+67
2.85677e+67
1.59572e+67
-6.72587e+74
2.51636e+74
-2.22902e+73
-3.48649e+71
3.74382e+71
3.26886e+70
-1.52914e+69
2.07605e+69
1.56975e+69
9.15039e+68
5.7173e+68
3.36706e+68
1.74646e+68
7.86383e+67
3.83079e+67
-1.16719e+76
-4.74193e+74
2.29302e+74
-2.04889e+73
-5.35083e+70
2.56573e+71
-1.53612e+69
4.8332e+67
1.48387e+69
8.77405e+68
6.14842e+68
4.38419e+68
2.89247e+68
1.66032e+68
9.59548e+67
-6.20448e+74
2.51309e+74
-2.33637e+73
-2.27943e+71
3.15763e+71
-5.5173e+69
-2.88738e+69
1.00893e+69
7.21577e+68
5.84014e+68
4.68582e+68
4.05507e+68
3.1984e+68
2.28657e+68
1.58085e+68
2.92108e+74
-2.41887e+73
-1.15758e+72
1.41762e+71
-6.51805e+69
-7.42578e+69
-1.85536e+69
-9.97242e+67
3.73438e+68
4.15834e+68
3.59269e+68
3.80814e+68
3.28134e+68
2.6563e+68
1.99591e+68
-1.63102e+73
-1.86478e+72
-3.45573e+71
-8.84591e+70
-2.09809e+70
-3.74629e+69
5.31588e+68
1.3544e+69
1.24678e+69
9.54507e+68
7.38792e+68
7.04159e+68
4.51597e+68
2.93339e+68
1.83662e+68
-4.00363e+71
-2.74987e+70
3.70152e+70
2.48506e+70
1.461e+70
8.69821e+69
5.25252e+69
3.21969e+69
2.01095e+69
1.41882e+69
1.26237e+69
1.50188e+69
1.24142e+68
1.98998e+67
4.97834e+66
9.34784e+70
2.58024e+70
1.08618e+70
5.60392e+69
3.06846e+69
1.77097e+69
1.08117e+69
6.98609e+68
5.42707e+68
1.05957e+69
2.94391e+68
-2.74011e+67
6.10195e+66
8.66937e+65
2.15825e+65
1.19824e+69
5.58627e+68
-5.74145e+67
-1.80921e+68
-1.72034e+68
-1.41989e+68
-1.13308e+68
-9.8709e+67
-1.38431e+68
5.61269e+68
8.27535e+68
2.69899e+67
-3.26516e+67
-1.80393e+67
-9.21434e+66
-8.00986e+68
-2.94761e+68
-1.22341e+68
-6.68936e+67
-4.22361e+67
-2.45115e+67
-1.3649e+67
-4.03779e+66
3.08916e+67
1.20628e+68
6.65035e+68
4.39945e+68
2.52051e+68
1.41701e+68
7.95311e+67
6.0558e+67
2.05092e+67
1.17516e+67
8.72076e+66
7.15428e+66
5.26231e+66
1.77273e+66
-8.60452e+65
-1.92541e+66
-9.62963e+66
3.45677e+67
8.15772e+67
8.70818e+67
7.17414e+67
5.43658e+67
4.21427e+66
1.82782e+66
5.23656e+65
1.22172e+65
-3.99744e+64
-1.017e+65
2.84261e+64
1.29691e+65
1.1401e+65
2.76657e+65
-2.72233e+66
-3.77625e+66
-3.22711e+66
-2.59515e+66
-2.16509e+66
-1.05746e+66
-3.85775e+65
-2.05631e+65
-1.44445e+65
-1.14463e+65
-8.64557e+64
-5.0089e+64
-1.72744e+64
1.20763e+64
1.02138e+65
1.3262e+65
2.50266e+64
-3.39216e+64
-4.58705e+64
-4.44401e+64
-2.76048e+64
-1.60967e+64
-1.38591e+63
3.86668e+63
5.62817e+63
5.05432e+63
4.0773e+62
-3.95578e+63
-6.10371e+63
-6.01231e+63
3.87472e+64
5.78654e+64
5.21253e+64
4.25359e+64
3.35498e+64
2.0372e+64
8.13274e+63
3.36993e+63
1.73516e+63
1.03038e+63
6.00371e+62
3.27769e+62
-4.27146e+61
-1.06527e+63
-3.52473e+63
-6.89058e+63
-6.24155e+63
-4.65934e+63
-3.47362e+63
-2.62234e+63
-2.2326e+63
-8.33749e+62
-4.38518e+62
-2.93968e+62
-2.19712e+62
-1.44934e+62
-4.688e+61
3.87607e+61
8.29971e+61
-4.82551e+61
-5.52759e+62
-7.51412e+62
-6.74054e+62
-5.40247e+62
-4.13795e+62
-1.81137e+61
-8.22215e+60
3.47965e+60
5.56863e+60
5.25402e+60
2.31856e+60
-3.23306e+60
-3.77674e+60
9.61855e+60
4.69184e+61
1.03701e+62
1.07156e+62
8.68656e+61
6.64634e+61
4.9754e+61
1.77598e+61
6.20417e+60
3.62556e+60
2.81417e+60
2.2955e+60
1.55935e+60
4.00771e+59
-1.24148e+60
-3.47327e+60
-5.03153e+60
-4.23511e+60
-2.2818e+60
-1.26994e+60
-9.7796e+59
-1.12168e+60
1.37391e+60
6.25322e+59
9.47608e+58
-7.78175e+58
-1.15836e+59
-6.0187e+58
6.54383e+58
1.16521e+59
-7.86458e+58
-6.86266e+59
-1.4815e+60
-1.56777e+60
-1.34932e+60
-1.19369e+60
-1.23102e+60
-6.03854e+59
-2.3504e+59
-9.33295e+58
-4.65292e+58
-2.65347e+58
-1.40085e+58
-1.58461e+57
2.43051e+58
7.70156e+58
1.40588e+59
1.64771e+59
1.18483e+59
3.92704e+58
-9.45384e+58
-3.35587e+59
6.90614e+58
2.59731e+58
1.35292e+58
9.04087e+57
6.5939e+57
4.01311e+57
9.24256e+56
-1.57982e+57
-1.50333e+57
5.07239e+57
1.48565e+58
9.04017e+57
-1.93406e+58
-9.66263e+58
-2.6661e+59
1.88693e+56
1.27156e+56
-1.74796e+56
-2.33167e+56
-2.08144e+56
-9.2783e+55
7.95268e+55
8.16655e+55
-3.69519e+56
-1.43576e+57
-2.70036e+57
-2.88588e+57
-7.45906e+57
-4.23371e+58
-1.46106e+59
-5.46279e+56
-2.10014e+56
-1.10027e+56
-7.47733e+55
-5.65597e+55
-3.82444e+55
-1.12885e+55
3.19398e+55
1.01615e+56
1.99773e+56
2.70418e+56
3.49846e+56
3.95907e+56
-1.0937e+57
-8.46547e+57
-1.3819e+54
-2.2096e+54
1.80808e+54
3.12626e+54
3.04621e+54
1.63145e+54
-1.172e+54
-3.50002e+54
4.69326e+54
7.13489e+55
1.57703e+56
2.34924e+56
3.49256e+56
5.60512e+56
7.89048e+56
7.56739e+54
3.19884e+54
1.31244e+54
6.36902e+53
3.47672e+53
1.5222e+53
-2.42264e+53
-1.32583e+54
3.80887e+54
6.99269e+55
1.41422e+56
2.01293e+56
2.64998e+56
3.5966e+56
5.24596e+56
-9.62537e+53
-3.86235e+53
-2.09744e+53
-1.41385e+53
-1.07043e+53
-1.07665e+53
-3.11708e+53
-1.10864e+54
5.75991e+54
8.75195e+55
1.72334e+56
2.41452e+56
3.03781e+56
3.62936e+56
4.19527e+56
-4.17551e+51
-3.20575e+51
2.36407e+51
3.72429e+51
1.44639e+51
-3.29412e+52
-2.9816e+53
-1.31563e+54
6.55839e+54
9.62971e+55
1.90436e+56
2.76912e+56
3.5646e+56
4.26822e+56
4.76941e+56
8.89529e+51
3.6683e+51
2.0379e+51
1.38395e+51
-1.04054e+51
-3.52538e+52
-3.25557e+53
-1.56933e+54
7.95234e+54
9.01327e+55
1.83324e+56
2.81859e+56
3.82995e+56
4.80908e+56
5.61475e+56
7.95859e+49
9.29683e+49
1.9552e+49
-4.15205e+49
-1.89164e+51
-3.48682e+52
-3.52741e+53
-1.90257e+54
3.04228e+54
6.8429e+55
1.54586e+56
2.51293e+56
3.56721e+56
4.69644e+56
5.82017e+56
-1.35714e+50
-4.44853e+49
1.08024e+49
1.3915e+49
-1.51102e+51
-3.16539e+52
-3.64982e+53
-2.30902e+54
5.79946e+53
4.08835e+55
1.05937e+56
1.82128e+56
2.67086e+56
3.62458e+56
4.66251e+56
3.11688e+49
3.58059e+49
5.31731e+49
4.84017e+49
-1.23719e+51
-2.78576e+52
-3.56146e+53
-2.64938e+54
-4.91508e+53
1.67635e+55
4.97423e+55
9.47889e+55
1.48991e+56
2.1116e+56
2.81116e+56
1.42311e+49
3.17884e+49
5.57218e+49
5.81523e+49
-1.05663e+51
-2.49392e+52
-3.38538e+53
-3.21881e+54
-2.61486e+54
3.07111e+54
1.50821e+55
3.40765e+55
5.9657e+55
9.11836e+55
1.29214e+56
1.67515e+49
3.74554e+49
6.53575e+49
7.28969e+49
-8.72456e+50
-2.30712e+52
-3.55256e+53
-3.57173e+54
-4.75183e+54
-3.60245e+54
-4.83716e+53
4.92329e+54
1.30728e+55
2.43705e+55
3.93433e+55
1.99572e+49
4.48949e+49
7.81079e+49
8.97121e+49
-6.48694e+50
-2.00287e+52
-3.77504e+53
-3.16027e+54
-4.89507e+54
-5.49063e+54
-5.56861e+54
-5.10671e+54
-3.98766e+54
-2.01612e+54
1.14513e+54
2.32433e+49
5.28768e+49
9.19402e+49
1.04344e+50
-4.55016e+50
-1.50945e+52
-4.22564e+53
-2.43938e+54
-3.56231e+54
-4.30086e+54
-4.95496e+54
-5.56015e+54
-6.13818e+54
-6.66689e+54
-7.03502e+54
2.66078e+49
6.10926e+49
1.06012e+50
1.15553e+50
-3.66735e+50
-1.00009e+52
-3.63699e+53
-1.46893e+54
-2.00701e+54
-2.40907e+54
-2.79133e+54
-3.20909e+54
-3.69338e+54
-4.24454e+54
-4.83677e+54
3.04063e+49
7.0415e+49
1.21834e+50
1.25066e+50
-3.79111e+50
-6.67559e+51
-1.56351e+53
-6.86722e+53
-9.13857e+53
-1.06366e+54
-1.19968e+54
-1.3544e+54
-1.54402e+54
-1.76696e+54
-2.0155e+54
3.46324e+49
8.10365e+49
1.40334e+50
1.35187e+50
-4.74852e+50
-5.59148e+51
-8.21535e+52
-2.34163e+53
-3.14319e+53
-3.60986e+53
-3.97615e+53
-4.40168e+53
-4.9083e+53
-5.4748e+53
-6.08628e+53
3.90769e+49
9.22396e+49
1.60077e+50
1.47263e+50
-5.90375e+50
-6.33348e+51
-2.81808e+52
-5.72404e+52
-7.51426e+52
-8.63598e+52
-9.49179e+52
-1.03687e+53
-1.13014e+53
-1.22501e+53
-1.31958e+53
4.29552e+49
1.04516e+50
1.89166e+50
2.08634e+50
-1.77536e+50
-1.61384e+51
-4.35588e+51
-7.48856e+51
-9.98386e+51
-1.18057e+52
-1.32112e+52
-1.4459e+52
-1.55969e+52
-1.66015e+52
-1.7473e+52
3.70914e+49
9.44643e+49
1.90843e+50
3.23173e+50
4.63461e+50
5.61193e+50
5.6418e+50
4.77476e+50
3.64077e+50
2.62756e+50
1.7992e+50
1.15527e+50
7.03805e+49
4.48448e+49
3.61678e+49
2.13802e+49
5.55107e+49
1.11118e+50
1.87489e+50
2.75363e+50
3.62711e+50
4.33557e+50
4.77639e+50
5.02139e+50
5.20434e+50
5.37437e+50
5.53389e+50
5.67903e+50
5.80485e+50
5.91074e+50
5.66042e+48
1.68643e+49
3.27421e+49
5.12254e+49
6.92339e+49
8.52711e+49
9.80894e+49
1.07003e+50
1.12871e+50
1.17277e+50
1.21092e+50
1.24368e+50
1.26896e+50
1.28561e+50
1.29376e+50
-9.67636e+47
1.10925e+48
3.65871e+48
6.09116e+48
8.12416e+48
9.73042e+48
1.09423e+49
1.18026e+49
1.24026e+49
1.28601e+49
1.32374e+49
1.35332e+49
1.37286e+49
1.38137e+49
1.37866e+49
-1.60459e+48
-1.43666e+48
-1.05555e+48
-7.02012e+47
-4.06473e+47
-1.74337e+47
2.59447e+45
1.35779e+47
2.3654e+47
3.13713e+47
3.73092e+47
4.18494e+47
4.5252e+47
4.77334e+47
4.92649e+47
-7.27472e+47
-7.61684e+47
-6.7871e+47
-5.81747e+47
-4.87116e+47
-4.04218e+47
-3.34453e+47
-2.77196e+47
-2.32015e+47
-1.97195e+47
-1.69861e+47
-1.47658e+47
-1.29134e+47
-1.13368e+47
-1.0019e+47
-1.8383e+47
-2.02982e+47
-1.88336e+47
-1.67035e+47
-1.44215e+47
-1.22934e+47
-1.0402e+47
-8.75948e+46
-7.4213e+46
-6.3774e+46
-5.53063e+46
-4.81258e+46
-4.19195e+46
-3.65194e+46
-3.18698e+46
-2.78481e+46
-3.15414e+46
-2.99592e+46
-2.71677e+46
-2.39381e+46
-2.07774e+46
-1.78764e+46
-1.53079e+46
-1.31992e+46
-1.15285e+46
-1.01234e+46
-8.88723e+45
-7.7871e+45
-6.8073e+45
-5.94183e+45
-2.58494e+45
-2.82308e+45
-2.66323e+45
-2.43231e+45
-2.16611e+45
-1.89765e+45
-1.64502e+45
-1.42701e+45
-1.25301e+45
-1.11205e+45
-9.89155e+44
-8.77599e+44
-7.75568e+44
-6.82539e+44
-5.98504e+44
-1.89347e+44
-1.77656e+44
-1.435e+44
-1.18006e+44
-9.82136e+43
-8.25918e+43
-7.00153e+43
-6.02252e+43
-5.2867e+43
-4.7011e+43
-4.19174e+43
-3.72896e+43
-3.30382e+43
-2.91455e+43
-2.56176e+43
-1.62699e+41
-7.10159e+42
-6.85332e+42
-5.33624e+42
-3.8744e+42
-2.75951e+42
-1.96185e+42
-1.41671e+42
-1.04427e+42
-7.7572e+41
-5.74177e+41
-4.22118e+41
-3.08374e+41
-2.24842e+41
-1.62142e+41
7.96986e+42
4.48675e+42
2.21108e+42
1.12191e+42
5.88259e+41
3.17183e+41
1.73709e+41
9.52602e+40
5.29796e+40
3.11716e+40
2.02442e+40
1.4836e+40
1.21896e+40
1.08084e+40
1.05685e+40
1.85587e+42
1.39173e+42
8.8906e+41
5.75849e+41
3.81518e+41
2.59885e+41
1.82549e+41
1.32787e+41
9.94777e+40
7.58564e+40
5.83973e+40
4.52232e+40
3.51775e+40
2.74742e+40
2.16116e+40
1.2456e+41
1.24953e+41
9.66109e+40
7.17409e+40
5.27769e+40
3.92697e+40
2.99346e+40
2.34828e+40
1.87336e+40
1.50284e+40
1.20677e+40
9.68859e+39
7.77508e+39
6.23944e+39
5.00931e+39
-1.60528e+40
-8.01091e+39
-3.39254e+39
-1.26151e+39
-2.98321e+38
1.37338e+38
3.36013e+38
4.18816e+38
4.36083e+38
4.17483e+38
3.81701e+38
3.39157e+38
2.95466e+38
2.53982e+38
2.15169e+38
-5.056e+39
-3.22432e+39
-1.90245e+39
-1.18647e+39
-7.74153e+38
-5.28867e+38
-3.79342e+38
-2.83018e+38
-2.16023e+38
-1.66786e+38
-1.29569e+38
-1.0103e+38
-7.89715e+37
-6.18416e+37
-4.86848e+37
-7.90477e+38
-5.07177e+38
-2.92565e+38
-1.79124e+38
-1.15673e+38
-7.87438e+37
-5.64148e+37
-4.20731e+37
-3.21178e+37
-2.48119e+37
-1.92989e+37
-1.50786e+37
-1.18204e+37
-9.29231e+36
-7.34302e+36
-8.95522e+37
-5.99862e+37
-3.55134e+37
-2.20142e+37
-1.4319e+37
-9.79495e+36
-7.0171e+36
-5.19491e+36
-3.91584e+36
-2.97827e+36
-2.27684e+36
-1.74683e+36
-1.34395e+36
-1.03686e+36
-8.03832e+35
-8.44502e+36
-5.18522e+36
-3.01562e+36
-1.88076e+36
-1.24633e+36
-8.73467e+35
-6.40338e+35
-4.82451e+35
-3.68747e+35
-2.83619e+35
-2.18593e+35
-1.68596e+35
-1.3007e+35
-1.00424e+35
-7.7742e+34
-9.52755e+35
-5.07756e+35
-2.4872e+35
-1.37759e+35
-8.37976e+34
-5.49475e+34
-3.82746e+34
-2.78369e+34
-2.07481e+34
-1.56496e+34
-1.18786e+34
-9.04886e+33
-6.90497e+33
-5.27944e+33
-4.0544e+33
-3.54279e+34
-3.42589e+34
-2.01963e+34
-1.24541e+34
-7.97749e+33
-5.32756e+33
-3.68463e+33
-2.60585e+33
-1.85973e+33
-1.3305e+33
-9.53176e+32
-6.83944e+32
-4.91779e+32
-3.55115e+32
-2.57695e+32
1.98237e+34
8.21544e+33
3.08126e+33
1.22627e+33
4.97579e+32
1.90177e+32
5.76233e+31
1.76041e+30
-1.96961e+31
-2.58049e+31
-2.52433e+31
-2.20236e+31
-1.80889e+31
-1.43826e+31
-1.10982e+31
3.28526e+33
1.89997e+33
9.4889e+32
5.19339e+32
3.06469e+32
1.92286e+32
1.26612e+32
8.62168e+31
5.97888e+31
4.1814e+31
2.93729e+31
2.07075e+31
1.46611e+31
1.04438e+31
7.52525e+30
4.20614e+31
6.08405e+31
4.44359e+31
3.12747e+31
2.2235e+31
1.61292e+31
1.18983e+31
8.86179e+30
6.60251e+30
4.8979e+30
3.61468e+30
2.65711e+30
1.95026e+30
1.43534e+30
1.06446e+30
-3.22515e+31
-1.76619e+31
-8.54964e+30
-4.44803e+30
-2.4747e+30
-1.45692e+30
-8.98278e+29
-5.73607e+29
-3.74591e+29
-2.47763e+29
-1.65218e+29
-1.10965e+29
-7.5075e+28
-5.11201e+28
-3.53928e+28
-4.26614e+30
-2.45741e+30
-1.31726e+30
-7.58844e+29
-4.70268e+29
-3.08869e+29
-2.11838e+29
-1.49631e+29
-1.0735e+29
-7.74811e+28
-5.60289e+28
-4.05754e+28
-2.94714e+28
-2.15374e+28
-1.59368e+28
-6.51344e+29
-3.00038e+29
-1.36691e+29
-7.07241e+28
-4.08512e+28
-2.56334e+28
-1.71033e+28
-1.19031e+28
-8.48608e+27
-6.12037e+27
-4.43949e+27
-3.23343e+27
-2.36606e+27
-1.74401e+27
-1.3027e+27
-9.31637e+28
-4.50461e+28
-1.98253e+28
-9.98355e+27
-5.56453e+27
-3.34429e+27
-2.12759e+27
-1.4083e+27
-9.54892e+26
-6.56692e+26
-4.56066e+26
-3.19458e+26
-2.25734e+26
-1.61203e+26
-1.16849e+26
-2.84067e+27
-2.29778e+27
-1.28333e+27
-7.81014e+26
-4.97941e+26
-3.28984e+26
-2.23535e+26
-1.54679e+26
-1.07964e+26
-7.56695e+25
-5.32239e+25
-3.76046e+25
-2.67421e+25
-1.92052e+25
-1.39377e+25
1.1845e+27
4.79692e+26
1.8076e+26
7.40519e+25
3.26977e+25
1.5276e+25
7.43437e+24
3.7096e+24
1.8642e+24
9.2183e+23
4.32772e+23
1.77997e+23
4.57343e+22
-2.18382e+22
-4.76697e+22
1.93722e+26
9.27126e+25
4.08237e+25
2.02273e+25
1.10405e+25
6.50048e+24
4.05931e+24
2.64125e+24
1.76236e+24
1.19442e+24
8.18901e+23
5.67101e+23
3.96514e+23
2.79986e+23
2.00191e+23
1.53153e+25
7.46314e+24
3.34995e+24
1.7067e+24
9.59241e+23
5.81042e+23
3.72489e+23
2.48082e+23
1.68925e+23
1.16601e+23
8.1351e+22
5.7297e+22
4.07229e+22
2.92087e+22
2.11546e+22
8.27053e+23
4.03948e+23
1.76329e+23
8.8258e+22
4.88707e+22
2.92271e+22
1.85175e+22
1.21945e+22
8.21794e+21
5.62333e+21
3.89456e+21
2.72411e+21
1.9234e+21
1.37121e+21
9.86901e+20
1.19313e+22
8.96572e+21
4.73161e+21
2.70842e+21
1.64631e+21
1.05e+21
6.93811e+20
4.68598e+20
3.20434e+20
2.21258e+20
1.54032e+20
1.07925e+20
7.61507e+19
5.41714e+19
3.87199e+19
-3.18256e+21
-1.60787e+21
-6.77526e+20
-3.14024e+20
-1.5866e+20
-8.68737e+19
-5.07814e+19
-3.11549e+19
-1.97699e+19
-1.28516e+19
-8.50143e+18
-5.69163e+18