/*--------------------------------*- C++ -*----------------------------------*\
  =========                 |
  \\      /  F ield         | OpenFOAM: The Open Source CFD Toolbox
   \\    /   O peration     | Website:  https://openfoam.org
    \\  /    A nd           | Version:  7
     \\/     M anipulation  |
\*---------------------------------------------------------------------------*/
FoamFile
{
    version     2.0;
    format      ascii;
    class       volScalarField;
    location    "3.9";
    object      T;
}
// * * * * * * * * * * * * * * * * * * * * * * * * * * * * * * * * * * * * * //

dimensions      [0 0 0 1 0 0 0];

internalField   nonuniform List<scalar> 
32100
(
2.44109e+113
-2.78856e+112
-2.30013e+111
3.75873e+110
-1.67222e+109
-3.42389e+108
4.88411e+107
3.47923e+106
-8.66203e+105
7.39625e+104
3.15567e+103
-2.71873e+102
3.3361e+99
-3.11461e+99
-3.97224e+98
-2.88586e+112
-2.58737e+111
3.98911e+110
-1.68352e+109
-3.59529e+108
4.9777e+107
3.63943e+106
-8.88549e+105
7.82741e+104
7.20572e+103
6.639e+102
-3.00088e+102
-3.66244e+100
-4.28935e+99
-8.23147e+98
-2.98446e+111
4.32703e+110
-1.72617e+109
-3.84347e+108
5.11541e+107
3.83051e+106
-9.24458e+105
7.86542e+104
5.37129e+103
-1.47869e+103
-1.89245e+102
-1.97507e+102
-6.93876e+100
-4.86309e+98
-6.63754e+98
4.78023e+110
-1.7786e+109
-4.49375e+108
4.98712e+107
4.3172e+106
-9.63951e+105
7.3289e+104
6.1917e+103
-1.44411e+103
-2.56548e+102
-1.64393e+102
-1.06655e+102
-6.28816e+100
4.03426e+99
-4.89454e+98
-1.34243e+109
-5.42128e+108
1.78005e+107
1.80737e+106
-7.83391e+105
7.24743e+104
-2.31431e+102
-8.1176e+102
3.20063e+101
-5.77879e+101
-7.49294e+101
-4.68163e+101
-3.37545e+100
6.30026e+99
-3.44774e+98
-2.74669e+108
-2.02353e+107
-3.06132e+107
-3.81723e+106
2.76785e+105
1.033e+103
-7.56868e+103
5.07872e+102
1.76634e+102
-2.09678e+101
-1.93402e+101
-1.57241e+101
-8.53339e+99
5.80751e+99
-2.47299e+98
2.81615e+108
-6.36495e+107
-3.54881e+107
-2.83206e+106
1.80217e+105
-3.28039e+103
-6.13558e+103
5.11211e+102
1.71603e+102
-2.999e+100
-3.84646e+100
-3.15129e+100
2.82216e+99
3.82473e+99
-1.93237e+98
2.09169e+108
-6.26952e+107
-3.29564e+107
-3.04907e+106
1.48504e+105
1.46852e+103
-5.93553e+103
3.84573e+102
1.73884e+102
2.28142e+100
9.64837e+98
2.95648e+99
4.01683e+99
1.82762e+99
-1.56999e+98
1.81275e+108
-5.37111e+107
-3.15867e+107
-3.18732e+106
1.23532e+105
4.74977e+103
-5.78912e+103
2.75342e+102
1.70679e+102
3.89396e+100
2.14755e+99
5.20749e+99
1.9709e+99
5.62202e+98
-1.17002e+98
1.64344e+108
-4.63944e+107
-3.00616e+107
-3.30461e+106
9.47677e+104
7.64889e+103
-5.55646e+103
1.67467e+102
1.65115e+102
5.17926e+100
-1.20659e+99
3.00056e+99
4.61653e+98
2.17677e+97
-7.35729e+97
1.47622e+108
-3.94618e+107
-2.85337e+107
-3.41567e+106
6.3859e+104
1.02207e+104
-5.2636e+103
6.47887e+101
1.5769e+102
6.52259e+100
-2.53174e+99
2.04813e+99
-3.96442e+97
-1.05272e+98
-3.76267e+97
1.3245e+108
-3.34268e+107
-2.69737e+107
-3.50556e+106
3.16503e+104
1.23637e+104
-4.92156e+103
-2.98472e+101
1.48503e+102
7.69884e+100
-2.74588e+99
1.61524e+99
-4.15845e+97
-8.43479e+97
-1.54453e+97
1.16757e+108
-3.02663e+107
-2.48781e+107
-3.54136e+106
-5.94072e+102
1.39682e+104
-4.55157e+103
-1.13835e+102
1.37831e+102
8.59591e+100
-2.5753e+99
1.2781e+99
1.43121e+97
-4.52683e+97
-5.22615e+96
8.56465e+107
-2.59656e+107
-1.98229e+107
-3.11226e+106
-2.9902e+104
1.45703e+104
-4.10834e+103
-1.79099e+102
1.25659e+102
9.25335e+100
-2.35878e+99
1.06862e+99
3.40041e+97
-2.79832e+97
-2.41865e+96
4.35554e+107
-1.8309e+107
-1.52947e+107
-2.56723e+106
-4.68073e+104
1.29654e+104
-3.339e+103
-2.20616e+102
1.11434e+102
1.00415e+101
-2.10015e+99
1.07325e+99
5.14319e+97
-2.72546e+97
-2.13158e+96
3.58275e+107
-1.11648e+107
-1.2678e+107
-2.27688e+106
-5.79608e+104
1.18073e+104
-2.67714e+103
-2.6556e+102
9.88693e+101
1.11706e+101
-1.69681e+99
1.0795e+99
8.64809e+97
-3.19184e+97
-2.73157e+96
3.72064e+107
-7.3826e+106
-1.11672e+107
-2.15846e+106
-7.14535e+104
1.17366e+104
-2.27697e+103
-3.16407e+102
8.87126e+101
1.2307e+101
-1.05589e+99
9.61817e+98
1.20109e+98
-3.47694e+97
-3.67133e+96
3.30186e+107
-5.45173e+106
-1.03127e+107
-2.13039e+106
-8.84033e+104
1.15252e+104
-1.92765e+103
-3.62654e+102
7.85738e+101
1.33846e+101
-1.22231e+98
7.93006e+98
1.44937e+98
-3.41375e+97
-4.55191e+96
2.87516e+107
-4.0999e+106
-9.5424e+106
-2.11196e+106
-1.0716e+105
1.10412e+104
-1.56576e+103
-4.05008e+102
6.76586e+101
1.43632e+101
1.1036e+99
6.08511e+98
1.62683e+98
-3.07159e+97
-5.19717e+96
2.47575e+107
-2.94795e+106
-8.75196e+106
-2.08246e+106
-1.27251e+105
1.02015e+104
-1.18084e+103
-4.40529e+102
5.57153e+101
1.51871e+101
2.62153e+99
4.38783e+98
1.79699e+98
-2.61648e+97
-5.69033e+96
2.08473e+107
-1.98118e+106
-7.93235e+106
-2.04115e+106
-1.48248e+105
8.92137e+103
-7.77786e+102
-4.67218e+102
4.27486e+101
1.58614e+101
4.41074e+99
2.76172e+98
1.89849e+98
-2.0436e+97
-5.95554e+96
1.71532e+107
-1.16868e+106
-7.11436e+106
-1.99385e+106
-1.6983e+105
7.13101e+103
-3.66674e+102
-4.8447e+102
2.88702e+101
1.64091e+101
6.47201e+99
1.2985e+98
1.8812e+98
-1.38863e+97
-5.86726e+96
1.38619e+107
-4.90357e+105
-6.32754e+106
-1.93986e+106
-1.91869e+105
4.75445e+103
3.87151e+101
-4.91339e+102
1.40803e+101
1.68463e+101
8.85567e+99
1.692e+97
1.83041e+98
-7.63819e+96
-5.55749e+96
1.10159e+107
6.88034e+104
-5.57483e+106
-1.87655e+106
-2.13975e+105
1.70785e+103
4.22272e+102
-4.86737e+102
-1.69963e+100
1.71262e+101
1.16483e+100
-5.84348e+97
1.77275e+98
-1.93365e+96
-5.19204e+96
8.61113e+106
5.15402e+105
-4.87015e+106
-1.80652e+106
-2.36027e+105
-2.04465e+103
7.65586e+102
-4.68542e+102
-1.85405e+101
1.71201e+101
1.49116e+100
-9.17525e+97
1.70006e+98
3.42854e+96
-4.87524e+96
6.60835e+106
8.44472e+105
-4.20773e+106
-1.72864e+106
-2.57836e+105
-6.53522e+103
1.04457e+103
-4.34223e+102
-3.6406e+101
1.67377e+101
1.86866e+100
-7.10146e+97
1.60926e+98
8.85952e+96
-4.65501e+96
5.00165e+106
1.08928e+106
-3.58479e+106
-1.64361e+106
-2.79312e+105
-1.18179e+104
1.23086e+103
-3.82194e+102
-5.502e+101
1.5854e+101
2.29509e+100
2.7587e+97
1.46554e+98
1.46093e+97
-4.41386e+96
3.68469e+106
1.28598e+106
-3.01455e+106
-1.55648e+106
-3.0026e+105
-1.79446e+104
1.28897e+103
-3.11131e+102
-7.36481e+101
1.44147e+101
2.763e+100
2.29858e+98
1.22745e+98
2.00815e+97
-3.993e+96
2.53892e+106
1.4103e+106
-2.5076e+106
-1.46898e+106
-3.20242e+105
-2.49828e+104
1.17573e+103
-2.20859e+102
-9.15582e+101
1.21583e+101
3.26044e+100
5.68358e+98
9.28123e+97
2.5124e+97
-3.43263e+96
1.54018e+106
1.4114e+106
-2.06318e+106
-1.37668e+106
-3.38217e+105
-3.29808e+104
8.33405e+102
-1.12132e+102
-1.08014e+102
8.88271e+100
3.76843e+100
1.08726e+99
5.86038e+97
2.98466e+97
-2.74069e+96
7.42466e+105
1.28942e+106
-1.66783e+106
-1.27349e+106
-3.53504e+105
-4.19468e+104
1.86829e+102
1.28747e+101
-1.21679e+102
4.4266e+100
4.27389e+100
1.81349e+99
2.11964e+97
3.30965e+97
-1.91093e+96
2.06972e+105
1.13846e+106
-1.29787e+106
-1.1618e+106
-3.65601e+105
-5.18731e+104
-8.58854e+102
1.48055e+102
-1.30406e+102
-1.4336e+100
4.75632e+100
2.7638e+99
-1.11189e+97
3.47507e+97
-1.07176e+96
-1.18832e+105
1.05246e+106
-9.58924e+105
-1.04483e+106
-3.73091e+105
-6.27032e+104
-2.41492e+103
2.80008e+102
-1.30912e+102
-8.90522e+100
5.17815e+100
4.12592e+99
-3.29889e+97
3.66447e+97
-1.80986e+95
-3.82812e+105
1.0052e+106
-6.68125e+105
-9.24696e+105
-3.76146e+105
-7.44329e+104
-4.60218e+103
3.83779e+102
-1.19325e+102
-1.8037e+101
5.41641e+100
6.26892e+99
-3.64474e+97
3.91978e+97
1.08628e+96
-6.17524e+105
8.98833e+105
-4.35871e+105
-8.04207e+105
-3.75664e+105
-8.7049e+104
-7.52296e+103
4.20687e+102
-9.20486e+101
-2.85865e+101
5.23281e+100
9.28279e+99
7.87929e+96
4.0033e+97
3.14911e+96
-7.79067e+105
7.3214e+105
-2.48842e+105
-6.84529e+105
-3.7135e+105
-1.00225e+105
-1.11508e+104
3.41426e+102
-4.67994e+101
-3.96242e+101
4.27769e+100
1.34035e+100
1.66737e+98
3.55738e+97
6.47981e+96
-8.74688e+105
5.76937e+105
-9.15237e+104
-5.6869e+105
-3.62753e+105
-1.13251e+105
-1.54508e+104
9.0384e+101
1.54063e+101
-4.92573e+101
2.13466e+100
1.86879e+100
5.75709e+98
2.10816e+97
1.14218e+97
-9.26787e+105
4.413e+105
3.62231e+104
-4.5826e+105
-3.49076e+105
-1.25159e+105
-2.04533e+104
-3.97432e+102
8.86898e+101
-5.48633e+101
-1.52176e+100
2.37042e+100
1.39128e+99
-3.90945e+96
1.73028e+97
-9.40738e+105
3.07813e+105
1.30906e+105
-3.51552e+105
-3.28108e+105
-1.3404e+105
-2.60582e+104
-1.19159e+103
1.5987e+102
-5.29965e+101
-6.57907e+100
2.68679e+100
2.76497e+99
-2.71459e+97
2.20135e+97
-9.19824e+105
1.71922e+105
1.91009e+105
-2.51143e+105
-2.95989e+105
-1.38833e+105
-3.19351e+104
-2.34694e+103
2.07582e+102
-4.0612e+101
-1.24426e+101
2.63633e+100
4.93887e+99
-1.62301e+97
2.16665e+97
-8.59895e+105
3.49938e+104
2.12425e+105
-1.616e+105
-2.54865e+105
-1.39432e+105
-3.75526e+104
-3.84002e+103
2.0715e+102
-1.72414e+101
-1.81338e+101
2.03443e+100
8.01587e+99
1.04491e+98
9.53235e+96
-7.59392e+105
-8.27382e+104
1.98418e+105
-8.64536e+104
-2.11102e+105
-1.36245e+105
-4.24686e+104
-5.61722e+103
1.38106e+102
1.48483e+101
-2.22617e+101
7.44659e+99
1.04152e+100
3.82706e+98
-1.46913e+97
-6.36621e+105
-1.58896e+105
1.62286e+105
-2.72941e+104
-1.6873e+105
-1.29879e+105
-4.62978e+104
-7.45992e+103
-1.93171e+101
5.14689e+101
-2.30286e+101
-9.50924e+99
1.1461e+100
8.10694e+98
-4.09387e+97
-5.1741e+105
-1.93318e+105
1.23322e+105
1.5904e+104
-1.29627e+105
-1.2109e+105
-4.90333e+104
-9.28381e+103
-2.64059e+102
8.57319e+101
-2.09416e+101
-2.63364e+100
1.16562e+100
1.33455e+99
-6.03875e+97
-4.1515e+105
-2.02366e+105
8.98836e+104
4.42334e+104
-9.47325e+104
-1.10863e+105
-5.08146e+104
-1.09356e+104
-5.54082e+102
1.0604e+102
-1.70734e+101
-3.9626e+100
1.03036e+100
2.05963e+99
-7.21385e+97
-3.33122e+105
-2.01115e+105
5.9878e+104
6.08933e+104
-6.44688e+104
-1.00106e+105
-5.20245e+104
-1.24459e+104
-8.70545e+102
1.13635e+102
-1.06722e+101
-4.44766e+100
7.10429e+99
1.78746e+99
-1.32308e+97
-2.67667e+105
-1.96122e+105
3.2207e+104
6.94084e+104
-3.89087e+104
-8.95068e+104
-5.31062e+104
-1.41196e+104
-1.19821e+103
1.15136e+102
-4.66936e+100
-4.51015e+100
4.55407e+99
1.26218e+99
4.91186e+96
-2.14244e+105
-1.8814e+105
4.93793e+103
7.06297e+104
-1.78457e+104
-7.88783e+104
-5.39103e+104
-1.59239e+104
-1.5774e+103
1.12468e+102
2.78227e+99
-4.68299e+100
3.14584e+99
1.07563e+99
1.10562e+97
-1.69361e+105
-1.76729e+105
-2.0599e+104
6.56032e+104
-7.59668e+102
-6.75786e+104
-5.37671e+104
-1.76861e+104
-2.01955e+103
1.05713e+102
4.99845e+100
-4.91511e+100
2.2937e+99
1.06667e+99
1.65801e+97
-1.31832e+105
-1.61437e+105
-4.1165e+104
5.71998e+104
1.31416e+104
-5.56753e+104
-5.24621e+104
-1.92788e+104
-2.50284e+103
9.19092e+101
9.93508e+100
-5.13521e+100
1.62907e+99
1.13222e+99
2.47594e+97
-1.0095e+105
-1.44182e+105
-5.7198e+104
4.58944e+104
2.40396e+104
-4.39303e+104
-5.07304e+104
-2.07886e+104
-3.04577e+103
6.92307e+101
1.50426e+101
-5.24574e+100
9.88713e+98
1.1677e+99
3.40822e+97
-7.56586e+104
-1.26216e+105
-7.06643e+104
3.12162e+104
3.17985e+104
-3.24849e+104
-4.87911e+104
-2.24072e+104
-3.67266e+103
3.6063e+101
1.99935e+101
-5.11528e+100
3.38488e+98
1.08864e+99
3.84047e+97
-5.55511e+104
-1.0716e+105
-7.94996e+104
1.56774e+104
3.68101e+104
-2.11108e+104
-4.61592e+104
-2.40919e+104
-4.38846e+103
-8.0409e+100
2.42498e+101
-4.74185e+100
-2.27682e+98
9.07127e+98
3.29666e+97
-4.00567e+104
-8.82363e+104
-8.22156e+104
8.31639e+102
3.9315e+104
-9.94125e+103
-4.26539e+104
-2.5705e+104
-5.1879e+103
-6.29418e+101
2.73622e+101
-4.18588e+100
-6.0987e+98
6.75703e+98
1.57767e+97
-2.81393e+104
-7.11094e+104
-8.1059e+104
-1.37895e+104
3.80226e+104
7.20552e+102
-3.81072e+104
-2.71303e+104
-6.06603e+103
-1.26714e+102
2.8642e+101
-3.47531e+100
-7.77732e+98
4.37645e+98
-1.0546e+97
-1.8994e+104
-5.57364e+104
-7.73008e+104
-2.84299e+104
3.25365e+104
1.05346e+104
-3.24079e+104
-2.82298e+104
-7.01408e+103
-1.94218e+102
2.71627e+101
-2.58974e+100
-7.64925e+98
1.94419e+98
-2.56528e+97
-1.20666e+104
-4.1803e+104
-7.08317e+104
-4.1662e+104
2.36512e+104
1.8861e+104
-2.5666e+104
-2.90787e+104
-8.01536e+103
-2.5102e+102
2.20383e+101
-1.49588e+100
-6.32207e+98
1.0825e+97
-2.47582e+97
-7.07875e+103
-2.9587e+104
-6.18701e+104
-5.19722e+104
1.17479e+104
2.48686e+104
-1.77956e+104
-2.95802e+104
-9.06464e+103
-2.89232e+102
1.48732e+101
-4.49875e+99
-9.76307e+98
-8.36834e+97
-2.83499e+97
-3.7657e+103
-1.9378e+104
-5.1043e+104
-5.85747e+104
-2.23346e+103
2.79297e+104
-8.71091e+103
-2.9335e+104
-1.02146e+104
-3.33487e+102
9.32309e+100
1.12543e+99
-1.59599e+99
-2.60913e+98
-5.86314e+97
-1.73765e+103
-1.1398e+104
-3.91861e+104
-6.0879e+104
-1.68992e+104
2.74337e+104
1.33899e+103
-2.78305e+104
-1.16832e+104
-5.35456e+102
9.08183e+100
1.11248e+99
-1.98945e+99
-8.69646e+98
-3.46447e+98
-5.95708e+102
-5.57985e+103
-2.71685e+104
-5.88885e+104
-3.12745e+104
2.25951e+104
1.18702e+104
-2.42971e+104
-1.31239e+104
-1.20074e+103
2.58817e+101
-8.0072e+99
6.68014e+98
-7.97211e+98
-7.05463e+98
-6.82139e+101
-1.77356e+103
-1.58681e+104
-5.2679e+104
-4.4586e+104
1.24652e+104
2.18604e+104
-1.81019e+104
-1.29788e+104
-1.97655e+103
2.30313e+101
4.78217e+100
5.42096e+100
3.49045e+100
1.14204e+100
4.28303e+101
8.05643e+101
-6.31207e+103
-4.21769e+104
-5.54736e+104
-3.53006e+103
2.91514e+104
-1.02406e+104
-1.30586e+104
-3.7907e+103
-4.05163e+102
-2.18249e+102
-2.15028e+102
-1.56428e+102
-5.68584e+101
6.21906e+101
2.35243e+102
-8.35337e+101
-2.74426e+104
-6.12887e+104
-2.4223e+104
3.13871e+104
-1.00329e+103
-1.24953e+104
-5.34408e+103
-2.43496e+103
-1.64901e+103
-1.90031e+103
-2.45669e+103
-1.62643e+103
2.09884e+102
3.6057e+102
4.03893e+102
-1.11511e+104
-5.79163e+104
-4.62451e+104
2.69118e+104
8.72039e+103
-9.50846e+103
-4.571e+103
-4.19014e+103
-3.82388e+103
-5.17194e+103
-4.94278e+103
-2.69307e+103
9.44586e+102
3.1671e+102
1.61948e+102
-6.0285e+103
-4.28706e+104
-6.37847e+104
1.57463e+104
1.60669e+104
-4.69876e+103
-1.73448e+103
-1.08848e+103
-2.27193e+103
-3.18025e+103
-2.60503e+103
-2.52147e+103
-1.73235e+103
-1.69012e+103
-2.53146e+102
-1.03989e+104
-3.77188e+104
-6.03531e+104
2.40934e+103
1.89132e+104
-3.97929e+102
2.52003e+102
-3.32551e+102
-3.14464e+102
-5.30012e+102
-9.76606e+102
-2.24706e+103
-2.82489e+105
-1.05098e+105
-5.28936e+104
-3.20367e+104
-4.70422e+104
-4.99022e+104
1.0455e+104
1.70873e+104
3.72633e+103
-1.79462e+103
-1.44896e+103
-1.07929e+103
-7.90021e+102
-7.42258e+102
-1.82295e+103
-2.28058e+104
8.10041e+103
-1.75202e+105
-1.7733e+105
-1.29665e+105
-3.25098e+103
7.37808e+104
4.01057e+104
5.81545e+103
-1.46456e+103
-1.84664e+103
-1.38471e+103
-9.36585e+102
-6.88025e+102
-1.5504e+103
5.20621e+107
1.32853e+107
4.65148e+106
2.07907e+106
1.0532e+106
5.91671e+105
2.65274e+105
7.22646e+104
9.54843e+103
-4.09716e+103
-4.16921e+103
-2.67207e+103
-1.56407e+103
-9.41827e+102
-1.34401e+103
-6.39466e+108
-1.00675e+108
-3.70819e+106
5.5536e+106
4.58473e+106
2.96667e+106
1.30368e+106
3.59607e+105
7.84432e+104
1.18051e+104
-7.00951e+102
-1.7818e+103
-1.17678e+103
-7.52084e+102
-9.58645e+102
1.31282e+109
-2.6551e+108
-2.36038e+108
-8.1824e+107
-2.29277e+107
-2.9196e+106
8.40889e+105
4.60918e+105
1.30141e+105
2.67456e+104
1.63765e+103
-2.75113e+103
-2.47355e+103
-1.55024e+103
-1.49482e+103
4.68015e+110
4.76377e+109
1.64153e+108
-1.09969e+108
-6.70253e+107
-1.2995e+107
-2.84642e+104
4.0987e+105
1.42412e+105
5.13617e+104
2.49691e+104
1.53087e+104
9.20964e+103
4.53187e+103
1.90404e+103
5.28621e+111
6.97528e+110
1.05327e+110
1.95951e+108
4.84133e+107
-1.17519e+107
2.80326e+106
4.40732e+106
3.61034e+106
2.92018e+106
2.26316e+106
1.62616e+106
1.01689e+106
5.22606e+105
2.78631e+105
-9.77141e+112
4.54019e+111
8.57148e+110
3.91896e+109
-7.932e+108
1.77803e+108
5.00214e+107
4.25158e+107
3.40221e+107
2.55055e+107
1.85434e+107
1.28539e+107
8.06914e+106
4.26972e+106
1.76982e+106
1.70812e+114
-9.1779e+112
6.18383e+111
5.85901e+110
2.45815e+108
-2.74134e+108
5.08052e+108
3.09351e+108
2.49237e+108
1.94808e+108
1.45375e+108
1.01979e+108
6.40403e+107
3.4107e+107
1.27967e+107
-8.75327e+114
1.53204e+114
-8.21713e+112
5.86608e+111
5.8116e+110
4.1521e+109
3.0437e+109
3.30283e+109
2.65379e+109
2.13828e+109
1.64284e+109
1.17386e+109
7.40828e+108
3.89048e+108
1.4512e+108
-6.52154e+115
-7.35022e+114
1.40807e+114
-7.66725e+112
5.84247e+111
6.16359e+110
-5.90378e+107
-6.23952e+109
-8.83722e+109
-1.03235e+110
-9.94675e+109
-8.0955e+109
-5.33537e+109
-2.59573e+109
-9.40885e+108
2.50217e+116
-6.4181e+115
-6.41279e+114
1.32163e+114
-7.76842e+112
4.70872e+110
-4.16775e+111
-4.32275e+111
-3.85505e+111
-3.26414e+111
-2.63541e+111
-1.99247e+111
-1.33874e+111
-7.4789e+110
-3.12797e+110
4.1898e+115
2.00342e+116
-6.24941e+115
-5.95075e+114
1.20043e+114
-1.18083e+113
-3.27528e+112
-2.88789e+112
-2.25842e+112
-1.66733e+112
-1.17737e+112
-8.18161e+111
-5.45342e+111
-3.40676e+111
-1.70388e+111
-7.36585e+118
4.27303e+115
6.16289e+116
-1.71785e+116
-1.96386e+115
3.35889e+114
-4.53871e+113
-1.59946e+113
-1.24742e+113
-9.31923e+112
-6.524e+112
-4.4e+112
-2.95418e+112
-1.9229e+112
-1.41567e+112
5.22302e+119
-6.85399e+118
-4.21161e+115
6.7729e+116
-1.60509e+116
-2.19497e+115
3.43862e+114
-3.99232e+113
-1.76257e+113
-1.73061e+113
-1.53863e+113
-1.20095e+113
-8.49154e+112
-5.76824e+112
-3.66699e+112
8.44293e+120
4.48069e+119
-6.49176e+118
-4.87761e+114
6.55487e+116
-1.62663e+116
-2.89857e+115
4.1665e+113
-2.28743e+114
-1.61337e+114
-1.15887e+114
-7.75762e+113
-4.70801e+113
-2.41828e+113
-1.27745e+113
-4.50896e+121
8.07542e+120
4.0271e+119
-6.12191e+118
-3.32519e+117
6.56824e+116
-1.79454e+116
-1.16397e+116
-3.30583e+115
-1.83898e+115
-1.13292e+115
-6.08935e+114
-2.88629e+114
-1.16251e+114
-5.33263e+113
-9.96078e+121
-3.87052e+121
7.67688e+120
3.62819e+119
-5.39435e+118
4.12826e+115
2.87489e+116
-1.84068e+116
-6.16705e+115
-2.88526e+115
-1.91822e+115
-1.24057e+115
-7.53095e+114
-3.83887e+114
-1.92035e+114
-4.57528e+121
8.26511e+120
4.0509e+119
-6.65386e+118
-8.37694e+116
2.8845e+116
-3.52056e+116
-1.43157e+116
-6.28382e+115
-3.52312e+115
-1.93764e+115
-1.26076e+115
-9.55013e+114
-6.30325e+114
-3.63728e+114
8.36948e+120
5.34086e+119
-5.77894e+118
-4.90988e+117
-6.14107e+116
-5.0005e+116
-2.76234e+116
-1.46512e+116
-8.10954e+115
-4.45947e+115
-2.34747e+115
-1.38025e+115
-9.74093e+114
-6.71598e+114
-3.96398e+114
3.86045e+119
6.64537e+117
-5.90557e+117
-2.57219e+117
-1.19067e+117
-5.86675e+116
-2.98914e+116
-1.57839e+116
-8.60153e+115
-4.75757e+115
-2.62593e+115
-1.62008e+115
-9.00273e+114
-4.61303e+114
-2.03404e+114
-2.87885e+118
-5.68184e+117
-1.94835e+117
-8.29702e+116
-3.67062e+116
-1.69889e+116
-8.31376e+115
-4.23028e+115
-2.16716e+115
-1.17889e+115
-8.12536e+114
-7.66951e+114
9.68035e+113
3.48425e+113
1.34206e+112
-6.25919e+116
-1.79192e+116
2.13048e+115
4.3161e+115
3.2937e+115
2.39282e+115
1.72839e+115
1.23127e+115
1.19791e+115
2.23016e+115
2.06866e+114
-1.65221e+114
1.29112e+112
6.25232e+111
-2.90874e+112
1.97988e+116
6.51074e+115
2.40089e+115
1.26585e+115
6.93808e+114
3.81058e+114
2.27285e+114
7.76894e+113
1.28262e+114
1.73771e+115
1.33965e+115
3.26183e+114
-1.4185e+113
-2.03363e+113
-1.57196e+113
-1.00235e+115
-1.92098e+114
-3.0815e+114
-3.36991e+114
-3.26636e+114
-2.65305e+114
-1.33248e+114
-3.65902e+113
1.93789e+114
6.6781e+114
1.33926e+115
9.17688e+114
5.46211e+114
3.16929e+114
1.81151e+114
-6.09398e+114
-2.41142e+114
-9.33778e+113
-4.28744e+113
-2.18813e+113
-1.08198e+113
-1.41395e+113
-1.65401e+113
-6.61793e+112
-3.3875e+113
9.15234e+113
1.79332e+114
1.76961e+114
1.37295e+114
1.01023e+114
7.69887e+113
3.01231e+113
1.40986e+113
8.19455e+112
5.59495e+112
3.65922e+112
1.40625e+112
-3.14466e+111
-1.07854e+112
-6.91151e+112
-1.30607e+113
-7.60831e+112
-2.8365e+112
-1.0948e+112
-5.03597e+111
-4.31993e+112
-1.66452e+112
-8.09593e+111
-4.99322e+111
-3.55822e+111
-2.34187e+111
-4.24474e+110
1.11107e+111
1.38571e+111
2.32996e+111
-2.71119e+112
-3.84165e+112
-3.34828e+112
-2.70519e+112
-2.2172e+112
1.51143e+111
5.45302e+110
3.70658e+110
2.76746e+110
2.30011e+110
1.81846e+110
1.10401e+110
7.27966e+109
1.60476e+110
7.12054e+110
1.49723e+111
1.28087e+111
9.0055e+110
6.58474e+110
5.00054e+110
1.89898e+110
6.40597e+109
4.04034e+109
3.29132e+109
2.85996e+109
2.34662e+109
1.6858e+109
1.0098e+109
6.20451e+108
4.72269e+109
2.03789e+110
2.58981e+110
2.28957e+110
1.84481e+110
1.42983e+110
2.35828e+109
1.04053e+109
2.92073e+108
3.52277e+107
-5.00111e+107
-2.86347e+107
1.22159e+108
2.74842e+108
3.31855e+108
3.40055e+107
-1.22138e+109
-1.69885e+109
-1.51513e+109
-1.20228e+109
-9.04913e+108
-6.83024e+108
-2.66774e+108
-1.1358e+108
-6.14638e+107
-3.82331e+107
-2.16273e+107
-4.51077e+106
2.49356e+107
9.0816e+107
2.09488e+108
3.312e+108
3.03976e+108
2.35632e+108
1.80384e+108
1.4329e+108
6.27041e+107
2.31396e+107
1.23832e+107
8.51168e+106
6.29411e+106
3.77593e+106
6.80928e+105
-1.4334e+106
-5.33204e+105
6.95944e+106
2.00449e+107
2.23973e+107
1.88076e+107
1.62219e+107
1.78947e+107
1.21316e+106
5.16761e+105
-6.96593e+104
-2.06839e+105
-2.13963e+105
-1.15814e+105
3.14662e+104
-5.10753e+104
-6.43406e+105
-1.95333e+106
-3.55773e+106
-4.08541e+106
-3.8311e+106
-2.13587e+106
2.70273e+106
-7.98568e+105
-2.9389e+105
-1.55828e+105
-1.08545e+105
-8.32382e+104
-5.58007e+104
-1.75052e+104
3.95759e+104
1.02088e+105
-5.12565e+104
-6.45019e+105
-1.44507e+106
-2.06085e+106
-1.5847e+106
1.67648e+106
-1.37263e+104
-7.17955e+103
8.80477e+102
3.29394e+103
3.3317e+103
1.09384e+103
-2.92751e+103
-1.10528e+103
1.88582e+104
-4.97643e+104
-4.57511e+105
-1.19561e+106
-2.06042e+106
-2.36662e+106
-5.08079e+105
1.15975e+104
4.59818e+103
1.91003e+103
9.99746e+102
6.00918e+102
3.19166e+102
1.59968e+102
3.72361e+103
1.64966e+104
-8.52134e+104
-4.00819e+105
-9.26111e+105
-1.84831e+106
-2.91904e+106
-2.85963e+106
-1.16029e+103
-4.43764e+102
-2.44485e+102
-1.6974e+102
-1.27111e+102
-8.30468e+101
1.80898e+102
5.20465e+103
2.13317e+104
-1.14147e+105
-4.90192e+105
-1.00984e+106
-1.66178e+106
-2.50529e+106
-3.62541e+106
-2.75571e+101
-1.24688e+101
-5.10366e+99
2.67454e+100
2.94236e+100
-5.92501e+99
2.1545e+102
5.99099e+103
2.45365e+104
-1.59578e+105
-6.43151e+105
-1.27802e+106
-2.03626e+106
-2.8983e+106
-3.81565e+106
1.34936e+101
5.22697e+100
2.91606e+100
2.09e+100
1.44184e+100
-1.49211e+100
2.27342e+102
6.81887e+103
2.76383e+104
-2.09026e+105
-8.11613e+105
-1.58308e+106
-2.51548e+106
-3.5895e+106
-4.71474e+106
4.06198e+99
2.33704e+99
1.48871e+98
-7.15708e+98
-2.94317e+99
-3.09544e+100
2.37143e+102
7.77211e+103
3.09521e+104
-2.52461e+105
-9.67197e+105
-1.89078e+106
-3.03339e+106
-4.3763e+106
-5.81097e+106
-2.81577e+99
-1.23871e+99
-5.39627e+98
-3.32648e+98
-2.32801e+99
-3.46358e+100
2.46577e+102
8.98839e+103
3.4709e+104
-2.54952e+105
-1.00941e+106
-2.07173e+106
-3.44118e+106
-5.10663e+106
-6.96722e+106
3.51454e+98
1.44372e+98
6.35926e+97
-3.42626e+97
-2.196e+99
-3.94923e+100
2.55692e+102
1.04912e+104
4.19405e+104
-1.74895e+105
-8.27338e+105
-1.84519e+106
-3.26317e+106
-5.09276e+106
-7.28317e+106
-6.21579e+96
-6.20443e+96
-2.20639e+97
-1.06034e+98
-2.20718e+99
-4.47463e+100
2.49453e+102
1.23151e+104
5.86967e+104
-2.78276e+104
-4.99851e+105
-1.29569e+106
-2.44438e+106
-3.99574e+106
-5.97425e+106
-3.61367e+96
-6.39542e+96
-2.52695e+97
-1.25826e+98
-2.14774e+99
-4.84464e+100
2.18245e+102
1.47153e+104
6.40905e+104
8.31429e+104
-1.46742e+105
-6.01242e+105
-1.28371e+106
-2.23623e+106
-3.50879e+106
-1.34621e+96
-6.37055e+96
-2.97954e+97
-1.48872e+98
-2.10244e+99
-4.97717e+100
1.64536e+102
1.73143e+104
6.79464e+104
1.21797e+105
9.23479e+104
-5.07059e+104
-3.20974e+105
-7.32856e+105
-1.31549e+106
-1.42771e+96
-7.42906e+96
-3.57202e+97
-1.76395e+98
-2.09124e+99
-4.98257e+100
1.12254e+102
2.03535e+104
6.30077e+104
1.07984e+105
1.42655e+105
1.49114e+105
1.10732e+105
1.56934e+104
-1.51834e+105
-1.73453e+96
-9.00523e+96
-4.42861e+97
-2.17521e+98
-2.09864e+99
-4.93403e+100
1.01789e+102
1.37413e+104
4.45642e+104
7.78822e+104
1.13356e+105
1.4853e+105
1.7939e+105
2.01161e+105
2.07244e+105
-2.06371e+96
-1.10586e+97
-5.60129e+97
-2.76312e+98
-2.12521e+99
-4.58578e+100
1.01694e+102
6.56568e+103
2.24817e+104
4.11726e+104
6.27993e+104
8.71126e+104
1.14503e+105
1.45116e+105
1.77844e+105
-2.41891e+96
-1.33052e+97
-6.91701e+97
-3.44427e+98
-2.22106e+99
-3.80009e+100
1.10337e+102
2.60134e+103
7.80678e+103
1.45732e+104
2.28313e+104
3.26572e+104
4.45298e+104
5.88975e+104
7.59175e+104
-2.788e+96
-1.56899e+97
-8.33645e+97
-4.18899e+98
-2.4587e+99
-2.96755e+100
-8.66944e+100
3.75665e+102
1.42441e+103
2.93226e+103
4.85733e+103
7.28936e+103
1.03884e+104
1.42865e+104
1.90972e+104
-3.20826e+96
-1.84845e+97
-1.00467e+98
-5.10539e+98
-2.87844e+99
-2.39554e+100
-4.87115e+101
-1.605e+102
-1.03265e+102
4.86941e+101
2.74427e+102
5.83698e+102
1.00548e+103
1.56727e+103
2.29615e+103
-3.67819e+96
-2.1715e+97
-1.21114e+98
-6.2658e+98
-3.52173e+99
-2.4081e+100
-3.20297e+101
-9.81768e+101
-1.45005e+102
-1.73109e+102
-1.90337e+102
-2.02984e+102
-2.09791e+102
-2.06887e+102
-1.90023e+102
-4.15903e+96
-2.50193e+97
-1.42659e+98
-7.49878e+98
-4.22827e+99
-2.75455e+100
-1.18635e+101
-2.6605e+101
-4.06381e+101
-5.3239e+101
-6.51878e+101
-7.7934e+101
-9.17505e+101
-1.06286e+102
-1.21151e+102
-4.36629e+96
-2.67663e+97
-1.553e+98
-7.78943e+98
-3.16357e+99
-9.55121e+99
-2.12587e+100
-3.69219e+100
-5.43242e+100
-7.2235e+100
-9.07087e+100
-1.10818e+101
-1.32977e+101
-1.57083e+101
-1.82971e+101
-2.29215e+96
-9.56307e+96
-3.90032e+97
-1.32543e+98
-3.65689e+98
-8.21073e+98
-1.49752e+99
-2.30096e+99
-3.1882e+99
-4.16945e+99
-5.24689e+99
-6.44788e+99
-7.78326e+99
-9.24279e+99
-1.08221e+100
-8.7311e+95
-1.44881e+96
-2.19885e+96
-3.54058e+96
-6.00191e+96
-1.01072e+97
-1.60259e+97
-2.33687e+97
-3.17914e+97
-4.15231e+97
-5.27498e+97
-6.54708e+97
-7.96334e+97
-9.51002e+97
-1.11792e+98
-4.98097e+95
-8.08564e+95
-1.00379e+96
-1.03882e+96
-9.10525e+95
-6.75305e+95
-3.86463e+95
-9.48583e+94
1.61981e+95
3.74278e+95
5.46365e+95
6.83169e+95
7.88037e+95
8.64098e+95
9.13268e+95
-1.78373e+95
-3.26452e+95
-4.46896e+95
-5.2264e+95
-5.47168e+95
-5.34063e+95
-4.96637e+95
-4.45898e+95
-3.91495e+95
-3.39723e+95
-2.9256e+95
-2.49713e+95
-2.10662e+95
-1.75242e+95
-1.43642e+95
-1.45144e+94
-4.7264e+94
-7.75437e+94
-9.88976e+94
-1.10286e+95
-1.14479e+95
-1.13672e+95
-1.09742e+95
-1.04428e+95
-9.86997e+94
-9.27884e+94
-8.66968e+94
-8.04579e+94
-7.41672e+94
-6.79265e+94
1.03746e+94
7.83664e+93
3.83434e+93
2.84661e+92
-2.54233e+93
-4.63114e+93
-6.05871e+93
-6.96506e+93
-7.5274e+93
-7.86753e+93
-8.02749e+93
-8.02877e+93
-7.89654e+93
-7.65865e+93
-7.3317e+93
4.28474e+93
4.45353e+93
4.01103e+93
3.49401e+93
2.97196e+93
2.49259e+93
2.06872e+93
1.70126e+93
1.39945e+93
1.16032e+93
9.65102e+92
8.00392e+92
6.59839e+92
5.39796e+92
4.39415e+92
9.22307e+92
9.34669e+92
8.37021e+92
7.39589e+92
6.46601e+92
5.62486e+92
4.87882e+92
4.22516e+92
3.68946e+92
3.26637e+92
2.90989e+92
2.59294e+92
2.30638e+92
2.04622e+92
1.81245e+92
1.54986e+92
1.46837e+92
1.22276e+92
1.01736e+92
8.46198e+91
7.05271e+91
5.89427e+91
4.97312e+91
4.27398e+91
3.73417e+91
3.28681e+91
2.89739e+91
2.55207e+91
2.24408e+91
1.97153e+91
2.0092e+91
1.94503e+91
1.57652e+91
1.2598e+91
1.0036e+91
8.03263e+90
6.47374e+90
5.29703e+90
4.431e+90
3.76627e+90
3.22134e+90
2.75826e+90
2.35992e+90
2.01672e+90
1.72342e+90
7.89741e+89
1.24752e+90
1.19834e+90
1.03244e+90
8.54014e+89
6.98648e+89
5.71639e+89
4.73926e+89
3.99901e+89
3.40432e+89
2.90066e+89
2.46626e+89
2.09099e+89
1.76856e+89
1.49311e+89
-3.44585e+89
-1.97237e+89
-9.48569e+88
-4.34719e+88
-1.76591e+88
-4.63116e+87
1.99597e+87
5.40023e+87
7.00652e+87
7.53272e+87
7.43678e+87
7.00357e+87
6.40043e+87
5.73279e+87
5.03718e+87
-7.79714e+88
-5.94381e+88
-3.90856e+88
-2.60852e+88
-1.77863e+88
-1.24479e+88
-8.96945e+87
-6.68228e+87
-5.11602e+87
-3.9769e+87
-3.11384e+87
-2.44741e+87
-1.92836e+87
-1.52252e+87
-1.20778e+87
-6.1026e+87
-5.56162e+87
-4.12417e+87
-3.00185e+87
-2.18982e+87
-1.62571e+87
-1.24076e+87
-9.76774e+86
-7.83534e+86
-6.33017e+86
-5.12413e+86
-4.14931e+86
-3.35914e+86
-2.71911e+86
-2.20233e+86
2.12735e+86
5.01411e+85
-1.86892e+85
-3.85672e+85
-4.04244e+85
-3.71052e+85
-3.31093e+85
-2.93251e+85
-2.56203e+85
-2.20566e+85
-1.87765e+85
-1.58508e+85
-1.32928e+85
-1.10954e+85
-9.20801e+84
9.94622e+85
6.73271e+85
4.06775e+85
2.57593e+85
1.69869e+85
1.17033e+85
8.45473e+84
6.34708e+84
4.87196e+84
3.78214e+84
2.95484e+84
2.31799e+84
1.82363e+84
1.43802e+84
1.13991e+84
1.11568e+85
8.17348e+84
5.21179e+84
3.43366e+84
2.34371e+84
1.6679e+84
1.23897e+84
9.50696e+83
7.41624e+83
5.82562e+83
4.59186e+83
3.6269e+83
2.86893e+83
2.27272e+83
1.80607e+83
7.95166e+83
5.6888e+83
3.68305e+83
2.4722e+83
1.7234e+83
1.25305e+83
9.47369e+82
7.35138e+82
5.77352e+82
4.5537e+82
3.59656e+82
2.84153e+82
2.24484e+82
1.77381e+82
1.40411e+82
8.05668e+82
4.56696e+82
2.4726e+82
1.48104e+82
9.60637e+81
6.66593e+81
4.88274e+81
3.70525e+81
2.86904e+81
2.24351e+81
1.76137e+81
1.3851e+81
1.0898e+81
8.57909e+80
6.77181e+80
9.94711e+81
6.13008e+81
3.25358e+81
1.86366e+81
1.14124e+81
7.4185e+80
5.07017e+80
3.59498e+80
2.60402e+80
1.90711e+80
1.40623e+80
1.04201e+80
7.74913e+79
5.7866e+79
4.3529e+79
2.88908e+80
3.09616e+80
2.17764e+80
1.48899e+80
1.03652e+80
7.44264e+79
5.48974e+79
4.11747e+79
3.10559e+79
2.34108e+79
1.76088e+79
1.32108e+79
9.88947e+78
7.40028e+78
5.55135e+78
-6.17409e+79
-3.58194e+79
-1.69529e+79
-8.47536e+78
-4.4055e+78
-2.34046e+78
-1.24753e+78
-6.48223e+77
-3.1099e+77
-1.21395e+77
-1.85876e+76
3.27634e+76
5.44235e+76
6.00877e+76
5.73578e+76
-2.67126e+78
-2.8787e+78
-2.10335e+78
-1.45226e+78
-1.01419e+78
-7.264e+77
-5.32375e+77
-3.96141e+77
-2.96267e+77
-2.21309e+77
-1.64733e+77
-1.2218e+77
-9.04362e+76
-6.69886e+76
-4.99703e+76
-1.68094e+77
-2.39956e+76
-1.0986e+76
-8.36465e+75
-8.02489e+75
-7.80564e+75
-7.42927e+75
-6.89903e+75
-6.22007e+75
-5.42733e+75
-4.59242e+75
-3.78826e+75
-3.06645e+75
-2.45239e+75
-1.96275e+75
-1.5805e+77
-7.45351e+76
-3.15809e+76
-1.45642e+76
-7.22267e+75
-3.79714e+75
-2.09744e+75
-1.20823e+75
-7.19329e+74
-4.39064e+74
-2.73806e+74
-1.74452e+74
-1.13496e+74
-7.49173e+73
-5.11822e+73
-2.28851e+76
-1.29344e+76
-6.60514e+75
-3.66261e+75
-2.19349e+75
-1.39543e+75
-9.28581e+74
-6.37246e+74
-4.44761e+74
-3.12781e+74
-2.20797e+74
-1.56404e+74
-1.11324e+74
-7.98482e+73
-5.80509e+73
-2.08119e+75
-9.84517e+74
-4.69786e+74
-2.5831e+74
-1.5808e+74
-1.04009e+74
-7.19149e+73
-5.12951e+73
-3.71378e+73