/*--------------------------------*- C++ -*----------------------------------*\
  =========                 |
  \\      /  F ield         | OpenFOAM: The Open Source CFD Toolbox
   \\    /   O peration     | Website:  https://openfoam.org
    \\  /    A nd           | Version:  7
     \\/     M anipulation  |
\*---------------------------------------------------------------------------*/
FoamFile
{
    version     2.0;
    format      ascii;
    class       volScalarField;
    location    "2.9";
    object      T;
}
// * * * * * * * * * * * * * * * * * * * * * * * * * * * * * * * * * * * * * //

dimensions      [0 0 0 1 0 0 0];

internalField   nonuniform List<scalar> 
32100
(
1.93479e+80
-3.05093e+79
1.74202e+78
1.77567e+77
-3.27501e+76
-2.38594e+75
5.07412e+74
-3.8628e+73
-3.06516e+72
6.35675e+71
3.14609e+70
-1.68985e+69
7.75664e+66
5.44505e+66
2.03403e+66
-3.37384e+79
1.8112e+78
1.93403e+77
-3.36468e+76
-2.52914e+75
5.25275e+74
-3.93068e+73
-3.1648e+72
6.71916e+71
6.72083e+70
6.98663e+69
-2.13624e+69
3.33703e+67
4.20947e+66
1.4664e+66
1.85407e+78
2.16915e+77
-3.49649e+76
-2.70022e+75
5.50048e+74
-4.05852e+73
-3.3912e+72
6.71622e+71
4.99369e+70
-1.0716e+70
-1.31793e+68
-1.32234e+69
4.22831e+67
4.81256e+66
1.18171e+66
2.5137e+77
-3.70554e+76
-3.09503e+75
5.95614e+74
-3.90711e+73
-4.09218e+72
5.93242e+71
5.4295e+70
-1.12325e+70
-6.04472e+68
-8.7152e+68
-5.90816e+68
4.14191e+67
6.04028e+66
8.54841e+65
-3.66113e+76
-3.90545e+75
5.01175e+74
-2.46555e+73
-1.79063e+72
9.75696e+70
-3.63344e+70
-9.51525e+69
1.33655e+68
-3.6062e+68
-3.43103e+68
-1.83808e+68
3.48289e+67
6.01858e+66
4.64119e+65
-2.9315e+75
1.98372e+74
-1.60103e+74
1.19021e+73
2.72673e+72
-5.01053e+71
-1.05253e+71
8.90151e+68
-1.88847e+67
-1.68142e+68
-3.17366e+67
-2.41886e+67
2.48897e+67
4.57157e+66
1.35201e+65
1.69266e+75
-4.7599e+74
-1.21718e+74
1.49861e+73
2.21007e+72
-5.25896e+71
-9.59778e+70
-2.1034e+68
-3.25288e+67
-1.08147e+68
2.19575e+67
1.53765e+67
1.45706e+67
2.59157e+66
-7.08571e+64
8.07783e+74
-3.89589e+74
-1.16397e+74
1.26324e+73
2.25247e+72
-4.6508e+71
-9.75971e+70
-1.05405e+69
2.96499e+67
-1.08197e+68
1.85738e+67
1.39163e+67
6.60668e+66
9.97865e+65
-1.5059e+65
7.62539e+74
-3.38484e+74
-1.16038e+74
1.07783e+73
2.36047e+72
-4.13033e+71
-9.81546e+70
-1.8164e+69
7.31534e+67
-1.11503e+68
8.07396e+66
6.7893e+66
2.14134e+66
1.47009e+65
-1.40082e+65
6.89819e+74
-2.95357e+74
-1.14408e+74
8.9653e+72
2.43402e+72
-3.58805e+71
-9.78486e+70
-2.60603e+69
1.09709e+68
-1.0708e+68
2.49344e+66
3.77907e+66
4.36361e+65
-1.21051e+65
-9.15768e+64
6.17364e+74
-2.54886e+74
-1.12241e+74
7.13255e+72
2.4852e+72
-3.03758e+71
-9.67932e+70
-3.39314e+69
1.35516e+68
-9.83155e+67
-1.65378e+65
2.93299e+66
8.47128e+64
-1.14712e+65
-4.46751e+64
5.49613e+74
-2.20874e+74
-1.08913e+74
5.34229e+72
2.5171e+72
-2.49065e+71
-9.50419e+70
-4.15479e+69
1.47461e+68
-8.78458e+67
-1.7626e+66
2.46496e+66
1.30606e+65
-5.03696e+64
-1.51483e+64
4.68212e+74
-1.9749e+74
-1.00651e+74
3.82911e+72
2.5026e+72
-1.96113e+71
-9.27173e+70
-4.86678e+69
1.44597e+68
-7.70542e+67
-2.85836e+66
1.99241e+66
1.52482e+65
-1.3493e+64
-2.88979e+63
3.16696e+74
-1.58328e+74
-7.98853e+73
2.18503e+72
2.22091e+72
-1.49848e+71
-8.89283e+70
-5.4869e+69
1.26785e+68
-6.65417e+67
-3.83721e+66
1.68775e+66
1.28261e+65
-5.34115e+63
-5.2804e+62
1.53984e+74
-1.07044e+74
-6.35702e+73
8.36324e+71
1.8146e+72
-1.00127e+71
-7.76644e+70
-5.72761e+69
1.00006e+68
-5.77013e+67
-4.93405e+66
1.73861e+66
1.50535e+65
-3.23775e+63
1.10994e+61
1.49362e+74
-7.0195e+73
-5.51781e+73
-9.65886e+70
1.56901e+72
-5.43979e+70
-6.73337e+70
-5.9624e+69
7.299e+67
-5.02852e+67
-6.18654e+66
1.81222e+66
2.08607e+65
-2.3482e+63
1.84125e+62
1.55031e+74
-5.2816e+73
-5.03584e+73
-7.81285e+71
1.46786e+72
-1.84315e+70
-6.23343e+70
-6.44183e+69
3.9639e+67
-4.29873e+67
-7.34437e+66
1.68758e+66
2.51671e+65
-9.67851e+62
1.80613e+62
1.32404e+74
-4.27106e+73
-4.7697e+73
-1.40651e+72
1.41111e+72
1.1167e+70
-5.8864e+70
-7.03064e+69
-7.77688e+66
-3.53879e+67
-8.31705e+66
1.47329e+66
2.78005e+65
1.28188e+63
6.99879e+61
1.13973e+74
-3.433e+73
-4.49036e+73
-2.01326e+72
1.34132e+72
3.95919e+70
-5.55092e+70
-7.68419e+69
-6.99747e+67
-2.76624e+67
-9.08201e+66
1.21291e+66
2.92271e+65
4.13757e+63
-8.59399e+61
9.66079e+73
-2.67959e+73
-4.18671e+73
-2.60518e+72
1.25693e+72
6.78126e+70
-5.17301e+70
-8.34111e+69
-1.47879e+68
-2.01586e+67
-9.62058e+66
9.49531e+65
3.07598e+65
7.53884e+63
-2.52084e+62
7.95856e+73
-2.02103e+73
-3.85801e+73
-3.16368e+72
1.159e+72
9.5526e+70
-4.73538e+70
-8.96832e+69
-2.42531e+68
-1.3228e+67
-9.92416e+66
6.62853e+65
3.14819e+65
1.12373e+64
-3.98551e+62
6.38134e+73
-1.44528e+73
-3.52044e+73
-3.68118e+72
1.04719e+72
1.2229e+71
-4.23026e+70
-9.56283e+69
-3.55801e+68
-7.20926e+66
-1.00097e+67
3.61933e+65
3.06632e+65
1.46512e+64
-4.83191e+62
5.00373e+73
-9.52307e+72
-3.18654e+73
-4.14348e+72
9.21651e+71
1.47393e+71
-3.65472e+70
-1.01178e+70
-4.90773e+68
-2.46379e+66
-9.91265e+66
7.00873e+64
2.97027e+65
1.7915e+64
-4.96816e+62
3.82991e+73
-5.38134e+72
-2.85724e+73
-4.53944e+72
7.81552e+71
1.6946e+71
-3.00966e+70
-1.06222e+70
-6.50963e+68
5.15421e+65
-9.65162e+66
-2.16764e+65
2.90094e+65
2.13782e+64
-4.53296e+62
2.85097e+73
-2.01977e+72
-2.53973e+73
-4.86971e+72
6.28194e+71
1.87842e+71
-2.29497e+70
-1.10433e+70
-8.4018e+68
1.03481e+66
-9.18862e+66
-5.1135e+65
2.84059e+65
2.5318e+64
-3.63665e+62
2.04839e+73
5.91564e+71
-2.23054e+73
-5.12438e+72
4.63244e+71
2.02098e+71
-1.51209e+70
-1.133e+70
-1.06233e+69
-1.8413e+66
-8.48252e+66
-8.30256e+65
2.78103e+65
3.01795e+64
-2.24988e+62
1.41102e+73
2.64572e+72
-1.93172e+73
-5.3049e+72
2.87917e+71
2.11538e+71
-6.64909e+69
-1.14394e+70
-1.31995e+69
-9.36018e+66
-7.46785e+66
-1.17265e+66
2.66035e+65
3.581e+64
-1.01721e+61
8.81918e+72
4.27677e+72
-1.65362e+73
-5.42651e+72
1.03704e+71
2.15321e+71
2.41876e+69
-1.13179e+70
-1.61041e+69
-2.34157e+67
-6.12433e+66
-1.50736e+66
2.39126e+65
4.11008e+64
2.99069e+62
4.18593e+72
5.35308e+72
-1.40157e+73
-5.49017e+72
-8.76399e+70
2.12765e+71
1.20077e+70
-1.09145e+70
-1.93245e+69
-4.65515e+67
-4.50436e+66
-1.8274e+66
2.00271e+65
4.62823e+64
7.06414e+62
2.84019e+71
5.70475e+72
-1.17241e+73
-5.47227e+72
-2.83015e+71
2.02945e+71
2.20003e+70
-1.01631e+70
-2.28963e+69
-8.16156e+67
-2.72576e+66
-2.12353e+66
1.48726e+65
5.15949e+64
1.22206e+63
-2.55547e+72
5.44225e+72
-9.56922e+72
-5.34708e+72
-4.78142e+71
1.84766e+71
3.2229e+70
-8.97172e+69
-2.68022e+69
-1.33015e+68
-9.68484e+65
-2.33882e+66
7.95529e+64
5.54673e+64
1.81138e+63
-4.1766e+72
5.03255e+72
-7.4808e+72
-5.12624e+72
-6.67868e+71
1.57214e+71
4.2372e+70
-7.22053e+69
-3.09195e+69
-2.0608e+68
4.02809e+65
-2.43017e+66
4.77814e+62
5.82387e+64
2.48595e+63
-5.03702e+72
4.81934e+72
-5.5905e+72
-4.82175e+72
-8.45938e+71
1.19209e+71
5.18705e+70
-4.77091e+69
-3.49103e+69
-3.07968e+68
6.32262e+65
-2.46624e+66
-9.15528e+64
6.28731e+64
3.45414e+63
-5.80968e+72
4.61493e+72
-3.99273e+72
-4.44686e+72
-1.01001e+72
7.00785e+70
6.00021e+70
-1.54587e+69
-3.819e+69
-4.45564e+68
-1.63573e+66
-2.44089e+66
-2.22049e+65
7.03991e+64
5.09847e+63
-6.46497e+72
4.03809e+72
-2.67433e+72
-4.01668e+72
-1.15846e+72
9.25018e+69
6.56388e+70
2.4349e+69
-3.998e+69
-6.25304e+68
-8.74002e+66
-2.14987e+66
-4.05869e+65
7.79213e+64
7.88064e+63
-6.75608e+72
3.19859e+72
-1.55523e+72
-3.5415e+72
-1.28612e+72
-6.36944e+70
6.68538e+70
7.04983e+69
-3.93338e+69
-8.47502e+68
-2.464e+67
-1.47116e+66
-6.5286e+65
8.00439e+64
1.24272e+64
-6.7696e+72
2.42088e+72
-6.06254e+71
-3.04047e+72
-1.38746e+72
-1.47279e+71
6.25624e+70
1.20864e+70
-3.53445e+69
-1.10075e+69
-5.46018e+67
-3.76361e+65
-9.52898e+65
6.56384e+64
1.94118e+64
-6.61021e+72
1.69156e+72
1.53076e+71
-2.51918e+72
-1.45302e+72
-2.37122e+71
5.23096e+70
1.71941e+70
-2.71778e+69
-1.36286e+69
-1.03953e+68
7.26475e+65
-1.20334e+66
1.96964e+64
2.86461e+64
-6.28542e+72
9.40772e+71
7.07629e+71
-1.97213e+72
-1.46378e+72
-3.25134e+71
3.54416e+70
2.18683e+70
-1.42728e+69
-1.58913e+69
-1.75462e+68
7.38684e+65
-1.27488e+66
-6.98892e+64
3.85513e+64
-5.80077e+72
1.76757e+71
1.04512e+72
-1.4245e+72
-1.39423e+72
-4.03641e+71
1.18121e+70
2.54125e+70
3.06462e+68
-1.71462e+69
-2.67379e+68
-1.9657e+66
-1.0274e+66
-2.16952e+65
4.53491e+64
-5.13583e+72
-5.52434e+71
1.14676e+72
-9.11239e+71
-1.25414e+72
-4.66239e+71
-1.75301e+70
2.68156e+70
2.3627e+69
-1.69084e+69
-3.7262e+68
-9.26945e+66
-2.4635e+65
-4.21118e+65
3.9931e+64
-4.31725e+72
-1.11484e+72
1.04092e+72
-4.67095e+71
-1.0773e+72
-5.0858e+71
-5.02154e+70
2.57945e+70
4.63315e+69
-1.50626e+69
-4.75061e+68
-2.24588e+67
8.68638e+65
-5.67614e+65
1.46162e+64
-3.47654e+72
-1.41679e+72
8.12402e+71
-1.18192e+71
-8.85301e+71
-5.28935e+71
-8.34711e+70
2.17783e+70
6.97298e+69
-1.16291e+69
-5.4346e+68
-3.89794e+67
1.80528e+66
-5.9086e+65
-2.75948e+64
-2.73737e+72
-1.50135e+72
5.69127e+71
1.29308e+71
-6.91781e+71
-5.28306e+71
-1.14801e+71
1.52777e+70
8.4991e+69
-6.97364e+68
-5.82674e+68
-5.65008e+67
2.34766e+66
-5.07012e+65
-7.90329e+64
-2.13838e+72
-1.47282e+72
3.53749e+71
2.85505e+71
-5.07667e+71
-5.10674e+71
-1.42555e+71
7.27116e+69
9.20767e+69
-1.78974e+68
-6.09169e+68
-7.1675e+67
2.10292e+66
-3.83381e+65
-2.03285e+65
-1.67093e+72
-1.40492e+72
1.58354e+71
3.71234e+71
-3.40657e+71
-4.81035e+71
-1.66755e+71
-1.45251e+69
9.51644e+69
3.17512e+68
-5.58561e+68
-7.62816e+67
1.2927e+66
-5.42251e+64
-1.34923e+65
-1.30188e+72
-1.32143e+72
-2.00317e+70
4.05519e+71
-1.94691e+71
-4.43533e+71
-1.88143e+71
-1.06804e+70
9.43914e+69
7.60372e+68
-4.87176e+68
-7.59224e+67
5.52038e+65
6.48265e+64
-6.67578e+64
-1.00495e+72
-1.22152e+72
-1.86998e+71
3.94626e+71
-7.07467e+70
-3.979e+71
-2.06009e+71
-2.04132e+70
9.31297e+69
1.15128e+69
-4.47626e+68
-7.84668e+67
5.44175e+64
1.15646e+65
-5.03846e+64
-7.61328e+71
-1.10364e+72
-3.30951e+71
3.47028e+71
3.15821e+70
-3.42507e+71
-2.17748e+71
-3.06275e+70
8.97108e+69
1.54522e+69
-4.18235e+68
-8.32857e+67
-4.05786e+65
1.49676e+65
-5.27622e+64
-5.65253e+71
-9.70488e+71
-4.39088e+71
2.78062e+71
1.13692e+71
-2.8029e+71
-2.22992e+71
-4.11562e+70
8.18959e+69
1.93983e+69
-3.89006e+68
-8.8925e+67
-9.16102e+65
1.74783e+65
-6.40127e+64
-4.10241e+71
-8.34984e+71
-5.18784e+71
1.91154e+71
1.7537e+71
-2.16112e+71
-2.24854e+71
-5.21143e+70
6.96203e+69
2.32445e+69
-3.54244e+68
-9.35843e+67
-1.48131e+66
1.74205e+65
-7.83243e+64
-2.8914e+71
-7.01994e+71
-5.761e+71
8.85996e+70
2.16199e+71
-1.50422e+71
-2.23488e+71
-6.39808e+70
5.2334e+69
2.68903e+69
-3.0852e+68
-9.46776e+67
-2.03163e+66
1.28891e+65
-9.14673e+64
-1.98704e+71
-5.70587e+71
-5.96283e+71
-1.43314e+70
2.37616e+71
-8.27233e+70
-2.16191e+71
-7.65838e+70
2.89468e+69
3.02445e+69
-2.54228e+68
-9.14492e+67
-2.47269e+66
3.53764e+64
-1.13809e+65
-1.33149e+71
-4.49476e+71
-5.79976e+71
-1.11622e+71
2.39682e+71
-1.46359e+70
-2.01875e+71
-8.93214e+70
-1.5876e+68
3.30161e+69
-1.9729e+68
-8.42887e+67
-2.75632e+66
-9.80602e+64
-1.72586e+65
-8.53854e+70
-3.45303e+71
-5.44568e+71
-2.05016e+71
2.1576e+71
5.11867e+70
-1.79275e+71
-1.01461e+71
-3.99106e+69
3.49463e+69
-1.43368e+68
-7.30121e+67
-2.88528e+66
-2.4642e+65
-2.7021e+65
-5.11006e+70
-2.55397e+71
-4.94255e+71
-2.9167e+71
1.64963e+71
1.11045e+71
-1.47624e+71
-1.12132e+71
-8.62603e+69
3.57428e+69
-1.00104e+68
-5.66082e+67
-2.94556e+66
-2.94314e+65
-2.91697e+65
-2.74874e+70
-1.78177e+71
-4.29175e+71
-3.61148e+71
9.23712e+70
1.59616e+71
-1.07011e+71
-1.21122e+71
-1.40213e+70
3.403e+69
-6.98372e+67
-3.40458e+67
-2.65879e+66
-2.603e+65
-2.69376e+65
-1.26715e+70
-1.15176e+71
-3.53133e+71
-4.05585e+71
2.11229e+69
1.90598e+71
-5.67972e+70
-1.27045e+71
-2.00262e+70
2.98622e+69
-5.04377e+67
-1.11101e+67
-2.8014e+66
-4.02158e+65
-2.76894e+65
-4.56973e+69
-6.70119e+70
-2.71642e+71
-4.21106e+71
-9.76135e+70
1.98481e+71
2.60146e+69
-1.27069e+71
-2.66568e+70
2.48953e+69
-3.56158e+67
3.04963e+66
-3.98139e+66
-8.16905e+65
-4.05658e+65
-8.57576e+68
-3.33381e+70
-1.90925e+71
-4.05975e+71
-1.96859e+71
1.7803e+71
6.83641e+70
-1.17742e+71
-3.42026e+70
2.76444e+69
3.10528e+67
3.68031e+66
-4.52299e+66
-1.90801e+66
-9.52588e+65
3.09995e+68
-1.22392e+70
-1.16634e+71
-3.62292e+71
-2.88176e+71
1.23635e+71
1.35173e+71
-9.50724e+70
-4.15622e+70
4.15053e+69
7.98207e+67
-4.6259e+67
-2.12483e+67
-1.37968e+67
-5.3282e+66
1.28514e+68
-1.76206e+69
-5.43396e+70
-2.92365e+71
-3.63822e+71
3.03871e+70
1.92792e+71
-5.71409e+70
-4.5476e+70
2.35208e+69
5.55899e+68
-5.77247e+66
6.45919e+67
3.01091e+67
4.1871e+66
-2.74516e+68
3.45221e+68
-1.03723e+70
-1.99281e+71
-4.10855e+71
-1.00577e+71
2.24722e+71
-6.75343e+69
-5.0805e+70
-3.22242e+69
9.89067e+68
-2.75684e+66
2.40973e+67
8.01189e+67
5.33592e+67
-3.23602e+68
-4.94862e+68
8.80105e+69
-9.27849e+70
-4.0963e+71
-2.53895e+71
2.14926e+71
5.4498e+70
-5.13341e+70
-1.17649e+70
-4.05441e+69
-3.74966e+69
-5.1782e+69
-6.59053e+69
-3.91796e+69
-1.55174e+68
-7.70624e+68
8.57191e+69
-6.77194e+69
-3.41546e+71
-3.98276e+71
1.56621e+71
1.14079e+71
-3.63301e+70
-1.2857e+70
-1.29784e+70
-1.27067e+70
-1.66559e+70
-1.34227e+70
-7.05442e+69
-2.04835e+69
-6.59952e+68
1.51649e+70
4.52587e+69
-2.30345e+71
-4.83737e+71
6.37095e+70
1.50156e+71
-1.02951e+70
-3.87728e+69
-3.16358e+69
-7.50122e+69
-7.87735e+69
-5.58684e+69
-6.83092e+69
2.21409e+71
9.50831e+70
5.19528e+70
-3.56108e+70
-2.21849e+71
-4.36027e+71
-1.27184e+70
1.55552e+71
1.55215e+70
8.87621e+68
-1.18961e+69
-1.39431e+69
-1.3057e+69
-1.75886e+69
-5.92576e+69
-2.93914e+72
-1.19169e+72
-4.79584e+71
-2.29986e+71
-3.43183e+71
-3.7865e+71
7.43971e+70
1.51947e+71
4.27329e+70
-2.01501e+68
-4.4014e+69
-3.42704e+69
-2.51734e+69
-1.75178e+69
-4.78364e+69
6.05736e+72
2.23668e+72
-6.2961e+71
-1.20117e+72
-9.76477e+71
-5.12753e+70
5.27335e+71
2.81505e+71
6.12949e+70
3.24095e+69
-4.77307e+69
-4.1648e+69
-2.83767e+69
-1.73986e+69
-4.07219e+69
2.80053e+74
7.30257e+73
2.84373e+73
1.39387e+73
7.36671e+72
4.15061e+72
1.86657e+72
5.3259e+71
8.95058e+70
-7.33597e+69
-1.44973e+70
-9.17832e+69
-5.03323e+69
-2.61129e+69
-3.86106e+69
2.24601e+75
5.83946e+74
3.1165e+74
1.52686e+74
8.12666e+73
4.45547e+73
1.78346e+73
4.4974e+72
9.56194e+71
1.85955e+71
3.6919e+70
1.11233e+70
6.33804e+69
4.48184e+69
1.14017e+70
-7.07076e+76
-7.87431e+75
-5.18341e+74
1.92771e+74
2.03027e+74
1.06939e+74
3.41843e+73
8.59452e+72
2.07651e+72
5.65463e+71
2.0201e+71
9.95602e+70
5.86939e+70
3.80588e+70
6.04168e+70
5.30057e+77
-1.98455e+76
-1.5329e+76
-3.14611e+75
-3.00551e+74
6.3495e+73
3.54176e+73
7.75541e+72
1.26023e+72
-2.02323e+71
-4.72994e+71
-4.19746e+71
-2.80123e+71
-1.37595e+71
-5.63549e+70
3.52697e+77
5.09364e+77
-7.87371e+75
-5.79927e+75
-3.55867e+74
2.10822e+73
1.37396e+73
3.9053e+72
-1.43814e+72
-1.05978e+72
-4.30799e+71
-1.56044e+71
-1.20618e+71
-1.3176e+71
-1.68025e+71
-3.99838e+79
2.16943e+77
5.63509e+77
-7.98054e+76
4.61198e+75
7.49206e+74
7.35832e+71
-7.90819e+72
-5.43108e+72
-9.0063e+72
-8.298e+72
-6.43429e+72
-4.13627e+72
-2.10778e+72
-9.19314e+71
-4.38748e+80
-3.85625e+79
1.03345e+78
4.37929e+77
-8.85822e+76
3.13178e+75
-1.8504e+75
-2.44802e+75
-2.20522e+75
-1.87428e+75
-1.49893e+75
-1.08843e+75
-6.77976e+74
-3.37249e+74
-1.18954e+74
6.30373e+81
-4.27106e+80
-3.52255e+79
9.73304e+77
3.46694e+77
-1.22163e+77
-2.72034e+76
-2.56245e+76
-2.07617e+76
-1.57833e+76
-1.15559e+76
-8.0416e+75
-5.06455e+75
-2.71762e+75
-1.02004e+75
-5.70124e+82
5.62968e+81
-4.11762e+80
-3.41509e+79
7.49339e+77
1.97528e+77
-1.98425e+77
-7.39411e+76
-5.10981e+76
-3.2238e+76
-1.87934e+76
-1.08494e+76
-6.74166e+75
-4.69628e+75
-2.11087e+75
1.68267e+83
-4.99533e+82
5.13647e+81
-4.01348e+80
-3.38279e+79
4.34125e+77
-1.24437e+77
-5.20866e+77
-4.07238e+77
-3.71157e+77
-3.1483e+77
-2.43652e+77
-1.65225e+77
-9.29602e+76
-3.92148e+76
2.32398e+84
1.30798e+83
-4.50013e+82
4.80744e+81
-3.93146e+80
-3.45673e+79
8.4275e+77
1.33523e+78
1.68345e+78
2.18455e+78
2.24678e+78
1.98513e+78
1.49569e+78
9.27121e+77
4.51348e+77
7.0454e+85
6.33717e+84
4.07189e+83
-1.33408e+83
1.47903e+82
-5.63231e+80
3.88304e+80
4.77696e+80
4.51649e+80
4.03938e+80
3.43447e+80
2.77858e+80
2.07325e+80
1.49084e+80
1.10499e+80
-9.57563e+86
6.39529e+85
5.91839e+84
4.52623e+83
-1.30627e+83
1.87526e+82
2.77671e+81
2.94902e+81
2.63707e+81
2.1906e+81
1.54227e+81
1.02956e+81
7.03082e+80
4.77512e+80
2.85941e+80
9.05742e+87
-8.54139e+86
6.28833e+85
6.27014e+84
5.20788e+83
-1.00531e+83
3.20056e+82
1.3823e+82
1.05406e+82
7.95664e+81
5.74807e+81
3.86122e+81
2.31735e+81
1.23262e+81
6.85829e+80
-3.90872e+88
7.89394e+87
-7.98205e+86
5.46625e+85
1.0656e+85
1.412e+84
8.74803e+82
9.93739e+82
7.18096e+82
4.26127e+82
2.62696e+82
1.51801e+82
7.76783e+81
3.45832e+81
1.66748e+81
-4.82103e+89
-3.16959e+88
7.08082e+87
-7.34518e+86
5.23843e+85
4.96868e+84
5.2583e+83
5.28961e+82
8.43893e+82
4.80489e+82
3.19238e+82
2.16e+82
1.36928e+82
7.60031e+81
4.2659e+81
-3.75445e+88
7.70896e+87
-8.23769e+86
5.90607e+85
6.74933e+84
9.2181e+83
9.87958e+82
1.35016e+83
7.22679e+82
4.46711e+82
2.90546e+82
2.16771e+82
1.58981e+82
1.08208e+82
7.14769e+81
9.17168e+87
-9.49983e+86
3.63331e+85
6.84281e+84
1.45917e+84
3.59253e+83
1.98481e+83
1.18142e+83
7.28215e+82
4.46362e+82
2.75456e+82
2.14037e+82
1.62461e+82
1.23605e+82
8.88e+81
-6.78892e+86
-3.92169e+85
-5.13243e+83
1.07184e+84
7.7586e+83
4.61072e+83
2.7167e+83
1.64093e+83
1.00682e+83
6.24251e+82
4.073e+82
3.20626e+82
1.98973e+82
1.27094e+82
7.83666e+81
2.34477e+85
5.31898e+84
2.34578e+84
1.05872e+84
5.48738e+83
3.10972e+83
1.83992e+83
1.11862e+83
6.97292e+82
4.91566e+82
4.41211e+82
5.26336e+82
4.70775e+81
9.36329e+80
2.92784e+80
1.08521e+84
2.93977e+83
2.0323e+83
1.35382e+83
8.4038e+82
5.21678e+82
3.33726e+82
2.23998e+82
1.85085e+82
3.4741e+82
8.78139e+81
-1.19793e+81
1.14853e+80
1.48313e+79
3.11944e+78
1.91071e+83
7.13486e+82
2.03997e+82
4.7581e+81
1.52443e+80
-1.0962e+81
-1.26893e+81
-1.29936e+81
-1.80662e+81
2.06428e+82
2.68001e+82
2.66079e+81
-6.15212e+80
-3.73153e+80
-1.91127e+80
-3.36566e+82
-1.26347e+82
-5.20569e+81
-2.68934e+81
-1.61306e+81
-8.80767e+80
-3.216e+80
1.13792e+80
1.00445e+81
6.01498e+81
2.17946e+82
1.46396e+82
8.4589e+81
4.80088e+81
2.71075e+81
3.00102e+81
1.10801e+81
5.15553e+80
3.12826e+80
2.2137e+80
1.43678e+80
4.29387e+79
-2.99355e+79
-4.9282e+79
-2.15075e+80
1.3415e+81
2.79585e+81
2.87529e+81
2.3386e+81
1.76572e+81
-1.08031e+80
-3.78483e+79
-2.56778e+79
-1.93815e+79
-1.6249e+79
-1.27567e+79
-5.55043e+78
-1.95009e+75
2.38773e+78
3.45569e+78
-5.77291e+79
-7.78568e+79
-6.60559e+79
-5.30592e+79
-4.42433e+79
-1.38409e+79
-4.86978e+78
-2.74686e+78
-2.06739e+78
-1.71628e+78
-1.37727e+78
-1.0583e+78
-7.22477e+77
-1.35752e+77
1.05564e+78
1.0816e+78
-9.34399e+77
-1.81483e+78
-1.8404e+78
-1.65271e+78
-8.81081e+77
-4.47071e+77
-9.88116e+76
3.02231e+76
7.66296e+76
7.26406e+76
-1.7971e+76
-1.0999e+77
-1.88509e+77
-3.53337e+77
4.22484e+77
9.20886e+77
9.05473e+77
7.6161e+77
6.06468e+77
3.98981e+77
1.61211e+77
6.53696e+76
3.2094e+76
1.79446e+76
9.63426e+75
4.73557e+75
-2.52026e+75
-2.61143e+76
-9.50196e+76
-2.17895e+77
-2.18456e+77
-1.73171e+77
-1.32997e+77
-1.01413e+77
-4.9249e+76
-1.8671e+76
-9.22228e+75
-5.84614e+75
-4.19132e+75
-2.70648e+75
-9.58433e+74
5.3687e+74
1.31436e+75
-8.438e+74
-9.16658e+75
-1.25037e+76
-1.1249e+76
-9.02982e+75
-6.92044e+75
1.14829e+75
4.13249e+74
3.54059e+74
2.91655e+74
2.36954e+74
1.39918e+74
-9.261e+72
-7.12144e+73
9.89025e+73
6.92124e+74
1.66225e+75
1.76303e+75
1.44504e+75
1.11213e+75
8.36584e+74
3.15316e+74
1.11396e+74
6.44975e+73
4.94375e+73
4.07783e+73
3.00705e+73
1.36832e+73
-1.31432e+73
-5.57867e+73
-9.36086e+73
-9.71028e+73
-6.53747e+73
-4.23358e+73
-3.04894e+73
-2.60479e+73
2.19673e+73
9.95854e+72
1.61935e+72
-1.10166e+72
-1.63829e+72
-5.00476e+71
2.10073e+72
3.89271e+72
2.06003e+72
-6.89431e+72
-2.05136e+73
-2.29792e+73
-1.95476e+73
-1.60854e+73
-1.4704e+73
-9.36717e+72
-3.66548e+72
-1.45388e+72
-7.1528e+71
-3.9921e+71
-1.94851e+71
3.51239e+70
5.61968e+71
1.72212e+72
3.2977e+72
4.15796e+72
3.48438e+72
2.42872e+72
1.11287e+72
-1.06597e+72
1.09726e+72
4.15468e+71
2.07377e+71
1.33229e+71
9.41378e+70
5.55166e+70
1.14838e+70
-2.13366e+70
-9.04734e+69
1.11167e+71
3.00399e+71
3.08218e+71
1.69664e+71
-2.53137e+71
-1.4255e+72
-1.8991e+70
-6.90807e+69
-6.93585e+69
-6.02535e+69
-4.86395e+69
-2.68698e+69
1.64197e+68
4.20925e+68
-6.02412e+69
-2.15931e+70
-3.84161e+70
-3.01636e+70
-3.45021e+69
-8.25291e+70
-6.0314e+71
-7.09269e+69
-2.63537e+69
-1.49945e+69
-1.11654e+69
-9.06489e+68
-6.73362e+68
-3.12326e+68
2.87639e+68
1.31573e+69
3.08596e+69
4.90939e+69
7.84344e+69
1.78264e+70
4.36105e+70
8.37026e+70
-3.54671e+68
-1.78787e+68
-2.69658e+67
2.69861e+67
3.8797e+67
2.08745e+67
-2.52197e+67
-6.5734e+67
8.80573e+67
1.48227e+69
3.49505e+69
5.84479e+69
9.84264e+69
1.86842e+70
3.67673e+70
1.74298e+68
7.38204e+67
3.10092e+67
1.53541e+67
8.59715e+66
4.50171e+66
-7.84874e+65
-8.9027e+66
1.29974e+68
1.66549e+69
3.65908e+69
5.98999e+69
9.21701e+69
1.42344e+70
2.23524e+70
-2.10346e+67
-8.55494e+66
-4.48252e+66
-2.89564e+66
-2.07902e+66
-1.5839e+66
-2.45313e+66
-3.05243e+66
1.7408e+68
2.06487e+69
4.42875e+69
7.18216e+69
1.08783e+70
1.60699e+70
2.33392e+70
3.41614e+65
1.2793e+65
1.31182e+65
1.16579e+65
9.34436e+64
-1.18858e+65
-1.92118e+66
-4.24718e+66
1.98246e+68
2.26442e+69
4.81822e+69
8.02791e+69
1.2383e+70
1.84855e+70
2.69425e+70
1.20325e+65
4.77263e+64
2.9842e+64
2.45283e+64
1.7923e+64
-1.68569e+65
-2.10555e+66
-5.65636e+66
2.37381e+68
2.09012e+69
4.44055e+69
7.58735e+69
1.19697e+70
1.81195e+70
2.66062e+70
8.59319e+63
4.9012e+63
2.38589e+63
2.73034e+63
1.00143e+63
-1.73974e+65
-2.27841e+66
-7.60079e+66
1.32341e+68
1.55414e+69
3.52284e+69
6.10338e+69
9.56454e+69
1.42779e+70
2.05994e+70
-2.70523e+63
-7.33029e+62
6.55883e+62
2.70304e+63
3.11183e+63
-1.53527e+65
-2.3418e+66
-9.38342e+66
8.34015e+67
9.29822e+68
2.28315e+69
3.98069e+69
6.10187e+69
8.83416e+69
1.2339e+70
5.49762e+62
8.26501e+62
1.59061e+63
3.50977e+63
4.92695e+63
-1.31071e+65
-2.2714e+66
-1.05087e+67
6.61459e+67
4.18025e+68
1.04988e+69
1.91176e+69
2.98651e+69
4.29888e+69
5.90233e+69
3.31612e+62
8.26505e+62
1.7596e+63
3.86656e+63
6.09525e+63
-1.14864e+65
-2.15585e+66
-1.34076e+67
2.65862e+67
1.44458e+68
3.65358e+68
6.9861e+68
1.13693e+69
1.67669e+69
2.3388e+69
3.79908e+62
9.72392e+62
2.07762e+63
4.40442e+63
7.50177e+63
-1.03554e+65
-2.26586e+66
-2.07966e+67
-1.51746e+67
1.87615e+67
8.16664e+67
1.78398e+68
3.13572e+68
4.91608e+68
7.18685e+68
4.52737e+62
1.16894e+63
2.50561e+63
5.12902e+63
9.20807e+63
-8.42226e+64
-2.41357e+66
-2.02316e+67
-2.86864e+67
-2.62283e+67
-1.64633e+67
1.22493e+66
2.8353e+67
6.71561e+67
1.20591e+68
5.27418e+62
1.37984e+63
2.97341e+63
5.92404e+63
1.06579e+64
-5.43122e+64
-2.71778e+66
-1.57973e+67
-2.28478e+67
-2.6924e+67
-2.97895e+67
-3.15177e+67
-3.20516e+67
-3.09954e+67
-2.73874e+67
6.04027e+62
1.59784e+63
3.45651e+63
6.74234e+63
1.16427e+64
-2.43639e+64
-2.2973e+66
-9.49269e+66
-1.29928e+67
-1.5619e+67
-1.80837e+67
-2.07128e+67
-2.36735e+67
-2.69257e+67
-3.02509e+67
6.90598e+62
1.84632e+63
4.00942e+63
7.67538e+63
1.23352e+64
-6.85131e+63
-9.35222e+65
-4.42066e+66
-5.95053e+66
-6.94869e+66
-7.85291e+66
-8.88093e+66
-1.01392e+67
-1.16168e+67
-1.32582e+67
7.86915e+62
2.12978e+63
4.66011e+63
8.8168e+63
1.30325e+64
-5.94331e+63
-4.63577e+65
-1.48987e+66
-2.1024e+66
-2.45859e+66
-2.72861e+66
-3.02903e+66
-3.37754e+66
-3.76186e+66
-4.17207e+66
8.88001e+62
2.42849e+63
5.35625e+63
1.01191e+64
1.49537e+64
-4.7887e+63
-1.22378e+65
-3.31782e+65
-5.03621e+65
-6.23386e+65
-7.15457e+65
-8.02572e+65
-8.888e+65
-9.72065e+65
-1.05099e+66
9.70106e+62
2.73324e+63
6.23157e+63
1.2146e+64
1.96938e+64
2.36625e+64
1.6298e+64
-8.07739e+63
-4.02947e+64
-7.02469e+64
-9.6589e+64
-1.20625e+65
-1.42842e+65
-1.6312e+65
-1.81338e+65
7.88974e+62
2.24001e+63
5.06161e+63
9.69231e+63
1.6058e+64
2.29236e+64
2.736e+64
2.73657e+64
2.4442e+64
2.04998e+64
1.62257e+64
1.19018e+64
7.60421e+63
3.38071e+63
-7.17679e+62
4.05941e+62
1.15026e+63
2.46021e+63
4.34605e+63
6.57009e+63
8.76342e+63
1.04336e+64
1.1277e+64
1.14983e+64
1.14592e+64
1.12941e+64
1.10208e+64
1.06417e+64
1.01616e+64
9.59855e+63
8.2885e+61
2.8627e+62
6.00034e+62
9.8423e+62
1.37059e+63
1.71817e+63
1.9933e+63
2.17787e+63
2.28979e+63
2.36313e+63
2.41634e+63
2.4508e+63
2.463e+63
2.45171e+63
2.41862e+63
-2.70818e+61
-8.71703e+59
3.62667e+61
7.46939e+61
1.09334e+62
1.38578e+62
1.62133e+62
1.8019e+62
1.93915e+62
2.05048e+62
2.14531e+62
2.22298e+62
2.28006e+62
2.31465e+62
2.32636e+62
-2.78608e+61
-2.81841e+61
-2.47207e+61
-2.10179e+61
-1.75115e+61
-1.44915e+61
-1.19541e+61
-9.82612e+60
-8.05576e+60
-6.58658e+60
-5.34746e+60
-4.27487e+60
-3.32612e+60
-2.47245e+60
-1.7288e+60
-1.11384e+61
-1.21545e+61
-1.1327e+61
-1.01718e+61
-8.94677e+60
-7.81802e+60
-6.82177e+60
-5.96659e+60
-5.27113e+60
-4.72469e+60
-4.28376e+60
-3.90996e+60
-3.58093e+60
-3.2839e+60
-3.01795e+60
-2.60226e+60
-2.94463e+60
-2.79565e+60
-2.53274e+60
-2.23175e+60
-1.94065e+60
-1.67432e+60
-1.43709e+60
-1.24088e+60
-1.08669e+60
-9.60127e+59
-8.50958e+59
-7.54799e+59
-6.695e+59
-5.94439e+59
-3.54632e+59
-4.14687e+59
-4.02881e+59
-3.72196e+59
-3.33235e+59
-2.9339e+59
-2.55718e+59
-2.21624e+59
-1.93295e+59
-1.70686e+59
-1.51443e+59
-1.34269e+59
-1.18773e+59
-1.04793e+59
-9.22712e+58
-2.10013e+58
-2.69672e+58
-2.73763e+58
-2.61638e+58
-2.40541e+58
-2.15959e+58
-1.91005e+58
-1.68639e+58
-1.50477e+58
-1.35491e+58
-1.2207e+58
-1.09561e+58
-9.78565e+57
-8.69792e+57
-7.69487e+57
2.3446e+57
1.26843e+57
6.74867e+56
3.63298e+56
1.8622e+56
7.89912e+55
1.14836e+55
-3.33679e+55
-6.41421e+55
-8.41448e+55
-9.57075e+55
-1.01158e+56
-1.02206e+56
-1.00232e+56
-9.55059e+55
1.21015e+57
8.37603e+56
5.42761e+56
3.73581e+56
2.70118e+56
2.03148e+56
1.57458e+56
1.25703e+56
1.03384e+56
8.68356e+55
7.3709e+55
6.2807e+55
5.35451e+55
4.55951e+55
3.89016e+55
2.73274e+56
2.07102e+56
1.36632e+56
9.22392e+55
6.40229e+55
4.56992e+55
3.36014e+55
2.5601e+55
2.01283e+55
1.61476e+55
1.30981e+55
1.06906e+55
8.75939e+54
7.19611e+54
5.94247e+54
3.14831e+55
2.72789e+55
1.97984e+55
1.42032e+55
1.02528e+55
7.52914e+54
5.66313e+54
4.38866e+54
3.48152e+54
2.7934e+54
2.25105e+54
1.81719e+54
1.46817e+54
1.187e+54
9.61795e+53
1.4241e+54
1.3505e+54
1.11319e+54
8.82194e+53
6.87636e+53
5.37946e+53
4.28503e+53
3.49522e+53
2.88718e+53
2.39046e+53
1.97596e+53
1.6293e+53
1.34001e+53
1.09978e+53
9.01396e+52
1.41715e+52
-1.66064e+52
-2.30311e+52
-1.84147e+52
-1.28682e+52
-8.5827e+51
-5.60933e+51
-3.58067e+51
-2.18209e+51
-1.21987e+51
-5.68597e+50
-1.3988e+50
1.30397e+50
2.91485e+50
3.70755e+50
-1.54819e+52
-7.12259e+51
-4.93697e+51
-3.77483e+51
-2.98029e+51
-2.39027e+51
-1.96176e+51
-1.64148e+51
-1.3828e+51
-1.16315e+51
-9.73725e+50
-8.10424e+50
-6.70669e+50
-5.52071e+50
-4.53935e+50
-1.01464e+52
-5.12923e+51
-2.41329e+51
-1.24133e+51
-6.92031e+50
-4.13348e+50
-2.63648e+50
-1.79282e+50
-1.28672e+50
-9.59614e+49
-7.34413e+49
-5.72303e+49
-4.51801e+49
-3.59832e+49
-2.91139e+49
-1.94215e+51
-1.221e+51
-6.7012e+50
-3.90381e+50
-2.40395e+50
-1.56369e+50
-1.06921e+50
-7.58739e+49
-5.5052e+49
-4.04351e+49
-2.99295e+49
-2.22855e+49
-1.66778e+49
-1.25434e+49
-9.50925e+48
-1.34296e+50
-9.99803e+49
-6.28447e+49
-4.07476e+49
-2.75097e+49
-1.94588e+49
-1.4307e+49
-1.0754e+49
-8.16961e+48
-6.23243e+48
-4.7602e+48
-3.63753e+48
-2.78069e+48
-2.12822e+48
-1.63252e+48
-4.14034e+47
-2.02551e+47
-3.17406e+47
-3.69576e+47
-3.6399e+47
-3.34843e+47
-2.97647e+47
-2.58057e+47
-2.18761e+47
-1.81903e+47
-1.48983e+47
-1.2052e+47
-9.64477e+46
-7.66058e+46
-6.04476e+46
6.26152e+47
4.41298e+47
2.97226e+47
1.95197e+47
1.32366e+47
9.33072e+46
6.80375e+46
5.08384e+46
3.84558e+46
2.9185e+46
2.213e+46
1.67395e+46
1.26301e+46
9.51453e+45
7.20037e+45
2.85034e+47
1.26579e+47
5.7823e+46
2.97928e+46
1.71623e+46
1.081e+46
7.32881e+45
5.2583e+45
3.90741e+45
2.95366e+45
2.24793e+45
1.71434e+45
1.30788e+45
9.98014e+44
7.67763e+44
6.70895e+46
3.3974e+46
1.5647e+46
8.0392e+45
4.52186e+45
2.7352e+45
1.75561e+45
1.1782e+45
8.12967e+44
5.69765e+44
4.03109e+44
2.87242e+44
2.06051e+44
1.48891e+44
1.09094e+44
5.315e+45
3.40896e+45
1.8293e+45
1.06705e+45
6.65707e+44
4.37918e+44
2.99779e+44
2.10712e+44
1.49985e+44
1.07227e+44
7.67664e+43
5.50319e+43
3.95567e+43
2.85905e+43
2.08876e+43
-3.31009e+44
-1.12929e+44
-2.85459e+43
-7.28194e+41
7.64312e+42
9.3624e+42
8.79746e+42
7.52253e+42
6.11848e+42
4.81992e+42
3.71504e+42
2.82237e+42
2.12727e+42
1.60341e+42
1.21381e+42
-1.08371e+44
-5.5613e+43
-2.67488e+43
-1.40996e+43
-8.09568e+42
-4.97623e+42
-3.22224e+42
-2.16453e+42
-1.48552e+42
-1.03047e+42
-7.18933e+41
-5.03955e+41
-3.55222e+41
-2.52312e+41
-1.81839e+41
-1.49064e+43
-7.16722e+42
-3.27992e+42
-1.69332e+42
-9.68991e+41
-6.0048e+41
-3.95021e+41
-2.70731e+41
-1.89952e+41
-1.34834e+41
-9.63127e+40
-6.91339e+40
-4.99062e+40
-3.63299e+40
-2.68184e+40
-1.69334e+42
-8.41123e+41
-3.74186e+41
-1.86457e+41
-1.02026e+41
-6.01483e+40
-3.75737e+40
-2.44566e+40
-1.63297e+40
-1.10718e+40
-7.58746e+39
-5.24806e+39
-3.66459e+39
-2.58782e+39
-1.85733e+39
-1.10648e+41
-6.33072e+40
-3.14807e+40
-1.70546e+40
-9.96981e+39
-6.18638e+39
-4.01416e+39
-2.68341e+39
-1.82333e+39
-1.24964e+39
-8.61534e+38
-5.97336e+38
-4.17086e+38
-2.94055e+38
-2.09908e+38
-5.15943e+39
-2.1073e+39
-9.59862e+38
-5.09643e+38
-3.07772e+38
-2.01551e+38
-1.3896e+38
-9.86401e+37
-7.08782e+37
-5.11115e+37
-3.68994e+37
-2.66868e+37
-1.93837e+37
-1.41822e+37
-1.04636e+37
-8.37708e+38
-3.00247e+38
-8.76171e+37
-2.79607e+37
-8.67221e+36
-1.94312e+36
4.09521e+35
1.1395e+36
1.2457e+36
1.12225e+36
9.32972e+35
7.4527e+35
5.83517e+35
4.51817e+35
3.47097e+35
1.12523e+37
-1.06102e+37
-7.38048e+36
-4.93289e+36
-3.17715e+36
-2.04737e+36
-1.33155e+36
-8.70353e+35
-5.68661e+35
-3.71545e+35
-2.435e+35
-1.60329e+35
-1.0614e+35
-7.07869e+34
-4.71491e+34
2.54924e+37
1.05575e+37
3.94928e+36
1.66295e+36
7.71966e+35
3.89342e+35
2.10532e+35
1.20299e+35
7.16084e+34
4.38978e+34
2.74823e+34
1.74546e+34
1.12018e+34
7.26014e+33
4.85075e+33
2.65861e+36
1.40878e+36
6.41566e+35
3.20294e+35
1.7471e+35
1.02797e+35
6.40967e+34
4.15808e+34
2.76609e+34
1.87286e+34
1.28454e+34
8.89218e+33
6.20838e+33
4.37442e+33
3.11435e+33
2.34468e+35
9.22091e+34
3.8591e+34
1.7982e+34
9.6256e+33
5.73266e+33
3.67439e+33
2.46572e+33
1.69922e+33
1.1909e+33
8.44473e+32
6.03616e+32
4.34296e+32
3.14407e+32
2.29094e+32
5.6459e+34
1.86626e+34
5.83814e+33
2.1675e+33
9.4716e+32
4.68449e+32
2.54189e+32
1.47495e+32