/*--------------------------------*- C++ -*----------------------------------*\
  =========                 |
  \\      /  F ield         | OpenFOAM: The Open Source CFD Toolbox
   \\    /   O peration     | Website:  https://openfoam.org
    \\  /    A nd           | Version:  8
     \\/     M anipulation  |
\*---------------------------------------------------------------------------*/
FoamFile
{
    version     2.0;
    format      ascii;
    class       volScalarField;
    location    "400";
    object      epsilon;
}
// * * * * * * * * * * * * * * * * * * * * * * * * * * * * * * * * * * * * * //

dimensions      [0 2 -3 0 0 0 0];

internalField   nonuniform List<scalar> 
7320
(
11607.3
10157.6
9314.41
8772.19
8390.18
8102.78
7875.91
7690.68
7535.75
7403.74
7289.54
7189.51
7100.93
7021.74
6950.49
6886.3
6828.75
6777.74
6733.25
6695.2
6663.19
6636.57
6614.52
6596.19
6580.71
6567.41
6555.68
6545.22
6535.73
6527.04
6519.04
6511.72
6505.05
6499.01
6493.56
6488.8
6484.68
6481.21
6478.34
6476.15
6474.58
6473.64
6473.27
6473.55
6474.41
6475.85
6477.82
6480.36
6483.43
6487.02
6491.06
6495.63
6500.67
6506.17
6512.08
6518.44
6525.21
6532.39
6539.91
6547.84
6556.12
6564.75
6573.68
6582.94
6592.51
6602.35
6612.42
6622.78
6633.36
6644.16
6655.13
6666.3
6677.62
6689.08
6700.6
6712.25
6723.97
6735.73
6747.47
6759.23
6770.94
6782.59
6794.1
6805.52
6816.79
6827.88
6838.75
6849.41
6859.82
6869.96
6879.77
6889.31
6898.53
6907.42
6915.95
6924.16
6932.02
6939.54
6946.67
6953.48
6959.96
6966.1
6971.9
6977.4
6982.59
6987.48
6992.06
6996.38
7000.44
7004.26
7007.81
7011.16
7014.28
7017.21
7019.93
7022.47
7024.85
7027.06
7029.12
7031.04
7032.74
7034.51
3749.32
3919.36
3598.68
3368.85
3210.18
3093.19
3002.1
2928.42
2867.18
2815.24
2770.47
2731.37
2696.85
2666.11
2638.58
2613.93
2591.99
2572.67
2555.91
2541.6
2529.52
2519.4
2510.9
2503.72
2497.56
2492.19
2487.42
2483.14
2479.26
2475.74
2472.52
2469.61
2466.99
2464.64
2462.57
2460.78
2459.26
2458.01
2457.01
2456.28
2455.81
2455.58
2455.58
2455.82
2456.29
2456.99
2457.89
2459.01
2460.32
2461.83
2463.53
2465.41
2467.47
2469.69
2472.08
2474.63
2477.34
2480.19
2483.18
2486.31
2489.56
2492.95
2496.44
2500.06
2503.78
2507.6
2511.5
2515.5
2519.58
2523.73
2527.94
2532.21
2536.53
2540.89
2545.28
2549.7
2554.13
2558.56
2562.99
2567.41
2571.8
2576.16
2580.47
2584.73
2588.92
2593.05
2597.09
2601.04
2604.89
2608.64
2612.28
2615.8
2619.2
2622.48
2625.63
2628.65
2631.55
2634.31
2636.94
2639.45
2641.83
2644.09
2646.23
2648.25
2650.15
2651.95
2653.64
2655.23
2656.72
2658.12
2659.44
2660.66
2661.81
2662.89
2663.89
2664.83
2665.7
2666.52
2667.27
2667.98
2668.61
2669.26
1528.99
1989.05
1884.97
1770.23
1685.88
1623.04
1574.14
1534.67
1501.95
1474.25
1450.42
1429.65
1411.34
1395.08
1380.55
1367.58
1356.04
1345.84
1336.94
1329.24
1322.63
1316.98
1312.14
1307.97
1304.35
1301.17
1298.34
1295.81
1293.53
1291.48
1289.63
1287.97
1286.48
1285.17
1284.02
1283.03
1282.19
1281.51
1280.96
1280.56
1280.29
1280.15
1280.14
1280.25
1280.48
1280.83
1281.28
1281.85
1282.51
1283.28
1284.14
1285.1
1286.14
1287.27
1288.49
1289.78
1291.15
1292.59
1294.11
1295.69
1297.34
1299.05
1300.82
1302.64
1304.52
1306.45
1308.42
1310.43
1312.49
1314.57
1316.69
1318.84
1321.01
1323.2
1325.41
1327.62
1329.85
1332.07
1334.3
1336.52
1338.72
1340.92
1343.09
1345.24
1347.36
1349.44
1351.49
1353.5
1355.46
1357.37
1359.23
1361.03
1362.78
1364.47
1366.09
1367.65
1369.15
1370.59
1371.96
1373.26
1374.51
1375.69
1376.81
1377.87
1378.88
1379.82
1380.72
1381.56
1382.35
1383.09
1383.79
1384.44
1385.05
1385.62
1386.16
1386.66
1387.12
1387.56
1387.96
1388.34
1388.69
1389.03
720.94
1168.15
1165.72
1105.65
1054.38
1014.75
983.609
958.428
937.556
919.909
904.749
891.554
879.949
869.66
860.485
852.285
844.959
838.434
832.65
827.55
823.073
819.153
815.724
812.719
810.077
807.743
805.672
803.827
802.178
800.703
799.384
798.208
797.164
796.242
795.436
794.739
794.147
793.653
793.255
792.947
792.725
792.586
792.529
792.546
792.636
792.797
793.028
793.323
793.681
794.099
794.578
795.111
795.697
796.335
797.025
797.761
798.542
799.367
800.238
801.146
802.092
803.075
804.094
805.145
806.226
807.336
808.476
809.638
810.823
812.029
813.255
814.497
815.754
817.023
818.305
819.593
820.887
822.185
823.487
824.787
826.084
827.375
828.662
829.936
831.197
832.442
833.672
834.881
836.066
837.226
838.363
839.467
840.541
841.581
842.59
843.562
844.498
845.397
846.262
847.087
847.874
848.625
849.34
850.018
850.661
851.269
851.846
852.388
852.899
853.38
853.834
854.258
854.657
855.03
855.381
855.708
856.014
856.3
856.567
856.816
857.044
857.267
358.82
725.629
779.829
754.392
722.983
696.536
675.147
657.664
643.11
630.786
620.198
610.987
602.894
595.723
589.323
583.579
578.4
573.721
569.494
565.682
562.258
559.199
556.478
554.066
551.93
550.039
548.364
546.875
545.549
544.367
543.313
542.373
541.537
540.797
540.146
539.576
539.082
538.661
538.309
538.021
537.792
537.622
537.509
537.447
537.435
537.471
537.555
537.682
537.851
538.061
538.313
538.6
538.921
539.278
539.669
540.09
540.541
541.021
541.532
542.066
542.626
543.209
543.818
544.446
545.095
545.763
546.453
547.156
547.876
548.609
549.359
550.119
550.891
551.673
552.467
553.267
554.074
554.886
555.706
556.528
557.353
558.179
559.008
559.832
560.653
561.47
562.282
563.083
563.875
564.655
565.424
566.175
566.91
567.625
568.323
568.999
569.653
570.284
570.894
571.478
572.038
572.573
573.086
573.573
574.036
574.475
574.894
575.288
575.661
576.012
576.344
576.655
576.948
577.223
577.481
577.723
577.949
578.161
578.359
578.544
578.714
578.878
180.951
454.606
539.366
539.228
522.29
504.945
489.986
477.423
466.83
457.803
450.02
443.241
437.278
431.986
427.245
422.955
419.035
415.429
412.103
409.042
406.241
403.702
401.421
399.386
397.58
395.98
394.563
393.304
392.183
391.181
390.286
389.483
388.764
388.119
387.546
387.035
386.583
386.186
385.842
385.545
385.292
385.082
384.916
384.787
384.694
384.637
384.615
384.624
384.663
384.731
384.831
384.955
385.104
385.278
385.477
385.697
385.938
386.2
386.485
386.787
387.106
387.442
387.797
388.167
388.551
388.95
389.365
389.792
390.23
390.68
391.144
391.617
392.1
392.593
393.098
393.611
394.132
394.66
395.199
395.743
396.293
396.849
397.413
397.979
398.547
399.117
399.688
400.257
400.824
401.385
401.944
402.494
403.035
403.565
404.085
404.592
405.084
405.562
406.026
406.473
406.902
407.314
407.711
408.089
408.449
408.792
409.119
409.429
409.722
409.998
410.261
410.507
410.739
410.957
411.163
411.355
411.536
411.705
411.863
412.011
412.148
412.278
91.0619
278.178
374.323
393.388
388.303
378.208
368.136
359.168
351.388
344.655
338.799
333.669
329.139
325.101
321.456
318.118
315.017
312.109
309.375
306.815
304.443
302.274
300.318
298.571
297.02
295.647
294.432
293.35
292.382
291.512
290.729
290.019
289.376
288.791
288.263
287.783
287.349
286.957
286.606
286.292
286.012
285.765
285.552
285.368
285.212
285.083
284.981
284.904
284.849
284.817
284.809
284.819
284.849
284.897
284.966
285.05
285.15
285.266
285.4
285.547
285.708
285.882
286.072
286.272
286.485
286.71
286.949
287.197
287.456
287.726
288.008
288.3
288.601
288.913
289.238
289.571
289.914
290.266
290.63
291.003
291.384
291.774
292.174
292.58
292.993
293.41
293.834
294.259
294.686
295.113
295.542
295.967
296.387
296.802
297.212
297.613
298.004
298.386
298.759
299.12
299.467
299.802
300.125
300.434
300.729
301.011
301.28
301.536
301.778
302.008
302.225
302.43
302.623
302.805
302.977
303.138
303.289
303.43
303.563
303.687
303.803
303.911
46.0969
162.19
254.263
286.986
292.084
288.345
282.429
276.4
270.843
265.873
261.468
257.562
254.081
250.95
248.091
245.433
242.917
240.511
238.209
236.026
233.988
232.118
230.433
228.931
227.603
226.428
225.387
224.457
223.62
222.861
222.17
221.535
220.951
220.412
219.915
219.456
219.032
218.641
218.282
217.952
217.649
217.371
217.121
216.894
216.69
216.507
216.347
216.205
216.083
215.978
215.893
215.824
215.77
215.73
215.707
215.698
215.701
215.718
215.749
215.792
215.846
215.911
215.989
216.078
216.177
216.286
216.409
216.541
216.683
216.835
216.999
217.174
217.358
217.553
217.761
217.98
218.209
218.448
218.701
218.963
219.236
219.52
219.815
220.119
220.431
220.75
221.078
221.41
221.746
222.086
222.429
222.771
223.112
223.45
223.786
224.116
224.441
224.758
225.069
225.371
225.663
225.945
226.218
226.479
226.73
226.969
227.199
227.418
227.625
227.821
228.008
228.184
228.35
228.507
228.655
228.794
228.924
229.046
229.161
229.269
229.369
229.463
24.1391
88.649
164.987
205.254
218.889
220.978
218.887
215.493
211.864
208.38
205.165
202.243
199.591
197.168
194.918
192.785
190.723
188.712
186.759
184.889
183.135
181.527
180.084
178.805
177.678
176.686
175.806
175.017
174.3
173.643
173.036
172.47
171.94
171.442
170.976
170.537
170.125
169.737
169.374
169.033
168.714
168.415
168.139
167.881
167.643
167.422
167.219
167.033
166.862
166.707
166.568
166.443
166.33
166.231
166.145
166.071
166.008
165.957
165.919
165.891
165.873
165.866
165.87
165.884
165.907
165.941
165.987
166.043
166.108
166.184
166.271
166.369
166.477
166.597
166.73
166.873
167.028
167.195
167.374
167.565
167.767
167.981
168.207
168.442
168.687
168.941
169.203
169.472
169.746
170.025
170.308
170.593
170.878
171.162
171.446
171.726
172.002
172.273
172.539
172.798
173.05
173.293
173.529
173.756
173.974
174.182
174.383
174.573
174.755
174.926
175.09
175.244
175.39
175.528
175.658
175.78
175.895
176.003
176.104
176.199
176.288
176.37
13.5085
45.5627
99.8151
140.77
160.689
168.049
169.614
168.742
166.919
164.791
162.636
160.568
158.623
156.795
155.053
153.357
151.677
150.005
148.355
146.762
145.265
143.897
142.676
141.603
140.665
139.843
139.116
138.46
137.859
137.301
136.776
136.279
135.804
135.35
134.917
134.503
134.107
133.729
133.369
133.026
132.7
132.39
132.098
131.822
131.561
131.316
131.086
130.87
130.668
130.479
130.304
130.141
129.99
129.851
129.723
129.606
129.5
129.404
129.32
129.246
129.181
129.126
129.082
129.047
129.022
129.006
129.003
129.009
129.025
129.051
129.089
129.137
129.197
129.267
129.351
129.446
129.552
129.671
129.802
129.945
130.099
130.265
130.444
130.632
130.83
131.038
131.254
131.477
131.707
131.941
132.181
132.423
132.667
132.911
133.155
133.397
133.636
133.871
134.103
134.329
134.549
134.763
134.97
135.17
135.362
135.546
135.723
135.891
136.052
136.204
136.35
136.487
136.617
136.739
136.855
136.964
137.067
137.163
137.253
137.338
137.417
137.491
8.23301
22.8778
55.2875
90.2293
113.18
124.852
129.857
131.465
131.427
130.62
129.476
128.206
126.908
125.617
124.33
123.026
121.692
120.329
118.96
117.626
116.368
115.223
114.209
113.327
112.566
111.904
111.321
110.794
110.306
109.846
109.405
108.978
108.563
108.158
107.764
107.38
107.008
106.647
106.299
105.963
105.64
105.329
105.032
104.748
104.477
104.219
103.974
103.741
103.521
103.312
103.115
102.93
102.755
102.591
102.438
102.294
102.161
102.037
101.924
101.821
101.727
101.642
101.567
101.502
101.447
101.401
101.366
101.341
101.325
101.321
101.327
101.344
101.372
101.411
101.462
101.525
101.6
101.686
101.784
101.894
102.016
102.148
102.293
102.447
102.612
102.785
102.966
103.156
103.351
103.551
103.757
103.966
104.177
104.389
104.601
104.812
105.022
105.228
105.432
105.631
105.825
106.014
106.198
106.375
106.545
106.709
106.867
107.017
107.16
107.297
107.427
107.55
107.666
107.776
107.88
107.978
108.07
108.157
108.238
108.314
108.386
108.452
5.47939
11.9933
28.2314
52.6658
74.4963
88.7649
96.7057
100.691
102.441
102.971
102.843
102.365
101.701
100.928
100.076
99.1477
98.1447
97.0795
95.9829
94.8977
93.8693
92.9344
92.1137
91.4099
90.8118
90.2998
89.8524
89.4486
89.0714
88.709
88.3541
88.002
87.651
87.3008
86.9529
86.608
86.2673
85.9321
85.6042
85.2841
84.9725
84.6701
84.3783
84.0966
83.8254
83.5648
83.3154
83.0766
82.8483
82.6305
82.4238
82.2271
82.0403
81.8631
81.696
81.5383
81.3899
81.2508
81.1217
81.0018
80.8909
80.7892
80.697
80.6141
80.5406
80.4766
80.4229
80.379
80.345
80.321
80.3078
80.3051
80.313
80.3317
80.3622
80.4038
80.4565
80.5204
80.5958
80.6822
80.7796
80.8875
81.0065
81.1351
81.273
81.4193
81.5738
81.7353
81.903
82.076
82.2539
82.4352
82.6187
82.8036
82.9893
83.1745
83.3585
83.5404
83.7201
83.8964
84.0685
84.2361
84.3991
84.5567
84.7088
84.855
84.9957
85.1304
85.2589
85.3813
85.4978
85.6084
85.7131
85.8121
85.9058
85.9941
86.0772
86.1554
86.2288
86.2977
86.3624
86.4223
3.95842
6.92871
14.045
27.7134
44.4811
58.742
68.5364
74.5565
78.024
79.9026
80.8204
81.1594
81.1439
80.8987
80.4867
79.937
79.2678
78.5026
77.678
76.8397
76.0347
75.3013
74.6625
74.1238
73.6766
73.3034
72.9837
72.6974
72.4279
72.1633
71.8963
71.6227
71.3411
71.052
70.7571
70.4582
70.1571
69.8558
69.5566
69.2608
68.9696
68.6842
68.4062
68.1355
67.8729
67.6186
67.3736
67.1375
66.9105
66.6927
66.4846
66.2856
66.0956
65.9145
65.7426
65.5795
65.4252
65.2797
65.1434
65.0159
64.8972
64.7871
64.6863
64.5944
64.5115
64.4378
64.3739
64.3195
64.2746
64.2394
64.2143
64.1993
64.1945
64.1999
64.2163
64.2431
64.2804
64.3282
64.3866
64.4553
64.5341
64.6228
64.7215
64.8293
64.9456
65.0698
65.2015
65.3399
65.4842
65.6335
65.7874
65.9448
66.1046
66.266
66.4284
66.5908
66.7524
66.9126
67.0711
67.2268
67.3793
67.528
67.6727
67.813
67.9486
68.0791
68.2049
68.3254
68.4406
68.5505
68.6552
68.7546
68.8489
68.9382
69.0227
69.1024
69.1775
69.2482
69.3147
69.3771
69.4356
69.49
3.07724
4.4827
7.4298
13.663
23.6771
35.0266
44.8504
52.0838
56.9698
60.1198
62.0865
63.2698
63.9337
64.2425
64.2926
64.1388
63.8177
63.3639
62.8193
62.232
61.65
61.1136
60.6486
60.2646
59.9572
59.7123
59.5117
59.3367
59.1713
59.0036
58.826
58.6343
58.4271
58.2049
57.97
57.7243
57.4705
57.211
56.9485
56.6849
56.4221
56.1615
55.9049
55.6531
55.4066
55.1663
54.933
54.707
54.4885
54.2778
54.0754
53.881
53.6947
53.5165
53.3465
53.1847
53.031
52.8854
52.7484
52.6197
52.4993
52.3871
52.2835
52.1885
52.102
52.0242
51.9555
51.8959
51.8453
51.8038
51.7718
51.7492
51.7361
51.7326
51.7391
51.7553
51.7811
51.8166
51.8617
51.9162
51.98
52.0528
52.1345
52.2246
52.3224
52.4275
52.5395
52.6576
52.7812
52.9095
53.0422
53.1782
53.3167
53.4569
53.5984
53.7402
53.8816
54.0221
54.1613
54.2984
54.4329
54.5644
54.6925
54.817
54.9374
55.0537
55.1658
55.2734
55.3764
55.4748
55.5687
55.658
55.7428
55.8232
55.8993
55.9712
56.0391
56.103
56.1631
56.2196
56.2726
56.3219
2.55069
3.2178
4.43836
6.94268
11.6107
18.4653
26.1715
33.1854
38.7624
42.8713
45.7772
47.7842
49.1423
50.0314
50.5711
50.8387
50.8877
50.7637
50.5136
50.1872
49.8338
49.4951
49.2007
48.965
48.789
48.6636
48.574
48.504
48.4386
48.366
48.2785
48.1713
48.0427
47.8931
47.7244
47.5391
47.3399
47.1297
46.9114
46.6875
46.4603
46.2317
46.0037
45.7774
45.554
45.3342
45.1191
44.9093
44.7053
44.5075
44.3165
44.1323
43.955
43.7848
43.6219
43.4662
43.3179
43.1771
43.044
42.9185
42.8006
42.6905
42.5883
42.494
42.4076
42.3294
42.2596
42.1981
42.1451
42.1005
42.0645
42.0373
42.0187
42.0089
42.0082
42.0162
42.033
42.0585
42.0927
42.1354
42.1864
42.2454
42.3124
42.3869
42.4684
42.5565
42.6508
42.7507
42.8556
42.965
43.0783
43.1949
43.3139
43.4348
43.5571
43.6799
43.8028
43.9251
44.0465
44.1664
44.2843
44.3998
44.5126
44.6223
44.7288
44.8317
44.9311
45.0267
45.1185
45.2062
45.2901
45.37
45.4459
45.518
45.5864
45.651
45.7121
45.7697
45.824
45.875
45.9229
45.9676
2.23299
2.52131
3.02006
3.97837
5.81146
8.95357
13.425
18.6072
23.6556
28.0096
31.4926
34.161
36.1537
37.6128
38.6537
39.3623
39.8028
40.0288
40.091
40.0405
39.9265
39.7925
39.6713
39.5827
39.534
39.5221
39.5371
39.5663
39.5965
39.6167
39.6189
39.5979
39.5513
39.4791
39.3825
39.2641
39.1264
38.9727
38.806
38.6291
38.4447
38.2549
38.0621
37.8678
37.6734
37.4802
37.2891
37.101
36.9167
36.7368
36.562
36.3925
36.2286
36.0706
35.9187
35.7731
35.6339
35.5012
35.3754
35.2563
35.1441
35.039
34.9409
34.85
34.7664
34.6902
34.6215
34.5605
34.507
34.4613
34.4234
34.3933
34.3711
34.3567
34.3504
34.352
34.3614
34.3785
34.4034
34.4357
34.4755
34.5223
34.5763
34.6368
34.7037
34.7764
34.8547
34.938
35.0259
35.1179
35.2136
35.3123
35.4134
35.5165
35.621
35.7262
35.8318
35.9373
36.0422
36.146
36.2484
36.3489
36.4473
36.5433
36.6366
36.727
36.8145
36.8988
36.9798
37.0575
37.1319
37.2029
37.2705
37.3347
37.3957
37.4536
37.5082
37.5599
37.6086
37.6544
37.6975
37.7378
2.04416
2.12289
2.29753
2.64298
3.30172
4.48782
6.42627
9.18556
12.5451
16.0855
19.4158
22.3105
24.7019
26.6139
28.105
29.2385
30.072
30.6579
31.046
31.2856
31.4248
31.5068
31.5671
31.6303
31.71
31.8097
31.9257
32.0496
32.1714
32.2815
32.3722
32.4379
32.4757
32.4846
32.4653
32.4197
32.3503
32.2601
32.1521
32.0294
31.8947
31.7506
31.5996
31.4436
31.2843
31.1232
30.9617
30.8006
30.641
30.4836
30.3294
30.1787
30.0321
29.8899
29.7525
29.6201
29.493
29.3713
29.2554
29.1454
29.0412
28.9432
28.8514
28.766
28.6869
28.6144
28.5486
28.4895
28.4372
28.3918
28.3532
28.3216
28.297
28.2793
28.2687
28.265
28.2682
28.2783
28.295
28.3184
28.3482
28.3842
28.4265
28.4745
28.5281
28.5869
28.6507
28.7189
28.7913
28.8674
28.9468
29.0291
29.1138
29.2004
29.2884
29.3774
29.4669
29.5566
29.646
29.7348
29.8226
29.9091
29.9939
30.0769
30.1577
30.2362
30.3124
30.3859
30.4567
30.5248
30.5901
30.6525
30.7121
30.7688
30.8228
30.874
30.9225
30.9683
31.0117
31.0525
31.091
31.127
1.93662
1.89378
1.9091
1.99888
2.20584
2.60139
3.28866
4.38492
5.96613
7.99852
10.3239
12.7231
15.0025
17.0409
18.7865
20.2334
21.4001
22.3169
23.0204
23.5509
23.9501
24.2581
24.5101
24.7335
24.9472
25.161
25.3775
25.5937
25.8039
26.0007
26.1777
26.3295
26.4525
26.5451
26.607
26.6394
26.6443
26.6241
26.5819
26.5205
26.4427
26.3514
26.249
26.1378
26.0199
25.8969
25.7704
25.6417
25.5118
25.3818
25.2525
25.1248
24.9993
24.8765
24.7568
24.6408
24.5286
24.4206
24.3171
24.2183
24.1243
24.0354
23.9518
23.8734
23.8006
23.7333
23.6717
23.6159
23.566
23.5221
23.4841
23.4521
23.4261
23.4062
23.3924
23.3846
23.3827
23.3868
23.3966
23.4122
23.4333
23.4599
23.4918
23.5287
23.5705
23.6168
23.6675
23.7221
23.7804
23.8421
23.9068
23.9741
24.0436
24.115
24.1879
24.2618
24.3364
24.4114
24.4864
24.5611
24.6352
24.7083
24.7803
24.8509
24.9198
24.987
25.0522
25.1154
25.1764
25.2352
25.2916
25.3457
25.3975
25.4468
25.4939
25.5386
25.581
25.6212
25.6593
25.6952
25.7291
25.7609
1.87971
1.76618
1.6969
1.6702
1.696
1.79457
1.99812
2.3527
2.91542
3.74039
4.85304
6.22682
7.78142
9.4066
10.9954
12.4672
13.7745
14.8985
15.8411
16.6187
17.2559
17.782
18.2261
18.6142
18.967
19.2986
19.6171
19.925
20.2209
20.5011
20.7611
20.9964
21.2035
21.3801
21.5253
21.6392
21.7231
21.7789
21.8088
21.8156
21.802
21.7706
21.724
21.6647
21.5947
21.5162
21.4308
21.3401
21.2454
21.148
21.0487
20.9485
20.8483
20.7487
20.6505
20.554
20.4599
20.3684
20.28
20.1948
20.1133
20.0357
19.962
19.8926
19.8276
19.7671
19.7113
19.6603
19.6141
19.5729
19.5367
19.5055
19.4794
19.4585
19.4426
19.4319
19.4262
19.4255
19.4297
19.4388
19.4526
19.4711
19.494
19.5213
19.5528
19.5881
19.6272
19.6698
19.7156
19.7643
19.8157
19.8695
19.9254
19.9829
20.0419
20.102
20.1629
20.2243
20.2859
20.3474
20.4086
20.4692
20.529
20.5878
20.6454
20.7017
20.7564
20.8096
20.861
20.9107
20.9585
21.0044
21.0484
21.0905
21.1306
21.1689
21.2052
21.2397
21.2724
21.3034
21.3326
21.3601
1.85262
1.70013
1.58443
1.50014
1.44691
1.42875
1.45384
1.53515
1.69139
1.94732
2.33155
2.87028
3.5774
4.44509
5.44062
6.51205
7.60052
8.65296
9.63072
10.5123
11.2919
11.9752
12.5753
13.1083
13.5901
14.0345
14.4515
14.8472
15.2241
15.5821
15.9191
16.2324
16.519
16.7767
17.0039
17.1999
17.3651
17.5004
17.6075
17.6884
17.7453
17.7808
17.7972
17.7969
17.7822
17.7551
17.7175
17.6713
17.6178
17.5586
17.4948
17.4276
17.3577
17.286
17.2135
17.1406
17.0682
16.9966
16.9264
16.8579
16.7916
16.7276
16.6664
16.6081
16.553
16.5013
16.453
16.4085
16.3677
16.3308
16.2979
16.2691
16.2444
16.2238
16.2074
16.1951
16.187
16.1831
16.1832
16.1873
16.1953
16.2072
16.2229
16.2422
16.2649
16.291
16.3202
16.3524
16.3873
16.4247
16.4645
16.5063
16.55
16.5952
16.6417
16.6893
16.7377
16.7866
16.8359
16.8852
16.9344
16.9833
17.0316
17.0792
17.126
17.1717
17.2164
17.2598
17.3019
17.3426
17.3819
17.4197
17.456
17.4908
17.524
17.5558
17.586
17.6147
17.6419
17.6677
17.6922
17.7153
1.84139
1.6697
1.52946
1.4157
1.32537
1.25753
1.21298
1.19429
1.20591
1.25455
1.34953
1.50279
1.72811
2.03897
2.44504
2.94825
3.53994
4.20096
4.90479
5.6228
6.32963
7.00682
7.64411
8.23852
8.79229
9.3104
9.79853
10.2615
10.7026
11.1234
11.5237
11.9022
12.2571
12.5863
12.888
13.161
13.4045
13.6187
13.8041
13.9619
14.0937
14.2014
14.2869
14.3522
14.3996
14.431
14.4484
14.4535
14.448
14.4335
14.4114
14.3828
14.349
14.3109
14.2693
14.225
14.1789
14.1315
14.0835
14.0354
13.9877
13.9408
13.8951
13.8508
13.8083
13.7678
13.7296
13.6938
13.6606
13.6301
13.6026
13.578
13.5565
13.5382
13.5231
13.5111
13.5025
13.497
13.4948
13.4958
13.4999
13.5071
13.5173
13.5304
13.5464
13.565
13.5862
13.6098
13.6357
13.6637
13.6936
13.7252
13.7583
13.7928
13.8284
13.8649
13.9021
13.9399
13.978
14.0162
14.0544
14.0923
14.13
14.1671
14.2036
14.2394
14.2743
14.3083
14.3414
14.3734
14.4043
14.434
14.4626
14.49
14.5163
14.5413
14.5652
14.588
14.6096
14.6301
14.6495
14.6679
1.83747
1.65774
1.50597
1.37779
1.26982
1.17973
1.10613
1.04851
1.00711
0.982974
0.97803
0.995187
1.03848
1.11308
1.22513
1.38114
1.58705
1.8469
2.16153
2.52779
2.93859
3.38391
3.85246
4.33339
4.81767
5.29871
5.77232
6.23609
6.68871
7.12923
7.55654
7.9691
8.36501
8.74209
9.0982
9.43134
9.73993
10.0229
10.2798
10.5105
10.7156
10.896
11.0528
11.1876
11.3019
11.3973
11.4757
11.5387
11.5879
11.6249
11.651
11.6677
11.6762
11.6775
11.6728
11.663
11.6488
11.631
11.6103
11.5874
11.5628
11.5371
11.5108
11.4843
11.4579
11.4321
11.407
11.383
11.3603
11.3391
11.3196
11.3019
11.2861
11.2725
11.261
11.2517
11.2447
11.2401
11.2378
11.2378
11.2402
11.2449
11.2518
11.261
11.2723
11.2856
11.3009
11.3181
11.337
11.3575
11.3795
11.4029
11.4274
11.4529
11.4793
11.5064
11.534
11.562
11.5902
11.6186
11.6469
11.675
11.7029
11.7303
11.7573
11.7837
11.8094
11.8345
11.8588
11.8823
11.905
11.9268
11.9477
11.9678
11.987
12.0053
12.0228
12.0394
12.0552
12.0701
12.0844
12.0979
1.83635
1.65389
1.49762
1.36332
1.24761
1.14783
1.062
0.988662
0.926849
0.875997
0.835927
0.806834
0.789301
0.784324
0.793349
0.818291
0.861512
0.925748
1.01394
1.12894
1.27323
1.44849
1.65538
1.89332
2.1606
2.45453
2.77174
3.10843
3.46063
3.82431
4.1955
4.57028
4.94482
5.31543
5.6786
6.03106
6.36986
6.69247
6.99684
7.2814
7.54511
7.78746
8.00839
8.20821
8.38759
8.54743
8.6888
8.8129
8.92099
9.01435
9.09429
9.16203
9.2188
9.26574
9.30394
9.33439
9.35801
9.37568
9.38816
9.39615
9.40021
9.40099
9.39911
9.3951
9.38943
9.38252
9.37477
9.36652
9.35808
9.34972
9.34169
9.3342
9.32745
9.3216
9.3168
9.31316
9.31078
9.30974
9.31012
9.31194
9.31524
9.32002
9.3263
9.33403
9.3432
9.35375
9.36563
9.37875
9.39305
9.40843
9.42479
9.44201
9.45999
9.47861
9.49774
9.51726
9.53706
9.55701
9.57702
9.59696
9.61674
9.63628
9.65549
9.67429
9.69263
9.71046
9.72774
9.74443
9.76049
9.77593
9.79072
9.80487
9.81836
9.83121
9.84344
9.85503
9.86603
9.87643
9.88627
9.89557
9.90442
9.91284
1.8361
1.6529
1.49526
1.35888
1.24033
1.13688
1.04634
0.966998
0.8975
0.836802
0.784121
0.738903
0.700792
0.669617
0.645381
0.628263
0.618619
0.616995
0.624134
0.640984
0.668703
0.708633
0.762274
0.831227
0.917123
1.02154
1.14589
1.29133
1.45862
1.64802
1.85918
2.09104
2.34178
2.60887
2.88914
3.17891
3.47425
3.77118
4.06591
4.35498
4.63541
4.90475
5.16109
5.40301
5.62957
5.84024
6.03485
6.21352
6.37662
6.52472
6.65855
6.7789
6.88666
6.98274
7.06804
7.14346
7.20985
7.26807
7.31891
7.36307
7.40129
7.43423
7.46247
7.48651
7.50685
7.52405
7.5386
7.55092
7.5614
7.57038
7.57818
7.58509
7.59137
7.59725
7.60293
7.60859
7.61439
7.62045
7.62689
7.63381
7.64126
7.64932
7.65801
7.66735
7.67735
7.688
7.69928
7.71114
7.72353
7.73641
7.7497
7.76332
7.7772
7.79124
7.80537
7.81948
7.83351
7.84736
7.86097
7.87425
7.88715
7.89962
7.9116
7.92307
7.93399
7.94434
7.95413
7.96334
7.97198
7.98006
7.98759
7.99459
8.00108
8.0071
8.01265
8.01778
8.02251
8.02686
8.03086
8.03456
8.03803
8.04136
1.83605
1.6527
1.49473
1.35782
1.23848
1.13393
1.04192
0.960651
0.888632
0.82467
0.767793
0.717216
0.672311
0.632584
0.597655
0.567245
0.541164
0.519308
0.501654
0.488262
0.479278
0.474938
0.475583
0.481662
0.493744
0.512532
0.538869
0.573738
0.618265
0.673694
0.741352
0.822574
0.918629
1.03059
1.15922
1.30482
1.46714
1.64531
1.83779
2.04246
2.25673
2.47765
2.70218
2.92729
3.1502
3.36846
3.58002
3.78328
3.97705
4.16051
4.33317
4.49479
4.64535
4.78502
4.91407
5.03288
5.14194
5.24176
5.33291
5.41596
5.49153
5.56018
5.62247
5.67895
5.73016
5.77654
5.81856
5.85656
5.89096
5.92221
5.95069
5.97676
6.00073
6.02288
6.04349
6.06278
6.08097
6.09825
6.11478
6.1307
6.14613
6.16117
6.17591
6.19039
6.20467
6.21877
6.23272
6.24649
6.26008
6.27347
6.28661
6.29947
6.31199
6.32411
6.33579
6.34696
6.35758
6.3676
6.37697
6.38566
6.39364
6.4009
6.40743
6.41322
6.41829
6.42266
6.42634
6.42937
6.43179
6.43363
6.43494
6.43576
6.43615
6.43614
6.43578
6.43511
6.43419
6.43305
6.43172
6.43026
6.42877
6.42733
1.83603
1.65264
1.49462
1.3576
1.23811
1.13332
1.04098
0.959246
0.886595
0.821781
0.763771
0.711705
0.664871
0.622674
0.584619
0.550297
0.519368
0.491558
0.466643
0.444451
0.424854
0.407766
0.393142
0.380979
0.371315
0.364236
0.359879
0.358437
0.360176
0.365433
0.374637
0.388311
0.407082
0.431682
0.462941
0.501766
0.549116
0.60595
0.673174
0.751552
0.84164
0.943701
1.05765
1.183
1.31884
1.46392
1.61662
1.77512
1.93745
2.10163
2.26576
2.4281
2.58715
2.74167
2.89068
3.03348
3.16959
3.29873
3.42079
3.53576
3.64377
3.74496
3.83959
3.92791
4.01023
4.08686
4.15812
4.22437
4.28595
4.34317
4.39633
4.44569
4.49155
4.53426
4.57411
4.61138
4.6463
4.67909
4.70996
4.73907
4.76659
4.79266
4.8174
4.8409
4.86324
4.88449
4.9047
4.9239
4.9421
4.95932
4.97554
4.99075
5.00494
5.01808
5.03016
5.04114
5.05102
5.05978
5.06743
5.07395
5.07937
5.0837
5.08698
5.08924
5.09054
5.09092
5.09045
5.08919
5.08721
5.08457
5.08137
5.07765
5.0735
5.06898
5.06416
5.0591
5.05386
5.04849
5.04304
5.03757
5.03219
5.02701
1.83602
1.65261
1.49457
1.35754
1.23801
1.13319
1.0408
0.958995
0.886239
0.821275
0.763051
0.710688
0.663449
0.620708
0.581937
0.546688
0.514576
0.485278
0.458513
0.434046
0.411676
0.391233
0.372577
0.35559
0.340179
0.326273
0.31382
0.30279
0.293173
0.284983
0.278257
0.273063
0.269496
0.267691
0.267821
0.270107
0.27482
0.282289
0.292902
0.307103
0.325398
0.348336
0.376505
0.410501
0.450909
0.498264
0.553015
0.615482
0.685823
0.764003
0.849779
0.942681
1.04204
1.14699
1.25654
1.36957
1.48493
1.60149
1.71813
1.83385
1.94777
2.05914
2.16736
2.27198
2.37267
2.46923
2.56154
2.64958
2.73339
2.81303
2.8886
2.96027
3.02818
3.09244
3.15319
3.21051
3.26457
3.31556
3.36367
3.40905
3.45187
3.49226
3.53035
3.56626
3.60007
3.63187
3.66173
3.68969
3.7158
3.7401
3.76259
3.78331
3.80226
3.81946
3.83492
3.84867
3.86073
3.87113
3.87991
3.88712
3.89282
3.89707
3.89994
3.90151
3.90187
3.9011
3.89931
3.89658
3.89301
3.8887
3.88374
3.87821
3.87222
3.86584
3.85915
3.85222
3.84513
3.83793
3.83069
3.82345
3.81633
3.80946
1.83602
1.65258
1.49453
1.35749
1.23795
1.13313
1.04073
0.958918
0.886153
0.821175
0.76293
0.710534
0.663244
0.620428
0.581551
0.546152
0.513838
0.48427
0.457156
0.432242
0.409307
0.388161
0.368636
0.350588
0.333891
0.318436
0.304126
0.290882
0.278634
0.267323
0.256903
0.247336
0.238596
0.230667
0.223544
0.217235
0.21176
0.207152
0.203461
0.200757
0.199127
0.198681
0.199556
0.201914
0.205948
0.21188
0.219966
0.230488
0.243755
0.260097
0.279856
0.303373
0.330976
0.362964
0.399593
0.441051
0.48745
0.538808
0.595046
0.655972
0.721294
0.790618
0.863469
0.939296
1.0175
1.09747
1.17856
1.26016
1.3417
1.42263
1.5025
1.58089
1.65749
1.732
1.80423
1.87405
1.94137
2.00608
2.06814
2.12744
2.184
2.23785
2.28904
2.33759
2.38355
2.42694
2.46779
2.50612
2.54197
2.57536
2.60632
2.63489
2.66111
2.68502
2.70667
2.72614
2.74348
2.75878
2.77212
2.78358
2.79327
2.80129
2.80773
2.81271
2.81633
2.81871
2.81995
2.82015
2.81942
2.81787
2.81559
2.81266
2.80919
2.80525
2.80092
2.79627
2.79137
2.78627
2.78104
2.77572
2.77041
2.7652
1.83601
1.65256
1.4945
1.35744
1.2379
1.13307
1.04068
0.958862
0.886097
0.821119
0.762875
0.710479
0.663188
0.620369
0.581485
0.546075
0.513744
0.484149
0.456995
0.432026
0.409016
0.38777
0.368116
0.349902
0.332996
0.31728
0.302649
0.289011
0.276284
0.264395
0.25328
0.24288
0.233146
0.224034
0.215504
0.207523
0.200063
0.193101
0.186618
0.180602
0.175044
0.169941
0.165297
0.161122
0.157431
0.154249
0.151606
0.149545
0.148117
0.147385
0.147424
0.148324
0.150188
0.153134
0.157298
0.162829
0.169889
0.178654
0.189307
0.202037
0.217032
0.234474
0.254535
0.277364
0.303084
0.331785
0.363517
0.398283
0.436036
0.476679
0.520064
0.565992
0.61422
0.664463
0.716406
0.769709
0.824017
0.878965
0.93419
0.989384
1.0442
1.09831
1.15138
1.20314
1.25336
1.30187
1.34852
1.3932
1.43583
1.47637
1.51477
1.55104
1.58518
1.61724
1.64723
1.67522
1.70126
1.72541
1.74775
1.76834
1.78725
1.80457
1.82036
1.83471
1.8477
1.85939
1.86987
1.87922
1.8875
1.89479
1.90117
1.90669
1.91143
1.91546
1.91883
1.92161
1.92384
1.9256
1.92691
1.92785
1.92847
1.9288
1.83601
1.65254
1.49448
1.35742
1.23787
1.13304
1.04064
0.958827
0.886061
0.821083
0.762838
0.710444
0.663154
0.620336
0.581453
0.546045
0.513714
0.484119
0.456965
0.431993
0.408979
0.387726
0.368062
0.349834
0.332907
0.317164
0.302497
0.288813
0.276027
0.264064
0.252857
0.242345
0.232473
0.223192
0.214458
0.206232
0.198477
0.19116
0.184253
0.17773
0.171566
0.165742
0.160239
0.155041
0.150135
0.14551
0.141155
0.137066
0.133237
0.129668
0.12636
0.123317
0.120546
0.118059
0.11587
0.113998
0.112469
0.111309
0.110555
0.110248
0.110436
0.111175
0.112527
0.114566
0.117369
0.121025
0.125629
0.131283
0.138092
0.146166
0.155618
0.166557
0.179088
0.19331
0.209311
0.227161
0.246915
0.268606
0.292243
0.317809
0.345262
0.374528
0.405524
0.438134
0.472198
0.507535
0.543946
0.581221
0.619141
0.657486
0.696036
0.734577
0.772905
0.810826
0.848162
0.884752
0.920452
0.955134
0.988691
1.02103
1.05209
1.0818
1.11014
1.13706
1.16257
1.18666
1.20934
1.23064
1.25058
1.26919
1.28653
1.30264
1.31756
1.33135
1.34406
1.35576
1.3665
1.37633
1.38532
1.39352
1.40098
1.40771
1.83601
1.65254
1.49448
1.35742
1.23787
1.13304
1.04064
0.958827