/*--------------------------------*- C++ -*----------------------------------*\
  =========                 |
  \\      /  F ield         | OpenFOAM: The Open Source CFD Toolbox
   \\    /   O peration     | Website:  https://openfoam.org
    \\  /    A nd           | Version:  8
     \\/     M anipulation  |
\*---------------------------------------------------------------------------*/
FoamFile
{
    version     2.0;
    format      ascii;
    class       volScalarField;
    location    "400";
    object      k;
}
// * * * * * * * * * * * * * * * * * * * * * * * * * * * * * * * * * * * * * //

dimensions      [0 2 -2 0 0 0 0];

internalField   nonuniform List<scalar> 
7320
(
6.07651
5.55941
5.24731
5.04165
4.89419
4.78178
4.6921
4.61824
4.55601
4.50264
4.45622
4.41537
4.37904
4.34643
4.31699
4.29036
4.26637
4.24499
4.22623
4.21007
4.19638
4.18492
4.17538
4.16742
4.16069
4.1549
4.14982
4.1453
4.14121
4.13748
4.13405
4.13092
4.12806
4.12547
4.12314
4.12108
4.1193
4.11779
4.11653
4.11555
4.11483
4.11438
4.11417
4.11422
4.11452
4.11506
4.11583
4.11684
4.11807
4.11951
4.12115
4.123
4.12506
4.1273
4.12972
4.13233
4.13512
4.13807
4.14116
4.14443
4.14784
4.1514
4.15509
4.15891
4.16286
4.16693
4.17109
4.17537
4.17975
4.18421
4.18875
4.19337
4.19805
4.20279
4.20755
4.21238
4.21722
4.22209
4.22695
4.23182
4.23667
4.2415
4.24628
4.25101
4.25569
4.2603
4.26482
4.26925
4.27358
4.27781
4.2819
4.28588
4.28972
4.29344
4.29701
4.30044
4.30374
4.30689
4.30988
4.31274
4.31546
4.31805
4.32048
4.3228
4.32499
4.32705
4.32898
4.33081
4.33252
4.33413
4.33564
4.33705
4.33838
4.33962
4.34077
4.34185
4.34285
4.34379
4.34467
4.34548
4.34621
4.34696
4.84214
5.67923
5.54
5.36045
5.21715
5.10398
5.01224
4.93597
4.87129
4.81557
4.76695
4.72405
4.68583
4.65149
4.62043
4.59226
4.56677
4.5439
4.52362
4.50592
4.4907
4.47776
4.46683
4.4576
4.44976
4.44301
4.43712
4.4319
4.42723
4.423
4.41915
4.41565
4.41246
4.40958
4.40698
4.40468
4.40267
4.40095
4.3995
4.39834
4.39745
4.39683
4.39647
4.39638
4.39654
4.39695
4.39761
4.39851
4.39964
4.40099
4.40257
4.40436
4.40636
4.40856
4.41096
4.41354
4.41631
4.41926
4.42237
4.42566
4.4291
4.43269
4.43643
4.44031
4.44433
4.44847
4.45273
4.4571
4.46159
4.46616
4.47083
4.47559
4.48041
4.48531
4.49026
4.49525
4.50029
4.50536
4.51044
4.51554
4.52063
4.52571
4.53076
4.53578
4.54074
4.54565
4.55049
4.55524
4.5599
4.56445
4.5689
4.57322
4.57742
4.58148
4.5854
4.58917
4.59281
4.59629
4.59962
4.6028
4.60583
4.60871
4.61145
4.61404
4.6165
4.61882
4.621
4.62306
4.625
4.62683
4.62854
4.63014
4.63164
4.63305
4.63436
4.63559
4.63674
4.63781
4.63881
4.63974
4.64059
4.64141
3.5958
5.0514
5.15996
5.06781
4.96411
4.87324
4.79597
4.72999
4.67307
4.62345
4.57976
4.54097
4.50623
4.47483
4.4462
4.41991
4.39571
4.37349
4.3533
4.33522
4.31931
4.30555
4.29381
4.28389
4.27552
4.26842
4.26233
4.25703
4.25235
4.24815
4.24435
4.24087
4.23769
4.23476
4.23208
4.22965
4.22745
4.22549
4.22376
4.22226
4.22099
4.21996
4.21915
4.21857
4.21821
4.21808
4.21817
4.21848
4.219
4.21972
4.22066
4.22179
4.22311
4.22463
4.22633
4.22821
4.23026
4.23249
4.23489
4.23745
4.24016
4.24303
4.24605
4.24921
4.2525
4.25593
4.25949
4.26317
4.26697
4.27088
4.2749
4.27901
4.28322
4.28752
4.29191
4.29636
4.30089
4.30547
4.31011
4.31479
4.31951
4.32424
4.329
4.33376
4.33851
4.34323
4.34793
4.35258
4.35717
4.36169
4.36614
4.37049
4.37474
4.37888
4.38291
4.3868
4.39057
4.39419
4.39769
4.40104
4.40424
4.4073
4.41022
4.41299
4.41563
4.41812
4.42049
4.42272
4.42483
4.42681
4.42868
4.43043
4.43207
4.43362
4.43506
4.43642
4.43768
4.43887
4.43997
4.441
4.44195
4.44284
2.74725
4.48339
4.83294
4.83938
4.78111
4.71518
4.65356
4.59833
4.54928
4.50568
4.46678
4.43188
4.40036
4.37161
4.34508
4.32029
4.29695
4.27495
4.25442
4.23558
4.21868
4.20388
4.19121
4.18054
4.17165
4.16422
4.15798
4.15266
4.14801
4.14388
4.14013
4.13669
4.13348
4.13048
4.12766
4.12503
4.12257
4.12029
4.11819
4.11627
4.11453
4.11298
4.11163
4.11048
4.10951
4.10875
4.10819
4.10782
4.10765
4.10767
4.1079
4.10831
4.1089
4.10967
4.11063
4.11176
4.11307
4.11455
4.1162
4.11802
4.11999
4.12212
4.12442
4.12686
4.12945
4.13218
4.13507
4.13809
4.14125
4.14453
4.14795
4.15149
4.15515
4.15893
4.16283
4.16684
4.17095
4.17515
4.17945
4.18383
4.18829
4.19281
4.1974
4.20203
4.2067
4.21138
4.21608
4.22076
4.22543
4.23005
4.23464
4.23916
4.2436
4.24795
4.25221
4.25635
4.26038
4.26427
4.26804
4.27167
4.27516
4.2785
4.2817
4.28475
4.28765
4.29041
4.29303
4.29552
4.29786
4.30008
4.30216
4.30413
4.30598
4.30771
4.30934
4.31087
4.3123
4.31363
4.31488
4.31605
4.31713
4.31813
2.10346
3.90602
4.48941
4.61127
4.60899
4.57388
4.53134
4.48901
4.44925
4.41266
4.37924
4.34875
4.32082
4.29497
4.27069
4.24746
4.22496
4.20313
4.18219
4.16255
4.14467
4.12891
4.11543
4.10418
4.09494
4.08741
4.08122
4.07604
4.0716
4.06766
4.06408
4.06074
4.05756
4.05451
4.05157
4.04873
4.04599
4.04335
4.04083
4.03843
4.03616
4.03403
4.03206
4.03025
4.02861
4.02713
4.02584
4.02473
4.02379
4.02303
4.02247
4.02209
4.02188
4.02185
4.02201
4.02234
4.02284
4.02352
4.02439
4.02542
4.02662
4.02799
4.02953
4.03124
4.03311
4.03514
4.03735
4.03971
4.04223
4.04491
4.04776
4.05075
4.0539
4.0572
4.06066
4.06427
4.06802
4.07191
4.07594
4.0801
4.08437
4.08876
4.09327
4.09787
4.10254
4.10727
4.11206
4.11688
4.12171
4.12653
4.13136
4.13614
4.14086
4.14551
4.15009
4.15457
4.15893
4.16317
4.1673
4.17129
4.17513
4.17882
4.18236
4.18575
4.18899
4.19207
4.19501
4.19779
4.20042
4.20292
4.20527
4.20749
4.20958
4.21154
4.21339
4.21512
4.21674
4.21826
4.21968
4.22101
4.22225
4.22338
1.61625
3.30895
4.10162
4.35523
4.42202
4.42575
4.40726
4.38107
4.35283
4.32485
4.29812
4.27295
4.24931
4.22691
4.20529
4.18393
4.16252
4.14104
4.11988
4.09965
4.08102
4.06455
4.05056
4.03904
4.02979
4.02245
4.01661
4.01185
4.00784
4.00431
4.00107
3.99798
3.99494
3.99193
3.98893
3.98592
3.98291
3.97993
3.97699
3.97409
3.97126
3.96852
3.9659
3.96339
3.96102
3.95879
3.95672
3.9548
3.95305
3.95146
3.95007
3.94884
3.94779
3.94691
3.94622
3.94571
3.94537
3.94522
3.94526
3.94549
3.94589
3.94648
3.94726
3.94822
3.94937
3.9507
3.95224
3.95396
3.95586
3.95796
3.96025
3.96273
3.96541
3.96827
3.97135
3.97461
3.97806
3.98169
3.98551
3.98951
3.99368
3.99801
4.00251
4.00714
4.01189
4.01675
4.02171
4.02673
4.0318
4.0369
4.04203
4.04714
4.05221
4.05723
4.0622
4.06707
4.07184
4.07649
4.08103
4.08542
4.08967
4.09376
4.0977
4.10147
4.10508
4.10853
4.11182
4.11494
4.1179
4.1207
4.12335
4.12585
4.12821
4.13043
4.13252
4.13448
4.13631
4.13804
4.13965
4.14115
4.14256
4.14384
1.26812
2.70641
3.65728
4.05359
4.20388
4.25638
4.2684
4.26269
4.24899
4.23184
4.21344
4.19487
4.17654
4.1584
4.14009
4.12114
4.10128
4.08058
4.05961
4.03919
4.02023
4.00349
3.98941
3.97806
3.96922
3.96247
3.95734
3.95335
3.95009
3.94724
3.94458
3.94194
3.93923
3.93641
3.93346
3.93039
3.9272
3.92393
3.92061
3.91726
3.9139
3.91056
3.90728
3.90408
3.90097
3.89797
3.89511
3.89238
3.88979
3.88736
3.88511
3.88302
3.8811
3.87936
3.87781
3.87644
3.87525
3.87426
3.87348
3.8729
3.8725
3.87231
3.87234
3.87257
3.87301
3.87366
3.87455
3.87566
3.87698
3.87853
3.88032
3.88233
3.88458
3.88707
3.88981
3.89278
3.89599
3.89943
3.90311
3.90702
3.91114
3.91548
3.92003
3.92476
3.92966
3.9347
3.93988
3.94517
3.95054
3.95597
3.96146
3.96695
3.97243
3.97787
3.98326
3.98857
3.99379
3.99889
4.00388
4.00872
4.01341
4.01794
4.0223
4.0265
4.03051
4.03435
4.03801
4.0415
4.04481
4.04795
4.05092
4.05373
4.05637
4.05886
4.06121
4.06342
4.06548
4.06742
4.06924
4.07094
4.07253
4.07397
1.04443
2.13049
3.15611
3.69384
3.94127
4.05403
4.10459
4.1249
4.12969
4.12625
4.11838
4.10812
4.09645
4.08366
4.06958
4.05383
4.03622
4.01697
3.99681
3.9768
3.9581
3.94166
3.92805
3.91739
3.90945
3.90376
3.89979
3.89698
3.89484
3.89301
3.89124
3.88934
3.88721
3.88479
3.8821
3.87913
3.87592
3.87249
3.86891
3.86519
3.86138
3.8575
3.85364
3.84979
3.84599
3.84226
3.83863
3.83511
3.83171
3.82845
3.82536
3.82243
3.81967
3.81708
3.81469
3.81248
3.81047
3.80866
3.80707
3.8057
3.80455
3.80361
3.80291
3.80245
3.80222
3.80224
3.80252
3.80306
3.80385
3.80491
3.80624
3.80785
3.80973
3.8119
3.81436
3.81711
3.82014
3.82345
3.82705
3.83093
3.83507
3.83947
3.84413
3.84901
3.85411
3.85939
3.86484
3.87044
3.87615
3.88195
3.88783
3.89374
3.89965
3.90554
3.91139
3.91717
3.92286
3.92844
3.9339
3.93922
3.94437
3.94936
3.95417
3.9588
3.96324
3.96749
3.97155
3.97542
3.9791
3.98258
3.98589
3.98901
3.99196
3.99474
3.99736
3.99982
4.00213
4.0043
4.00633
4.00823
4.01001
4.01162
0.919763
1.62589
2.61279
3.26904
3.62247
3.80744
3.90599
3.9592
3.9875
4.00149
4.00699
4.00724
4.004
3.99802
3.98939
3.97792
3.96354
3.94664
3.92815
3.90937
3.89168
3.87624
3.86374
3.85437
3.84789
3.84379
3.84148
3.84031
3.83974
3.83936
3.83887
3.83807
3.83684
3.83513
3.83297
3.83036
3.82733
3.82396
3.82028
3.81637
3.81225
3.80799
3.80365
3.79926
3.79487
3.79049
3.78618
3.78195
3.77781
3.77379
3.76993
3.76622
3.76267
3.75929
3.7561
3.75311
3.75032
3.74775
3.74542
3.74331
3.74144
3.73982
3.73846
3.73736
3.73652
3.73596
3.7357
3.73574
3.73606
3.73669
3.73764
3.7389
3.74049
3.7424
3.74465
3.74724
3.75015
3.75339
3.75697
3.76087
3.76507
3.76958
3.77439
3.77947
3.7848
3.79035
3.7961
3.80204
3.80811
3.8143
3.82059
3.82693
3.83329
3.83965
3.84597
3.85223
3.8584
3.86446
3.87041
3.8762
3.88183
3.88729
3.89255
3.89763
3.9025
3.90717
3.91163
3.91589
3.91994
3.92379
3.92743
3.93088
3.93414
3.93721
3.94011
3.94283
3.94539
3.94779
3.95005
3.95215
3.95413
3.95592
0.860369
1.23773
2.06199
2.78205
3.23849
3.5055
3.66222
3.75647
3.81446
3.8506
3.87308
3.8867
3.89417
3.89688
3.89531
3.88953
3.87968
3.86633
3.85062
3.83408
3.81833
3.80471
3.79406
3.78664
3.78224
3.78032
3.78021
3.78122
3.78273
3.78429
3.78554
3.78628
3.78637
3.78577
3.7845
3.78257
3.78006
3.77701
3.77352
3.76965
3.76545
3.761
3.75638
3.75164
3.74681
3.74194
3.73709
3.73227
3.72752
3.72286
3.71833
3.71393
3.70969
3.70562
3.70173
3.69805
3.69457
3.69132
3.68832
3.68557
3.68307
3.68084
3.67889
3.67723
3.67587
3.67481
3.67409
3.67369
3.67363
3.6739
3.67454
3.67553
3.67688
3.6786
3.68071
3.68319
3.68604
3.68926
3.69286
3.69682
3.70113
3.70578
3.71077
3.71606
3.72164
3.72747
3.73354
3.73981
3.74626
3.75284
3.75954
3.76631
3.77311
3.77992
3.78671
3.79344
3.80009
3.80663
3.81305
3.81932
3.82541
3.83132
3.83704
3.84256
3.84786
3.85294
3.8578
3.86245
3.86687
3.87107
3.87506
3.87883
3.8824
3.88577
3.88894
3.89193
3.89474
3.89738
3.89985
3.90217
3.90434
3.90631
0.836787
0.988153
1.55968
2.25314
2.78723
3.13872
3.36252
3.50661
3.60156
3.6656
3.70962
3.74022
3.76133
3.77515
3.78272
3.78447
3.78081
3.77253
3.76099
3.74795
3.73524
3.7244
3.71643
3.71171
3.71006
3.71094
3.71364
3.71741
3.72158
3.72563
3.72919
3.732
3.73392
3.73491
3.73498
3.73418
3.73257
3.73024
3.72728
3.72378
3.71982
3.71547
3.71084
3.70597
3.70094
3.6958
3.69061
3.6854
3.68021
3.67507
3.67004
3.66512
3.66033
3.6557
3.65125
3.647
3.64296
3.63915
3.63559
3.6323
3.62928
3.62654
3.62411
3.62199
3.62019
3.61873
3.61763
3.61689
3.61652
3.61652
3.61691
3.6177
3.61888
3.62048
3.62249
3.62491
3.62775
3.63099
3.63464
3.63869
3.64313
3.64794
3.65311
3.65863
3.66446
3.67057
3.67694
3.68354
3.69034
3.69729
3.70437
3.71155
3.71878
3.72602
3.73324
3.74042
3.74752
3.75451
3.76138
3.7681
3.77464
3.78099
3.78714
3.79308
3.79879
3.80427
3.80953
3.81455
3.81933
3.82388
3.8282
3.83229
3.83616
3.83982
3.84327
3.84651
3.84957
3.85244
3.85513
3.85765
3.86002
3.86217
0.830413
0.857511
1.16926
1.72852
2.28151
2.70336
2.99746
3.19903
3.33866
3.43725
3.50829
3.56035
3.59879
3.6268
3.64614
3.65775
3.66238
3.66108
3.65544
3.64743
3.63908
3.63216
3.62784
3.62665
3.62848
3.63284
3.639
3.64617
3.65364
3.66083
3.66731
3.67282
3.67718
3.68035
3.68233
3.68319
3.683
3.68186
3.67988
3.67718
3.67385
3.66998
3.66568
3.66104
3.65611
3.65099
3.64572
3.64037
3.63499
3.6296
3.62427
3.61903
3.61389
3.60888
3.60404
3.59939
3.59494
3.59072
3.58675
3.58306
3.57965
3.57653
3.57373
3.57127
3.56915
3.56739
3.56601
3.56501
3.56442
3.56422
3.56445
3.5651
3.56618
3.5677
3.56967
3.57208
3.57494
3.57823
3.58195
3.58611
3.59067
3.59564
3.601
3.60672
3.61278
3.61915
3.6258
3.63269
3.6398
3.64709
3.65452
3.66206
3.66966
3.67729
3.68492
3.6925
3.70001
3.70741
3.71469
3.72182
3.72877
3.73553
3.74208
3.74841
3.7545
3.76036
3.76598
3.77135
3.77647
3.78135
3.78599
3.79038
3.79454
3.79847
3.80218
3.80568
3.80898
3.81207
3.81497
3.81769
3.82025
3.82257
0.831632
0.801462
0.924687
1.27904
1.7606
2.20998
2.56355
2.82483
3.01534
3.15523
3.25943
3.33824
3.39848
3.44451
3.47892
3.5033
3.51883
3.52688
3.52926
3.52814
3.52576
3.52411
3.52457
3.52784
3.53399
3.54257
3.5529
3.56418
3.57565
3.58669
3.59682
3.60574
3.61325
3.61929
3.62386
3.62703
3.62888
3.62953
3.6291
3.62773
3.62553
3.62262
3.6191
3.61509
3.61067
3.60592
3.60094
3.59578
3.5905
3.58516
3.57981
3.5745
3.56925
3.5641
3.55909
3.55424
3.54958
3.54513
3.54094
3.537
3.53336
3.53001
3.52699
3.52431
3.52199
3.52004
3.51849
3.51734
3.51661
3.51631
3.51644
3.51703
3.51806
3.51956
3.52152
3.52396
3.52685
3.53021
3.53402
3.53828
3.54297
3.54808
3.5536
3.5595
3.56576
3.57234
3.57923
3.58637
3.59375
3.60131
3.60904
3.61689
3.62481
3.63277
3.64073
3.64866
3.65652
3.66428
3.67192
3.67941
3.68672
3.69384
3.70074
3.70742
3.71386
3.72005
3.726
3.73169
3.73712
3.7423
3.74722
3.75189
3.75632
3.76051
3.76446
3.76819
3.77171
3.77501
3.77812
3.78103
3.78376
3.78624
0.835915
0.782667
0.803406
0.968312
1.29569
1.69676
2.07279
2.3823
2.62388
2.80958
2.95263
3.06378
3.15091
3.21945
3.27291
3.3136
3.34322
3.3635
3.37649
3.38454
3.39011
3.39537
3.40197
3.41084
3.42224
3.43589
3.45117
3.46733
3.48357
3.49925
3.51385
3.527
3.53849
3.54822
3.55618
3.56243
3.56707
3.57023
3.57204
3.57265
3.5722
3.57082
3.56865
3.56579
3.56237
3.55847
3.5542
3.54964
3.54486
3.53992
3.5349
3.52983
3.52478
3.51977
3.51485
3.51006
3.50543
3.50098
3.49677
3.4928
3.4891
3.4857
3.48262
3.47988
3.47749
3.47549
3.47388
3.47269
3.47193
3.4716
3.47172
3.47231
3.47335
3.47488
3.47688
3.47936
3.48232
3.48575
3.48965
3.49401
3.49881
3.50404
3.50969
3.51574
3.52216
3.52891
3.53597
3.54331
3.55089
3.55867
3.56662
3.57471
3.58288
3.5911
3.59932
3.60753
3.61567
3.62372
3.63165
3.63944
3.64705
3.65446
3.66166
3.66864
3.67537
3.68185
3.68808
3.69404
3.69975
3.70518
3.71036
3.71528
3.71994
3.72435
3.72852
3.73246
3.73617
3.73966
3.74295
3.74603
3.74892
3.75156
0.841165
0.780282
0.755001
0.801821
0.962774
1.23786
1.56802
1.88857
2.16644
2.39493
2.57907
2.72685
2.84572
2.94153
3.01849
3.07958
3.12705
3.16299
3.18969
3.20968
3.22558
3.2398
3.25422
3.27008
3.28788
3.30758
3.32872
3.3506
3.37247
3.39367
3.41362
3.43193
3.44833
3.46269
3.47497
3.48523
3.49356
3.50008
3.50496
3.50834
3.5104
3.51127
3.51112
3.51007
3.50825
3.50578
3.50277
3.49931
3.4955
3.49142
3.48714
3.48273
3.47824
3.47372
3.46923
3.4648
3.46049
3.45632
3.45234
3.44857
3.44505
3.4418
3.43885
3.43622
3.43394
3.43203
3.43051
3.4294
3.42872
3.42847
3.42866
3.42932
3.43045
3.43205
3.43413
3.4367
3.43974
3.44326
3.44725
3.4517
3.4566
3.46193
3.46768
3.47384
3.48036
3.48723
3.49442
3.50188
3.5096
3.51753
3.52564
3.53388
3.54222
3.55062
3.55904
3.56744
3.57579
3.58405
3.5922
3.6002
3.60803
3.61567
3.6231
3.6303
3.63726
3.64397
3.65042
3.6566
3.66252
3.66817
3.67355
3.67867
3.68352
3.68812
3.69247
3.69658
3.70046
3.70411
3.70754
3.71076
3.71379
3.71656
0.846372
0.784571
0.740866
0.731422
0.780824
0.913775
1.13038
1.3968
1.66974
1.92053
2.13796
2.3213
2.47408
2.60075
2.70531
2.79097
2.86033
2.91576
2.95974
2.99492
3.02406
3.04972
3.07408
3.09865
3.1243
3.15125
3.17929
3.20786
3.23632
3.26398
3.29029
3.31477
3.33713
3.35719
3.37487
3.39021
3.40327
3.41419
3.42313
3.43025
3.43572
3.43973
3.44242
3.44397
3.44451
3.44417
3.44308
3.44136
3.43912
3.43645
3.43344
3.43016
3.4267
3.42311
3.41945
3.41578
3.41214
3.40858
3.40514
3.40187
3.39879
3.39595
3.39336
3.39107
3.3891
3.38747
3.3862
3.38532
3.38485
3.3848
3.38518
3.38601
3.3873
3.38905
3.39127
3.39396
3.39712
3.40075
3.40484
3.40939
3.41437
3.41979
3.42562
3.43185
3.43844
3.44538
3.45264
3.46018
3.46797
3.47598
3.48416
3.49249
3.50093
3.50942
3.51795
3.52646
3.53493
3.54331
3.55159
3.55973
3.5677
3.57548
3.58306
3.59041
3.59752
3.60438
3.61098
3.61731
3.62338
3.62917
3.6347
3.63996
3.64495
3.64968
3.65416
3.6584
3.66239
3.66616
3.6697
3.67303
3.67617
3.67903
0.851011
0.791143
0.741126
0.708367
0.703462
0.741585
0.838122
0.99693
1.20267
1.42854
1.65063
1.85474
2.03526
2.19155
2.32511
2.4381
2.53274
2.61131
2.67623
2.73014
2.77578
2.81584
2.85268
2.88814
2.92343
2.95913
2.99533
3.03174
3.06783
3.10302
3.13674
3.16852
3.19799
3.22494
3.24923
3.27087
3.28989
3.30642
3.3206
3.3326
3.3426
3.35079
3.35735
3.36245
3.36626
3.36893
3.3706
3.37141
3.37147
3.3709
3.36981
3.3683
3.36644
3.36432
3.362
3.35955
3.35703
3.3545
3.352
3.34959
3.3473
3.34518
3.34326
3.34157
3.34015
3.33903
3.33823
3.33778
3.3377
3.33801
3.33872
3.33985
3.3414
3.3434
3.34583
3.34872
3.35206
3.35585
3.36007
3.36474
3.36983
3.37533
3.38123
3.38752
3.39416
3.40114
3.40843
3.41599
3.4238
3.43183
3.44003
3.44837
3.45682
3.46534
3.47389
3.48243
3.49092
3.49935
3.50766
3.51584
3.52387
3.5317
3.53933
3.54674
3.55391
3.56084
3.5675
3.57391
3.58004
3.5859
3.5915
3.59682
3.60188
3.60668
3.61123
3.61553
3.61959
3.62342
3.62702
3.63041
3.6336
3.63651
0.854799
0.797919
0.746862
0.705362
0.677885
0.670755
0.692784
0.753715
0.85935
1.00622
1.18136
1.36799
1.55186
1.72387
1.87954
2.01733
2.13738
2.24077
2.32919
2.40482
2.47012
2.52765
2.57982
2.62869
2.67577
2.72204
2.76795
2.8135
2.85842
2.90226
2.94454
2.98477
3.02259
3.05771
3.08995
3.11925
3.14562
3.16914
3.18993
3.20816
3.224
3.23765
3.2493
3.25914
3.26735
3.27411
3.27956
3.28386
3.28715
3.28957
3.29123
3.29224
3.29272
3.29275
3.29242
3.2918
3.29097
3.29
3.28894
3.28785
3.28679
3.28579
3.28491
3.28419
3.28365
3.28334
3.28329
3.28352
3.28407
3.28495
3.28618
3.28778
3.28977
3.29215
3.29494
3.29813
3.30174
3.30577
3.3102
3.31504
3.32028
3.32591
3.3319
3.33826
3.34496
3.35197
3.35927
3.36684
3.37463
3.38264
3.39081
3.39912
3.40752
3.41599
3.42449
3.43298
3.44142
3.44979
3.45806
3.46619
3.47417
3.48196
3.48955
3.49692
3.50406
3.51095
3.51758
3.52396
3.53006
3.5359
3.54147
3.54678
3.55182
3.55661
3.56114
3.56542
3.56947
3.57329
3.57689
3.58027
3.58345
3.58637
0.857613
0.803838
0.754023
0.710069
0.674015
0.648369
0.636596
0.643484
0.674834
0.735893
0.828742
0.950235
1.09234
1.24475
1.39794
1.54483
1.68105
1.80449
1.91463
2.01213
2.09845
2.1755
2.24536
2.31
2.37109
2.42988
2.48717
2.54331
2.59833
2.652
2.70397
2.75383
2.8012
2.84578
2.88735
2.92576
2.96097
2.99301
3.02197
3.04798
3.0712
3.09182
3.11003
3.12603
3.14001
3.15215
3.16264
3.17165
3.17933
3.18582
3.19127
3.1958
3.19954
3.2026
3.20507
3.20707
3.20866
3.20993
3.21095
3.2118
3.21252
3.21319
3.21384
3.21454
3.21532
3.21622
3.21729
3.21856
3.22005
3.2218
3.22383
3.22616
3.22881
3.23179
3.23512
3.2388
3.24285
3.24725
3.25202
3.25715
3.26264
3.26847
3.27463
3.28112
3.28791
3.29499
3.30234
3.30992
3.31771
3.32568
3.3338
3.34204
3.35037
3.35875
3.36714
3.37552
3.38385
3.39209
3.40023
3.40823
3.41607
3.42372
3.43117
3.4384
3.4454
3.45215
3.45864
3.46488
3.47085
3.47656
3.482
3.48718
3.4921
3.49677
3.50119
3.50536
3.50931
3.51303
3.51653
3.51982
3.52293
3.52576
0.859482
0.808378
0.760625
0.716973
0.678334
0.645749
0.620512
0.604372
0.599725
0.609663
0.637662
0.68674
0.758254
0.850889
0.960517
1.08111
1.20619
1.33013
1.44887
1.56004
1.66273
1.75714
1.84416
1.92506
2.00118
2.07373
2.14364
2.21153
2.27769
2.34214
2.40472
2.46516
2.52312
2.5783
2.63043
2.67932
2.72485
2.76698
2.80575
2.84122
2.87352
2.90282
2.92929
2.95311
2.97448
2.9936
3.01066
3.02583
3.0393
3.05123
3.06177
3.07107
3.07926
3.08646
3.09281
3.09841
3.10337
3.10778
3.11173
3.11529
3.11856
3.12158
3.12444
3.12717
3.12985
3.13252
3.13522
3.13799
3.14088
3.14392
3.14713
3.15055
3.1542
3.15809
3.16225
3.16668
3.1714
3.17641
3.18172
3.18733
3.19323
3.19942
3.2059
3.21264
3.21965
3.22689
3.23436
3.24202
3.24986
3.25784
3.26595
3.27414
3.28239
3.29067
3.29894
3.30718
3.31535
3.32342
3.33136
3.33916
3.34678
3.35421
3.36143
3.36842
3.37517
3.38167
3.38792
3.3939
3.39962
3.40508
3.41027
3.41521
3.41989
3.42432
3.42851
3.43247
3.4362
3.43971
3.44302
3.44612
3.44904
3.45171
0.860565
0.81141
0.765711
0.723438
0.684827
0.650242
0.620147
0.595142
0.576031
0.563906
0.560222
0.566795
0.585662
0.618727
0.667239
0.731245
0.809276
0.89847
0.995109
1.09536
1.19594
1.29449
1.38965
1.48094
1.56844
1.6526
1.73394
1.81293
1.88991
1.96502
2.03825
2.10942
2.1783
2.24458
2.308
2.36829
2.42527
2.4788
2.52884
2.57537
2.61846
2.65821
2.69475
2.72823
2.75884
2.78675
2.81216
2.83525
2.85621
2.87522
2.89243
2.90802
2.92214
2.93492
2.94649
2.95699
2.96653
2.97524
2.98321
2.99054
2.99732
3.00364
3.00957
3.01517
3.02053
3.0257
3.03072
3.03566
3.04056
3.04547
3.05041
3.05543
3.06055
3.0658
3.0712
3.07678
3.08255
3.08851
3.09468
3.10106
3.10766
3.11447
3.12149
3.12871
3.13613
3.14372
3.15147
3.15936
3.16738
3.17549
3.18368
3.1919
3.20015
3.20837
3.21656
3.22467
3.23268
3.24057
3.2483
3.25586
3.26321
3.27036
3.27727
3.28394
3.29036
3.29651
3.3024
3.30802
3.31337
3.31846
3.32328
3.32785
3.33216
3.33623
3.34006
3.34367
3.34706
3.35023
3.35322
3.35601
3.35863
3.36103
0.861099
0.813133
0.76901
0.728261
0.690672
0.656203
0.624915
0.596953
0.57254
0.551996
0.535765
0.524447
0.51883
0.519893
0.528764
0.546604
0.574422
0.612834
0.661854
0.72078
0.788259
0.862493
0.941544
1.02362
1.10726
1.19144
1.27549
1.35904
1.44187
1.52382
1.6047
1.68429
1.76229
1.83839
1.91224
1.9835
2.0519
2.11718
2.17917
2.23775
2.29285
2.34448
2.3927
2.43757
2.47924
2.51783
2.55351
2.58644
2.6168
2.64477
2.67051
2.6942
2.71599
2.73605
2.75451
2.77152
2.78721
2.8017
2.81511
2.82755
2.83913
2.84996
2.86012
2.8697
2.87879
2.88744
2.89573
2.90373
2.91148
2.91905
2.92647
2.9338
2.94107
2.94832
2.95558
2.96287
2.97021
2.97763
2.98514
2.99274
3.00046
3.00828
3.01622
3.02426
3.03241
3.04065
3.04897
3.05735
3.06578
3.07423
3.08269
3.09112
3.09951
3.10782
3.11603
3.12411
3.13204
3.13979
3.14735
3.15468
3.16177
3.16861
3.17519
3.18149
3.18751
3.19325
3.1987
3.20386
3.20874
3.21335
3.21768
3.22176
3.22558
3.22915
3.2325
3.23562
3.23853
3.24125
3.24378
3.24613
3.24833
3.25033
0.861317
0.813942
0.770775
0.731184
0.694718
0.661081
0.630094
0.601662
0.575754
0.552397
0.531673
0.513721
0.498749
0.487041
0.478972
0.47501
0.475713
0.481706
0.49364
0.512118
0.537626
0.570447
0.610612
0.657879
0.711762
0.771585
0.836562
0.905862
0.978664
1.05419
1.13172
1.21057
1.29012
1.36975
1.4489
1.52702
1.60363
1.67827
1.75055
1.82016
1.88684
1.95043
2.01082
2.06794
2.12181
2.17247
2.22
2.26449
2.30607
2.34489
2.38108
2.4148
2.44621
2.47547
2.50271
2.52809
2.55174
2.5738
2.5944
2.61365
2.63167
2.64857
2.66446
2.67944
2.69362
2.70707
2.71987
2.73211
2.74385
2.75516
2.7661
2.77672
2.78707
2.7972
2.80715
2.81695
2.82663
2.83622
2.84575
2.85522
2.86467
2.87409
2.88349
2.89287
2.90224
2.91159
2.92091
2.93019
2.93941
2.94855
2.95761
2.96655
2.97535
2.98399
2.99245
3.0007
3.00871
3.01648
3.02398
3.03119
3.0381
3.04469
3.05097
3.05693
3.06255
3.06785
3.07283
3.07749
3.08184
3.0859
3.08966
3.09315
3.09638
3.09936
3.1021
3.10463
3.10695
3.10908
3.11103
3.11282
3.11448
3.11595
0.861389
0.814244
0.77153
0.732597
0.696917
0.664078
0.633768
0.605753
0.579862
0.555979
0.53403
0.513979
0.495827
0.479608
0.465393
0.453287
0.44344
0.436043
0.431335
0.429604
0.431186
0.436453
0.445807
0.459656
0.478395
0.502379
0.531897
0.567145
0.608206
0.655022
0.707388
0.764941
0.827171
0.893437
0.963003
1.03507
1.10882
1.18346
1.25826
1.33254
1.40573
1.47735
1.547
1.61435
1.67917
1.74128
1.80059
1.85703
1.9106
1.96132
2.00928
2.05454
2.0972
2.1374
2.17523
2.21083
2.24433
2.27585
2.30551
2.33345
2.35977
2.3846
2.40805
2.43021
2.45118
2.47107
2.48997
2.50798
2.52518
2.54165
2.55745
2.57266
2.58733
2.60153
2.61531
2.6287
2.64176
2.65452
2.66702
2.67927
2.69131
2.70314
2.71479
2.72626
2.73756
2.74869
2.75964
2.77041
2.78099
2.79136
2.80151
2.81142
2.82107
2.83044
2.83952
2.84827
2.85669
2.86475
2.87244
2.87975
2.88667
2.8932
2.89932
2.90505
2.91038
2.91533
2.91989
2.92409
2.92794
2.93145
2.93464
2.93753
2.94013
2.94248
2.94458
2.94645
2.94812
2.94959
2.9509
2.95205
2.95309
2.95397
0.861406
0.814329
0.771776
0.733121
0.697834
0.665476
0.635686
0.608168
0.582682
0.559037
0.53708
0.516691
0.497782
0.480287
0.464166
0.449398
0.435983
0.42394
0.413308
0.404149
0.396545
0.390607
0.386473
0.384315
0.384335
0.386777
0.391919
0.400076
0.411593
0.426841
0.446193
0.47001
0.498611
0.532238
0.571023
0.614959
0.663877
0.717439
0.775151
0.836384
0.900416
0.96648
1.03381
1.10168
1.16944
1.23651
1.30244
1.36686
1.42946
1.49004
1.54844
1.60456
1.65834
1.70976
1.75884
1.80559
1.85009
1.8924
1.93262
1.97082
2.0071
2.04158
2.07434
2.10547
2.13509
2.16328
2.19013
2.21571
2.24011
2.26343
2.28576
2.30717
2.32773
2.34751
2.36657
2.38498
2.40278
2.42001
2.43673
2.45297
2.46875
2.48412
2.49907
2.51365
2.52785
2.54168
2.55515
2.56825
2.58098
2.59334
2.6053
2.61686
2.62799
2.6387
2.64895
2.65873
2.66804
2.67686
2.68517
2.69298
2.70027
2.70706
2.71335
2.71914
2.72444
2.72926
2.73364
2.73757
2.7411
2.74423
2.74699
2.74941
2.75151
2.75333
2.75487
2.75617
2.75725
2.75814
2.75885
2.75941
2.75986
2.76018
0.861407
0.814342
0.77183
0.73326
0.698113
0.665954
0.636417
0.609191
0.584014
0.560665
0.538959
0.518737
0.499869
0.482247
0.46578
0.450396
0.436037
0.42266
0.410232
0.398735
0.388161
0.378513
0.369806
0.362069
0.355343
0.349687
0.345176
0.341907
0.340001
0.339605
0.3409
0.344098
0.349446
0.357224
0.367741
0.381325
0.398309
0.419014
0.443725
0.472662
0.505957
0.54363
0.585574
0.631543
0.681169
0.733971
0.789388
0.846808
0.90561
0.965189
1.02499
1.08453
1.14338
1.20122
1.25777
1.31285
1.3663
1.41805
1.46802
1.51619
1.56254
1.6071
1.64988
1.69092
1.73027
1.76799
1.80414
1.83879
1.87201
1.90386
1.93442
1.96372
1.99186
2.01889
2.0449
2.06994
2.09407
2.11734
2.1398
2.16149
2.18246
2.20273
2.22233
2.2413
2.25964
2.27738
2.29451
2.31105
2.32699
2.34233
2.35707
2.3712
2.3847
2.39757
2.4098
2.42138
2.4323
2.44256
2.45216
2.4611
2.46939
2.47703
2.48403
2.49042
2.49621
2.50143
2.5061
2.51025
2.5139
2.51709
2.51985
2.52222
2.52421
2.52587
2.52723
2.52831
2.52915
2.52976
2.53019
2.53045
2.53059
2.53061
0.861405
0.814337
0.771831
0.733277
0.698164
0.666062
0.636607
0.60949
0.584447
0.561253
0.53971
0.519653
0.500935
0.483431
0.467033
0.451647
0.437192
0.4236
0.410812
0.398777
0.387455
0.376811
0.36682
0.357461
0.348722
0.340597
0.333086
0.326198
0.319949
0.314364
0.30948
0.305342
0.302013
0.299571
0.298109
0.297746
0.298619
0.300892
0.304753
0.310414
0.318108
0.328085
0.340602
0.355912
0.374252
0.395828
0.420796
0.449245
0.481191
0.516558
0.555184
0.596818
0.641134
0.687743
0.736218
0.786108
0.836966
0.888363
0.939907
0.991251
1.0421
1.09221
1.14139
1.18951
1.23645
1.28214
1.32655
1.36964
1.41142
1.45188
1.49104
1.52891
1.56553
1.6009
1.63506
1.66802
1.6998
1.73047
1.76006
1.78861
1.81617
1.84276
1.86842
1.89316
1.91701
1.93998
1.96208
1.98333
2.00373
2.02327
2.04197
2.05981
2.07679
2.09292
2.10819
2.12261
2.13618
2.1489
2.16079
2.17186
2.18212
2.1916
2.2003
2.20827
2.21553
2.22211
2.22805
2.23337
2.23811
2.24231
2.24601
2.24924
2.25204
2.25445
2.25649
2.25821
2.25963
2.26079
2.26171
2.26243
2.26299
2.2634
0.861402
0.814329
0.77182
0.733266
0.698157
0.666065
0.636627
0.609537
0.584532
0.561385
0.539902
0.519913
0.50127
0.483845
0.467525
0.45221
0.437812
0.424255
0.41147
0.399398
0.387984
0.377184
0.366955
0.357263
0.348076
0.339367
0.331115
0.3233
0.315909
0.308929
0.302355
0.296182
0.290413
0.285054
0.280116
0.275617
0.271579
0.268036
0.265027
0.262601
0.26082
0.259758
0.259501
0.260153
0.261831
0.26467
0.26882
0.274444
0.281717
0.29082
0.301935
0.315239
0.330895
0.349039
0.369782
0.393188
0.419276
0.448014
0.479314
0.513034
0.548982
0.586923
0.626588
0.667687
0.709915
0.752967
0.796552
0.840392
0.884238
0.927869
0.971096
1.01377
1.05575
1.09696
1.1373
1.17674
1.21523
1.25274
1.28924
1.32469
1.35907
1.3924
1.42467
1.45589
1.48605
1.51516
1.54322
1.57022
1.59616
1.62106
1.6449
1.66769
1.68945
1.71018
1.72988
1.74858
1.76628
1.783
1.79877
1.81361
1.82753
1.84057
1.85274
1.86409
1.87465
1.88443
1.89349
1.90185
1.90954
1.91661
1.92309
1.92901
1.93441
1.93932
1.94378
1.94782
1.95146
1.95475
1.95771
1.96036
1.96276
1.96491
0.8614
0.814321
0.77181
0.733253
0.698143
0.66605
0.636614
0.609527
0.584528
0.561391
0.53992
0.519948
0.501326
0.483926
0.467634
0.45235
0.437984
0.42446
0.411705
0.399659
0.388265
0.377473
0.367239
0.357522
0.348286
0.3395
0.331133
0.32316
0.315558
0.308305
0.301384
0.294777
0.288471
0.282454
0.276716
0.271249
0.266048
0.261109
0.256432
0.252018
0.247873
0.244003
0.240421
0.237142
0.234185
0.231577
0.229346
0.227531
0.226175
0.22533
0.225056
0.225423
0.226511
0.228408
0.231214
0.235037
0.239993
0.246202
0.253789
0.262878
0.273589
0.286034
0.300311
0.316502
0.334665
0.354833
0.37701
0.401166
0.427242
0.455146
0.484755
0.515921
0.548472
0.58222
0.616965
0.652501
0.688624
0.72513
0.761826
0.798554
0.835144
0.871439
0.907291
0.942579
0.977215
1.01113
1.04427
1.07658
1.10805
1.13864
1.16835
1.19715
1.22505
1.25203
1.27809
1.30324
1.32747
1.35078
1.37318
1.39466
1.41523
1.4349
1.45368
1.47157
1.48859
1.50476
1.52008
1.53459
1.54829
1.56121
1.57337
1.58481
1.59554
1.6056
1.61501
1.6238
1.632
1.63965
1.64676
1.65337
1.65953
1.66521
0.861399
0.814317
0.771804
0.733245
0.698133
0.666039
0.636602
0.609515
0.584516
0.561379
0.53991
0.519941
0.501322
0.483926
0.46764
0.452362
0.438005
0.424489
0.411745
0.39971
0.388327
0.377546
0.367321
0.357613
0.348383
0.339599
0.331229
0.323246
0.315626
0.308344
0.30138
0.294715
0.288332
0.282214
0.276347
0.270718
0.265316
0.260128
0.255147
0.250363
0.24577
0.241361
0.237132
0.233078
0.229198
0.22549
0.221955
0.218596
0.215415
0.212418
0.209614
0.207013
0.204628
0.202474
0.200572
0.198944
0.197617
0.196623
0.195998
0.195785
0.196032
0.196794
0.198131
0.200111
0.202808
0.206303
0.210682
0.216035
0.222456
0.230038
0.238877
0.249064
0.260684
0.273815
0.288525
0.304866
0.322873
0.342566
0.363943
0.386979
0.411631
0.437832
0.465504
0.494544
0.524823
0.556195
0.588506
0.621592
0.655285
0.689417
0.723821
0.758335
0.792803
0.827078
0.861023
0.894513
0.927433
0.959682
0.991169
1.02182
1.05156
1.08035
1.10813