/*--------------------------------*- C++ -*----------------------------------*\
  =========                 |
  \\      /  F ield         | OpenFOAM: The Open Source CFD Toolbox
   \\    /   O peration     | Website:  https://openfoam.org
    \\  /    A nd           | Version:  8
     \\/     M anipulation  |
\*---------------------------------------------------------------------------*/
FoamFile
{
    version     2.0;
    format      ascii;
    class       volScalarField;
    location    "400";
    object      nut;
}
// * * * * * * * * * * * * * * * * * * * * * * * * * * * * * * * * * * * * * //

dimensions      [0 2 -1 0 0 0 0];

internalField   nonuniform List<scalar> 
7320
(
0.000286299
0.000273847
0.000266049
0.000260783
0.000256941
0.000253973
0.00025158
0.000249592
0.000247905
0.000246449
0.000245175
0.000244049
0.000243044
0.000242138
0.000241317
0.000240571
0.000239893
0.000239283
0.000238739
0.000238264
0.000237854
0.000237505
0.000237212
0.000236964
0.000236755
0.000236576
0.00023642
0.000236282
0.000236159
0.000236047
0.000235945
0.000235853
0.000235768
0.000235691
0.000235621
0.00023556
0.000235505
0.000235458
0.000235419
0.000235387
0.000235362
0.000235344
0.000235333
0.000235329
0.000235332
0.000235342
0.000235358
0.000235381
0.00023541
0.000235444
0.000235485
0.000235531
0.000235583
0.000235641
0.000235703
0.000235771
0.000235843
0.000235921
0.000236002
0.000236088
0.000236179
0.000236273
0.000236371
0.000236473
0.000236579
0.000236688
0.0002368
0.000236915
0.000237033
0.000237154
0.000237276
0.000237401
0.000237528
0.000237657
0.000237787
0.000237919
0.000238051
0.000238184
0.000238318
0.000238452
0.000238585
0.000238719
0.000238851
0.000238983
0.000239113
0.000239242
0.000239368
0.000239493
0.000239615
0.000239735
0.000239851
0.000239964
0.000240074
0.00024018
0.000240283
0.000240382
0.000240477
0.000240569
0.000240656
0.000240739
0.000240819
0.000240895
0.000240966
0.000241034
0.000241099
0.00024116
0.000241217
0.000241272
0.000241323
0.000241371
0.000241416
0.000241458
0.000241498
0.000241535
0.00024157
0.000241603
0.000241633
0.000241661
0.000241688
0.000241712
0.000241734
0.000241757
0.000562815
0.000740638
0.000767571
0.000767651
0.000763096
0.000757975
0.000753148
0.000748779
0.000744862
0.00074135
0.000738194
0.000735344
0.000732755
0.00073038
0.000728177
0.000726108
0.00072415
0.000722295
0.000720556
0.000718955
0.000717516
0.000716255
0.000715174
0.000714266
0.00071351
0.000712881
0.000712354
0.000711905
0.000711515
0.000711168
0.000710853
0.000710564
0.000710293
0.00071004
0.0007098
0.000709577
0.000709368
0.000709173
0.000708993
0.000708828
0.000708679
0.000708546
0.000708429
0.000708329
0.000708245
0.000708179
0.00070813
0.000708098
0.000708083
0.000708085
0.000708105
0.000708141
0.000708193
0.000708261
0.000708345
0.000708445
0.00070856
0.00070869
0.000708836
0.000708995
0.000709169
0.000709356
0.000709558
0.000709773
0.000710001
0.000710241
0.000710496
0.000710761
0.000711038
0.000711327
0.000711627
0.000711938
0.000712259
0.00071259
0.000712933
0.000713284
0.000713643
0.000714011
0.000714387
0.00071477
0.00071516
0.000715555
0.000715956
0.00071636
0.000716766
0.000717173
0.000717582
0.00071799
0.000718395
0.000718796
0.000719194
0.000719586
0.00071997
0.000720347
0.000720715
0.000721072
0.000721419
0.000721755
0.00072208
0.000722392
0.000722692
0.000722979
0.000723253
0.000723515
0.000723763
0.000724
0.000724224
0.000724436
0.000724637
0.000724826
0.000725004
0.000725171
0.000725329
0.000725476
0.000725615
0.000725745
0.000725866
0.00072598
0.000726086
0.000726185
0.000726277
0.00072636
0.00076108
0.00115457
0.00127125
0.00130573
0.00131552
0.00131689
0.00131508
0.00131204
0.00130856
0.00130498
0.00130147
0.00129811
0.0012949
0.0012918
0.00128874
0.00128563
0.00128242
0.0012791
0.00127575
0.00127251
0.0012695
0.00126683
0.00126458
0.00126276
0.00126132
0.00126022
0.00125936
0.00125868
0.00125813
0.00125764
0.00125719
0.00125675
0.00125631
0.00125586
0.00125539
0.00125492
0.00125443
0.00125394
0.00125344
0.00125295
0.00125246
0.00125198
0.00125151
0.00125106
0.00125062
0.00125021
0.00124981
0.00124945
0.0012491
0.00124879
0.0012485
0.00124824
0.00124801
0.00124781
0.00124764
0.0012475
0.00124739
0.0012473
0.00124726
0.00124724
0.00124725
0.00124729
0.00124737
0.00124748
0.00124761
0.00124778
0.00124799
0.00124823
0.0012485
0.0012488
0.00124914
0.00124951
0.00124991
0.00125034
0.00125082
0.00125133
0.00125186
0.00125244
0.00125304
0.00125368
0.00125435
0.00125505
0.00125578
0.00125653
0.0012573
0.0012581
0.00125891
0.00125973
0.00126056
0.0012614
0.00126225
0.00126309
0.00126393
0.00126475
0.00126557
0.00126638
0.00126716
0.00126793
0.00126868
0.0012694
0.0012701
0.00127077
0.00127142
0.00127204
0.00127263
0.00127319
0.00127373
0.00127425
0.00127473
0.00127519
0.00127562
0.00127603
0.00127641
0.00127677
0.00127711
0.00127743
0.00127773
0.00127801
0.00127827
0.00127852
0.00127875
0.00127895
0.000942189
0.00154866
0.00180332
0.00190636
0.0019512
0.00197187
0.00198148
0.00198556
0.00198669
0.00198618
0.00198474
0.00198277
0.00198044
0.00197777
0.00197467
0.00197099
0.00196665
0.00196171
0.00195641
0.00195107
0.00194606
0.00194168
0.00193811
0.00193539
0.00193344
0.00193213
0.0019313
0.00193078
0.00193042
0.00193013
0.00192981
0.00192944
0.00192897
0.0019284
0.00192773
0.00192696
0.0019261
0.00192516
0.00192417
0.00192312
0.00192203
0.00192092
0.0019198
0.00191868
0.00191756
0.00191646
0.00191538
0.00191433
0.0019133
0.00191232
0.00191137
0.00191047
0.00190961
0.0019088
0.00190804
0.00190733
0.00190668
0.00190607
0.00190553
0.00190505
0.00190463
0.00190427
0.00190397
0.00190374
0.00190358
0.00190348
0.00190345
0.0019035
0.00190361
0.0019038
0.00190407
0.00190441
0.00190484
0.00190534
0.00190592
0.00190659
0.00190734
0.00190817
0.00190908
0.00191007
0.00191113
0.00191228
0.00191349
0.00191477
0.00191611
0.00191751
0.00191895
0.00192044
0.00192195
0.00192349
0.00192506
0.00192663
0.0019282
0.00192977
0.00193133
0.00193286
0.00193437
0.00193585
0.00193729
0.0019387
0.00194006
0.00194137
0.00194264
0.00194386
0.00194502
0.00194614
0.0019472
0.00194821
0.00194917
0.00195008
0.00195094
0.00195175
0.00195251
0.00195323
0.00195391
0.00195455
0.00195514
0.0019557
0.00195623
0.00195671
0.00195718
0.00195758
0.00110978
0.00189233
0.00232607
0.0025368
0.00264439
0.00270314
0.00273714
0.00275766
0.00277033
0.00277819
0.00278299
0.00278574
0.00278698
0.00278689
0.00278538
0.00278229
0.00277754
0.00277132
0.00276415
0.0027567
0.00274971
0.00274376
0.0027392
0.00273611
0.00273435
0.00273366
0.00273371
0.00273421
0.00273488
0.00273552
0.002736
0.00273624
0.00273618
0.0027358
0.00273513
0.00273418
0.00273298
0.00273155
0.00272993
0.00272815
0.00272624
0.00272423
0.00272214
0.00272002
0.00271786
0.00271568
0.00271352
0.00271138
0.00270926
0.00270719
0.00270517
0.00270321
0.00270132
0.00269949
0.00269775
0.00269609
0.00269451
0.00269303
0.00269165
0.00269037
0.0026892
0.00268814
0.00268719
0.00268636
0.00268565
0.00268507
0.00268462
0.00268431
0.00268413
0.00268409
0.0026842
0.00268446
0.00268487
0.00268543
0.00268615
0.00268703
0.00268807
0.00268927
0.00269062
0.00269213
0.00269379
0.00269559
0.00269753
0.00269961
0.0027018
0.0027041
0.0027065
0.00270898
0.00271153
0.00271413
0.00271677
0.00271945
0.00272214
0.00272482
0.00272748
0.00273012
0.00273272
0.00273527
0.00273777
0.00274021
0.00274257
0.00274485
0.00274705
0.00274917
0.0027512
0.00275314
0.00275499
0.00275676
0.00275843
0.00276002
0.00276152
0.00276295
0.00276429
0.00276555
0.00276673
0.00276785
0.0027689
0.00276988
0.0027708
0.00277165
0.00277246
0.00277317
0.00129926
0.00216764
0.00280718
0.00316586
0.00336956
0.00349118
0.00356777
0.00361827
0.00365281
0.00367712
0.00369459
0.0037073
0.00371639
0.00372237
0.00372526
0.00372493
0.00372138
0.00371506
0.00370686
0.00369801
0.00368974
0.00368305
0.00367851
0.00367626
0.00367607
0.00367749
0.00367997
0.00368302
0.00368617
0.0036891
0.00369158
0.00369347
0.00369469
0.00369524
0.00369514
0.00369444
0.00369319
0.00369145
0.00368928
0.00368675
0.00368392
0.00368083
0.00367756
0.00367415
0.00367063
0.00366704
0.00366342
0.00365979
0.00365617
0.00365259
0.00364906
0.00364562
0.00364226
0.003639
0.00363585
0.00363283
0.00362995
0.0036272
0.00362461
0.0036222
0.00361995
0.00361788
0.003616
0.00361432
0.00361284
0.00361158
0.00361053
0.00360972
0.00360914
0.0036088
0.00360871
0.00360887
0.00360929
0.00360997
0.00361091
0.00361214
0.00361362
0.00361538
0.00361739
0.00361967
0.0036222
0.00362497
0.00362798
0.00363121
0.00363464
0.00363825
0.00364201
0.00364593
0.00364995
0.00365407
0.00365826
0.00366251
0.00366678
0.00367104
0.00367529
0.0036795
0.00368365
0.00368772
0.00369171
0.0036956
0.00369938
0.00370303
0.00370655
0.00370995
0.0037132
0.00371632
0.00371929
0.00372212
0.00372481
0.00372737
0.00372978
0.00373207
0.00373422
0.00373625
0.00373816
0.00373995
0.00374164
0.00374322
0.0037447
0.00374607
0.00374737
0.00374851
0.00158937
0.00236976
0.00321597
0.00375925
0.00409611
0.00431115
0.00445416
0.00455315
0.0046241
0.00467645
0.004716
0.00474639
0.00476975
0.00478715
0.00479889
0.00480497
0.00480558
0.00480154
0.0047943
0.00478579
0.00477792
0.00477221
0.00476957
0.00477022
0.00477383
0.0047797
0.00478702
0.004795
0.00480293
0.00481031
0.00481676
0.00482209
0.00482618
0.00482901
0.00483062
0.00483112
0.00483059
0.00482913
0.00482686
0.0048239
0.00482034
0.00481627
0.00481179
0.00480701
0.00480198
0.00479677
0.00479143
0.00478602
0.00478057
0.00477514
0.00476974
0.00476444
0.00475924
0.00475416
0.00474922
0.00474447
0.0047399
0.00473555
0.00473142
0.00472755
0.00472393
0.00472059
0.00471753
0.00471479
0.00471235
0.00471025
0.00470849
0.0047071
0.00470607
0.00470541
0.00470514
0.00470527
0.0047058
0.00470673
0.00470808
0.00470985
0.00471204
0.00471463
0.00471762
0.00472102
0.00472481
0.00472896
0.00473346
0.00473831
0.00474346
0.00474887
0.00475453
0.00476041
0.00476646
0.00477266
0.00477895
0.00478534
0.00479176
0.00479818
0.00480456
0.00481089
0.00481714
0.00482328
0.00482928
0.00483514
0.00484084
0.00484635
0.00485166
0.00485678
0.00486169
0.00486639
0.00487088
0.00487516
0.00487923
0.00488309
0.00488674
0.0048902
0.00489345
0.00489653
0.00489941
0.00490213
0.00490468
0.00490707
0.00490931
0.0049114
0.00491336
0.00491509
0.00212976
0.0025187
0.00352584
0.00427895
0.00478637
0.00512985
0.00536876
0.00554027
0.0056671
0.0057634
0.00583817
0.00589721
0.00594408
0.00598075
0.006008
0.00602617
0.00603579
0.00603816
0.00603546
0.00603046
0.00602593
0.0060241
0.00602632
0.00603296
0.00604361
0.00605731
0.00607291
0.00608926
0.00610535
0.0061204
0.00613386
0.00614543
0.00615492
0.00616232
0.00616766
0.00617112
0.00617282
0.00617293
0.00617163
0.00616912
0.00616553
0.00616103
0.00615577
0.00614991
0.00614356
0.00613681
0.00612977
0.00612253
0.00611516
0.00610772
0.00610027
0.00609289
0.00608561
0.00607846
0.00607149
0.00606474
0.00605824
0.00605203
0.00604611
0.00604057
0.00603538
0.00603059
0.0060262
0.00602226
0.00601878
0.00601578
0.00601327
0.0060113
0.00600987
0.00600898
0.00600865
0.00600891
0.00600974
0.00601118
0.0060132
0.00601584
0.00601907
0.00602289
0.00602728
0.00603225
0.00603777
0.00604381
0.00605035
0.00605737
0.00606481
0.00607264
0.0060808
0.00608928
0.006098
0.00610692
0.00611598
0.00612516
0.00613438
0.00614361
0.00615279
0.0061619
0.00617088
0.0061797
0.00618833
0.00619676
0.00620495
0.00621288
0.00622053
0.0062279
0.00623498
0.00624175
0.00624821
0.00625438
0.00626025
0.00626582
0.00627109
0.00627607
0.00628078
0.00628522
0.00628939
0.00629332
0.006297
0.00630046
0.00630369
0.00630671
0.00630955
0.00631205
0.00315409
0.00268382
0.00372394
0.00468587
0.00539545
0.00590418
0.00627316
0.00654672
0.0067544
0.00691562
0.00704328
0.00714596
0.00722919
0.00729618
0.00734857
0.00738723
0.00741321
0.00742843
0.00743595
0.00743953
0.00744298
0.00744941
0.00746076
0.00747772
0.00749985
0.00752595
0.0075545
0.00758395
0.00761287
0.00764016
0.00766502
0.00768696
0.00770572
0.00772122
0.00773354
0.00774286
0.0077494
0.0077534
0.0077551
0.0077548
0.00775273
0.00774912
0.00774418
0.00773818
0.00773128
0.00772365
0.00771542
0.00770676
0.00769777
0.00768857
0.00767923
0.00766989
0.00766059
0.00765141
0.0076424
0.00763364
0.00762518
0.00761707
0.00760933
0.00760207
0.0075953
0.00758904
0.00758333
0.00757823
0.00757376
0.00756995
0.00756681
0.00756441
0.00756275
0.00756186
0.00756172
0.00756239
0.00756387
0.00756616
0.00756925
0.00757318
0.00757792
0.00758347
0.00758978
0.00759687
0.0076047
0.00761324
0.00762243
0.00763227
0.00764268
0.00765361
0.00766497
0.00767675
0.00768886
0.00770124
0.00771379
0.0077265
0.00773927
0.00775205
0.00776474
0.00777734
0.00778976
0.00780198
0.00781391
0.00782558
0.00783692
0.0078479
0.00785849
0.00786871
0.00787852
0.00788791
0.00789687
0.00790544
0.00791358
0.00792132
0.00792864
0.00793557
0.00794211
0.00794828
0.00795409
0.00795955
0.00796469
0.0079695
0.00797401
0.00797821
0.00798216
0.00798566
0.00493179
0.00302612
0.00383371
0.00494837
0.00587411
0.00658122
0.00711656
0.00752629
0.00784516
0.00809773
0.00830116
0.00846731
0.00860411
0.00871653
0.00880738
0.00887839
0.00893129
0.00896883
0.00899498
0.00901469
0.00903291
0.00905385
0.00908028
0.00911336
0.0091528
0.00919726
0.00924483
0.00929355
0.00934152
0.00938721
0.00942948
0.00946761
0.00950116
0.00953
0.00955414
0.00957383
0.00958933
0.00960096
0.00960907
0.00961406
0.00961627
0.009616
0.00961358
0.00960938
0.00960364
0.00959663
0.00958853
0.00957961
0.00957002
0.00955994
0.00954948
0.00953884
0.00952812
0.00951742
0.00950682
0.00949645
0.00948639
0.00947672
0.00946747
0.00945879
0.0094507
0.00944327
0.00943652
0.00943055
0.00942539
0.00942109
0.00941766
0.00941519
0.00941369
0.00941319
0.00941368
0.00941523
0.00941782
0.00942149
0.00942618
0.00943197
0.00943881
0.00944669
0.00945555
0.00946542
0.00947624
0.00948797
0.00950051
0.0095139
0.00952801
0.00954278
0.00955811
0.00957397
0.00959024
0.00960686
0.00962369
0.00964071
0.00965782
0.00967492
0.00969191
0.00970877
0.0097254
0.00974175
0.00975773
0.00977335
0.00978853
0.00980325
0.00981745
0.00983115
0.0098443
0.00985692
0.00986895
0.00988045
0.0098914
0.0099018
0.00991164
0.00992097
0.00992978
0.0099381
0.00994592
0.00995329
0.00996021
0.0099667
0.00997279
0.00997847
0.0099838
0.00998853
0.00765444
0.00384128
0.00395991
0.00506373
0.00617758
0.00710155
0.00783618
0.008418
0.00888259
0.00925813
0.00956564
0.00982039
0.0100331
0.0102108
0.010358
0.0104774
0.0105718
0.0106448
0.0107015
0.010748
0.0107905
0.0108347
0.0108842
0.010941
0.0110052
0.0110755
0.0111498
0.0112256
0.0113005
0.0113726
0.0114402
0.0115023
0.0115583
0.0116077
0.0116506
0.0116871
0.0117177
0.0117427
0.0117625
0.0117776
0.0117885
0.0117957
0.0117995
0.0118005
0.011799
0.0117954
0.01179
0.0117831
0.011775
0.0117659
0.011756
0.0117456
0.0117349
0.011724
0.0117129
0.011702
0.0116914
0.0116811
0.0116712
0.0116619
0.0116533
0.0116454
0.0116383
0.0116322
0.011627
0.0116229
0.0116198
0.011618
0.0116173
0.0116179
0.0116196
0.0116228
0.0116272
0.0116329
0.0116399
0.0116483
0.011658
0.011669
0.0116811
0.0116945
0.0117091
0.0117248
0.0117415
0.0117592
0.0117778
0.0117972
0.0118173
0.0118381
0.0118593
0.011881
0.0119029
0.0119251
0.0119473
0.0119696
0.0119916
0.0120136
0.0120352
0.0120564
0.0120772
0.0120975
0.0121172
0.0121364
0.0121549
0.0121727
0.0121899
0.0122063
0.012222
0.012237
0.0122513
0.0122649
0.0122778
0.0122899
0.0123015
0.0123124
0.0123226
0.0123323
0.0123413
0.0123498
0.0123578
0.0123653
0.0123723
0.0123785
0.0113266
0.005518
0.00435849
0.00510581
0.0062886
0.00740985
0.00836177
0.00914721
0.0097929
0.0103265
0.0107711
0.0111449
0.0114612
0.0117295
0.0119559
0.0121447
0.0122999
0.0124261
0.0125294
0.0126171
0.012697
0.012776
0.0128592
0.0129497
0.0130482
0.0131537
0.0132641
0.0133765
0.0134883
0.0135967
0.0136997
0.0137959
0.013884
0.0139637
0.0140347
0.0140972
0.0141514
0.0141978
0.0142369
0.0142694
0.0142958
0.0143166
0.0143325
0.0143441
0.0143518
0.0143562
0.0143577
0.0143567
0.0143537
0.014349
0.0143427
0.0143354
0.0143273
0.0143186
0.0143094
0.0143001
0.0142907
0.0142816
0.0142728
0.0142645
0.0142568
0.01425
0.0142439
0.0142389
0.014235
0.0142322
0.0142307
0.0142306
0.0142318
0.0142345
0.0142387
0.0142444
0.0142516
0.0142604
0.0142708
0.0142827
0.0142961
0.0143111
0.0143275
0.0143454
0.0143646
0.0143851
0.0144068
0.0144298
0.0144537
0.0144786
0.0145044
0.0145308
0.0145579
0.0145854
0.0146133
0.0146414
0.0146695
0.0146977
0.0147257
0.0147534
0.0147808
0.0148077
0.014834
0.0148597
0.0148847
0.014909
0.0149324
0.0149551
0.0149768
0.0149977
0.0150176
0.0150367
0.0150548
0.0150721
0.0150885
0.015104
0.0151187
0.0151325
0.0151456
0.0151579
0.0151695
0.0151803
0.0151905
0.0152001
0.015209
0.015217
0.0157247
0.00834365
0.00547913
0.00531276
0.00627172
0.0074829
0.00862986
0.00963257
0.0104879
0.0112136
0.0118306
0.0123577
0.0128102
0.0131994
0.0135334
0.0138181
0.0140586
0.0142607
0.0144315
0.0145797
0.0147142
0.0148436
0.0149745
0.0151114
0.0152561
0.0154083
0.0155662
0.0157269
0.0158872
0.016044
0.0161947
0.0163373
0.0164702
0.0165926
0.0167038
0.016804
0.0168934
0.0169723
0.0170413
0.0171011
0.0171525
0.0171961
0.0172325
0.0172626
0.0172871
0.0173065
0.0173215
0.0173326
0.0173404
0.0173453
0.0173477
0.0173482
0.017347
0.0173445
0.0173409
0.0173367
0.0173321
0.0173272
0.0173224
0.0173179
0.0173138
0.0173103
0.0173077
0.017306
0.0173054
0.017306
0.0173079
0.0173113
0.0173162
0.0173227
0.0173308
0.0173406
0.0173521
0.0173654
0.0173804
0.0173971
0.0174156
0.0174358
0.0174576
0.017481
0.017506
0.0175325
0.0175603
0.0175894
0.0176197
0.017651
0.0176833
0.0177164
0.0177501
0.0177844
0.017819
0.0178538
0.0178888
0.0179237
0.0179583
0.0179926
0.0180265
0.0180597
0.0180923
0.0181241
0.018155
0.018185
0.018214
0.018242
0.0182689
0.0182947
0.0183194
0.018343
0.0183655
0.0183869
0.0184072
0.0184265
0.0184447
0.0184619
0.0184781
0.0184934
0.0185078
0.0185213
0.0185339
0.0185458
0.0185569
0.0185668
0.0204365
0.0122987
0.00781871
0.00617628
0.00638135
0.00739752
0.00862156
0.00980692
0.0108764
0.011817
0.0126375
0.0133524
0.0139761
0.0145205
0.0149951
0.0154071
0.0157627
0.0160688
0.0163335
0.0165664
0.0167779
0.0169777
0.0171745
0.0173741
0.0175801
0.0177933
0.0180125
0.0182351
0.0184579
0.0186774
0.0188904
0.0190943
0.019287
0.0194672
0.0196339
0.0197868
0.019926
0.0200518
0.0201647
0.0202654
0.0203547
0.0204334
0.0205022
0.020562
0.0206138
0.0206584
0.0206963
0.0207285
0.0207556
0.0207782
0.0207968
0.0208121
0.0208245
0.0208345
0.0208425
0.020849
0.0208543
0.0208587
0.0208625
0.0208661
0.0208697
0.0208736
0.020878
0.0208831
0.0208891
0.0208963
0.0209045
0.0209142
0.0209254
0.0209382
0.0209527
0.0209689
0.0209868
0.0210067
0.0210282
0.0210517
0.021077
0.0211041
0.0211329
0.0211635
0.0211956
0.0212294
0.0212645
0.0213011
0.0213389
0.0213778
0.0214177
0.0214585
0.0214999
0.0215419
0.0215842
0.0216267
0.0216692
0.0217116
0.0217537
0.0217953
0.0218363
0.0218767
0.0219161
0.0219545
0.021992
0.0220283
0.0220633
0.0220972
0.0221297
0.0221609
0.0221908
0.0222193
0.0222465
0.0222724
0.0222969
0.0223201
0.0223422
0.022363
0.0223826
0.0224011
0.0224184
0.0224348
0.0224501
0.0224645
0.022478
0.0224899
0.0249659
0.0170289
0.0115589
0.00833433
0.00718513
0.0074684
0.00845509
0.00967302
0.0108975
0.012041
0.0130774
0.014005
0.0148311
0.0155649
0.0162151
0.0167892
0.0172941
0.0177372
0.0181272
0.0184745
0.0187904
0.0190861
0.0193716
0.019655
0.0199413
0.020233
0.0205301
0.0208309
0.0211324
0.0214309
0.021723
0.0220055
0.0222758
0.0225318
0.0227722
0.0229961
0.0232034
0.023394
0.0235684
0.0237272
0.0238711
0.0240011
0.024118
0.0242228
0.0243163
0.0243998
0.024474
0.0245398
0.0245982
0.0246498
0.0246954
0.0247357
0.0247715
0.0248033
0.0248316
0.024857
0.02488
0.024901
0.0249205
0.0249388
0.0249564
0.0249736
0.0249907
0.0250079
0.0250256
0.025044
0.0250631
0.0250834
0.0251049
0.0251278
0.0251522
0.0251782
0.0252059
0.0252353
0.0252664
0.0252993
0.025334
0.0253705
0.0254086
0.0254484
0.0254899
0.0255329
0.0255772
0.025623
0.02567
0.0257181
0.025767
0.0258168
0.0258673
0.0259182
0.0259692
0.0260204
0.0260715
0.0261224
0.0261728
0.0262225
0.0262715
0.0263195
0.0263664
0.0264122
0.0264566
0.0264997
0.0265412
0.0265813
0.0266198
0.0266567
0.026692
0.0267256
0.0267577
0.0267882
0.0268171
0.0268445
0.0268704
0.0268949
0.026918
0.0269397
0.0269601
0.0269794
0.0269974
0.0270143
0.0270302
0.0270441
0.0288721
0.0219726
0.0163571
0.0121025
0.00944198
0.00839314
0.00856602
0.00943692
0.0106073
0.0118516
0.0130627
0.0141963
0.0152376
0.0161847
0.0170407
0.0178104
0.0184995
0.019115
0.0196654
0.0201611
0.0206139
0.021036
0.0214386
0.0218314
0.0222216
0.0226136
0.0230089
0.0234072
0.0238061
0.0242025
0.0245928
0.0249734
0.0253413
0.0256937
0.0260288
0.0263451
0.0266419
0.0269189
0.0271763
0.0274144
0.027634
0.0278358
0.0280207
0.0281898
0.028344
0.0284846
0.0286125
0.0287288
0.0288346
0.0289308
0.0290182
0.0290978
0.0291705
0.0292369
0.0292978
0.0293539
0.0294058
0.0294541
0.0294993
0.029542
0.0295828
0.0296219
0.0296599
0.0296971
0.0297338
0.0297705
0.0298072
0.0298445
0.0298823
0.0299211
0.0299608
0.0300017
0.0300439
0.0300875
0.0301325
0.0301789
0.0302269
0.0302764
0.0303274
0.0303798
0.0304337
0.0304888
0.0305452
0.0306027
0.0306613
0.0307209
0.0307811
0.0308419
0.0309032
0.0309648
0.0310263
0.0310877
0.0311488
0.0312093
0.0312691
0.031328
0.0313859
0.0314425
0.0314976
0.0315512
0.0316032
0.0316535
0.0317019
0.0317485
0.0317931
0.0318359
0.0318767
0.0319155
0.0319525
0.0319876
0.0320208
0.0320522
0.0320819
0.0321099
0.0321363
0.0321611
0.0321844
0.0322063
0.0322269
0.032246
0.0322641
0.0322799
0.0318859
0.0265353
0.0215161
0.017087
0.0134891
0.0110288
0.00983779
0.00973792
0.0103767
0.0114181
0.0126295
0.0138771
0.0150922
0.0162419
0.017312
0.0182974
0.0191982
0.0200178
0.0207628
0.0214421
0.0220668
0.0226493
0.0232014
0.0237343
0.0242566
0.0247749
0.0252926
0.0258109
0.0263291
0.0268447
0.0273544
0.0278549
0.0283425
0.0288143
0.0292674
0.0297002
0.0301112
0.0304995
0.0308649
0.0312075
0.0315277
0.0318261
0.0321036
0.032361
0.0325996
0.0328203
0.0330242
0.0332128
0.033387
0.0335481
0.0336969
0.0338347
0.0339624
0.034081
0.0341912
0.034294
0.0343902
0.0344806
0.0345657
0.0346463
0.034723
0.0347964
0.034867
0.0349354
0.0350019
0.035067
0.035131
0.0351944
0.0352574
0.0353203
0.0353834
0.0354468
0.0355107
0.0355753
0.0356407
0.0357069
0.035774
0.0358422
0.0359112
0.0359813
0.0360523
0.0361241
0.0361968
0.0362701
0.0363441
0.0364187
0.0364935
0.0365685
0.0366436
0.0367185
0.036793
0.0368669
0.0369401
0.0370123
0.0370833
0.0371529
0.037221
0.0372874
0.0373518
0.0374142
0.0374744
0.0375325
0.0375883
0.0376417
0.0376928
0.0377415
0.0377878
0.0378318
0.0378734
0.0379129
0.0379501
0.0379852
0.0380183
0.0380494
0.0380786
0.038106
0.0381317
0.0381558
0.0381784
0.0381994
0.0382192
0.0382363
0.0339568
0.0302574
0.0262963
0.0224016
0.0187492
0.0155655
0.0131347
0.0116599
0.0111401
0.0113925
0.0121664
0.0132378
0.0144471
0.015695
0.0169239
0.0181021
0.0192128
0.020249
0.02121
0.0221004
0.0229282
0.0237038
0.0244387
0.025144
0.0258297
0.0265036
0.0271713
0.0278357
0.0284976
0.0291561
0.0298088
0.0304525
0.0310838
0.0316993
0.032296
0.0328714
0.0334234
0.0339507
0.0344523
0.0349279
0.0353775
0.0358014
0.0362002
0.0365746
0.0369258
0.0372547
0.0375624
0.03785
0.038119
0.0383705
0.0386058
0.038826
0.0390323
0.0392257
0.0394073
0.0395782
0.0397392
0.0398913
0.0400353
0.0401721
0.0403024
0.040427
0.0405464
0.0406615
0.0407727
0.0408806
0.0409855
0.0410882
0.0411889
0.041288
0.0413858
0.0414826
0.0415788
0.0416745
0.0417697
0.0418648
0.0419599
0.042055
0.0421501
0.0422454
0.0423407
0.0424362
0.0425316
0.0426271
0.0427224
0.0428175
0.0429122
0.0430064
0.0430999
0.0431926
0.0432841
0.0433743
0.0434631
0.0435501
0.0436352
0.0437181
0.0437988
0.0438769
0.0439524
0.0440251
0.044095
0.0441619
0.0442258
0.0442867
0.0443446
0.0443995
0.0444513
0.0445003
0.0445465
0.0445899
0.0446307
0.044669
0.0447048
0.0447384
0.0447697
0.0447989
0.0448262
0.0448517
0.0448754
0.0448975
0.0449181
0.0449357
0.0352156
0.0329264
0.0301547
0.0271691
0.0241077
0.0210827
0.0182536
0.0158399
0.0140583
0.0130303
0.012737
0.0130508
0.0138005
0.0148244
0.015996
0.017228
0.0184642
0.0196701
0.0208269
0.021926
0.022967
0.0239542
0.0248955
0.0258
0.0266771
0.027535
0.0283803
0.0292175
0.0300491
0.0308754
0.0316953
0.0325066
0.0333062
0.0340908
0.0348571
0.0356023
0.0363235
0.037019
0.0376869
0.0383265
0.0389372
0.0395187
0.0400713
0.0405954
0.0410919
0.0415615
0.0420054
0.0424245
0.0428201
0.0431933
0.0435455
0.0438781
0.0441923
0.0444892
0.0447701
0.0450361
0.0452884
0.0455279
0.0457556
0.0459725
0.0461797
0.0463779
0.0465679
0.0467506
0.0469267
0.0470969
0.0472616
0.0474216
0.0475774
0.0477294
0.0478781
0.048024
0.0481672
0.0483083
0.0484472
0.0485845
0.0487201
0.0488544
0.0489872
0.0491189
0.0492494
0.0493788
0.0495069
0.0496338
0.0497594
0.0498837
0.0500064
0.0501276
0.0502468
0.0503641
0.0504791
0.0505917
0.0507017
0.0508087
0.0509127
0.0510133
0.0511105
0.0512041
0.0512938
0.0513796
0.0514614
0.0515392
0.051613
0.0516827
0.0517484
0.0518102
0.0518682
0.0519224
0.0519731
0.0520204
0.0520643
0.0521052
0.0521431
0.0521783
0.0522108
0.052241
0.0522688
0.0522945
0.0523183
0.0523403
0.0523607
0.0523775
0.0358864
0.034593
0.0328633
0.0308401
0.0286212
0.0262673
0.0238356
0.0214142
0.0191383
0.0171785
0.0156956
0.0147878
0.0144645
0.0146591
0.0152618
0.0161534
0.0172277
0.0184019
0.0196174
0.020836
0.0220354
0.0232044
0.02434
0.0254439
0.026521
0.0275771
0.0286176
0.0296472
0.0306689
0.0316841
0.0326929
0.0336938
0.0346844
0.0356617
0.0366224
0.0375633
0.0384813
0.0393738
0.0402385
0.0410737
0.0418782
0.0426513
0.0433924
0.0441017
0.0447795
0.0454262
0.0460427
0.0466299
0.0471887
0.0477203
0.0482257
0.0487063
0.0491635
0.0495986
0.0500129
0.0504074
0.0507836
0.0511425
0.0514852
0.0518128
0.0521266
0.0524273
0.0527161
0.0529938
0.0532613
0.0535195
0.0537689
0.0540105
0.0542448
0.0544725
0.0546941
0.0549101
0.0551211
0.0553273
0.0555292
0.0557271
0.0559213
0.056112
0.0562994
0.0564836
0.0566648
0.056843
0.0570182
0.0571904
0.0573597
0.0575259
0.0576889
0.0578486
0.0580048
0.0581573
0.0583058
0.0584502
0.0585903
0.0587258
0.0588563
0.0589819
0.0591023
0.0592173
0.0593267
0.0594306
0.0595288
0.0596214
0.0597083
0.0597898
0.0598657
0.0599365
0.060002
0.0600627
0.0601187
0.0601702
0.0602175
0.0602609
0.0603006
0.0603368
0.0603699
0.0603999
0.0604273
0.0604522
0.0604749
0.0604954
0.0605142
0.060529
0.0361963
0.0354884
0.0345011
0.0332717
0.0318468
0.0302604
0.028535
0.0266915
0.0247638
0.0228122
0.0209306
0.0192397
0.0178634
0.0168978
0.0163877
0.0163232
0.016651
0.0172942
0.0181704
0.0192046
0.0203368
0.0215237
0.0227368
0.0239589
0.0251813
0.0264003
0.0276152
0.0288266
0.0300354
0.0312421
0.0324463
0.0336467
0.0348409
0.036026
0.0371986
0.0383551
0.0394921
0.0406061
0.0416943
0.0427541
0.0437834
0.0447807
0.0457448
0.0466751
0.0475712
0.0484331
0.0492611
0.0500558
0.0508177
0.051548
0.0522473
0.0529168
0.0535576
0.054171
0.0547582
0.0553208
0.0558598
0.0563765
0.0568721
0.0573477
0.0578045
0.0582437
0.0586663
0.0590734
0.059466
0.059845
0.0602113
0.0605657
0.0609091
0.0612421
0.0615655
0.0618799
0.0621859
0.0624841
0.0627748
0.0630586
0.0633357
0.0636066
0.0638715
0.0641306
0.0643842
0.0646323
0.0648749
0.0651122
0.0653441
0.0655706
0.0657915
0.0660068
0.0662163
0.0664197
0.0666167
0.0668072
0.066991
0.0671677
0.067337
0.0674989
0.0676531
0.0677994
0.0679377
0.068068
0.0681903
0.0683046
0.068411
0.0685097
0.0686009
0.0686848
0.0687616
0.0688318
0.0688957
0.0689536
0.0690059
0.0690529
0.0690951
0.0691329
0.0691666
0.0691965
0.0692231
0.0692466
0.0692673
0.0692855
0.0693018
0.0693134
0.0363185
0.0358963
0.035342
0.0346443
0.0338099
0.0328501
0.0317744
0.030588
0.0292941
0.027898
0.0264143
0.0248737
0.023329
0.0218547
0.0205392
0.0194693
0.0187117
0.0183014
0.0182392
0.0184972
0.0190301
0.0197849
0.0207103
0.0217616
0.0229037
0.024111
0.0253657
0.026656
0.0279738
0.0293133
0.0306695
0.032038
0.0334143
0.0347938
0.0361718
0.0375436
0.0389044
0.0402499
0.0415759
0.0428786
0.0441547
0.0454016
0.0466171
0.0477994
0.0489473
0.05006
0.051137
0.0521782
0.0531836
0.0541538
0.0550892
0.0559907
0.0568589
0.0576951
0.0585
0.0592747
0.0600206
0.0607391
0.0614311
0.0620981
0.062741
0.0633612
0.0639596
0.0645376
0.0650961
0.0656361
0.0661587
0.0666648
0.0671554
0.0676312
0.068093
0.0685417
0.0689779
0.0694024
0.0698155
0.070218
0.0706103
0.0709928
0.0713658
0.0717297
0.0720847
0.072431
0.0727687
0.0730979
0.0734186
0.0737308
0.0740343
0.074329
0.0746148
0.0748913
0.0751583
0.0754156
0.0756627
0.0758996
0.0761257
0.0763411
0.0765453
0.0767383
0.0769199
0.0770902
0.0772491
0.0773969
0.0775335
0.0776594
0.0777749
0.0778802
0.0779758
0.0780622
0.0781398
0.0782093
0.0782711
0.0783259
0.078374
0.0784162
0.0784528
0.0784845
0.0785118
0.078535
0.0785546
0.078571
0.078585
0.0785935
0.0363591
0.0360515
0.0357024
0.0352937
0.0348162
0.0342669
0.0336458
0.0329533
0.032189
0.0313504
0.0304343
0.0294383
0.0283638
0.0272194
0.0260255
0.0248165
0.0236413
0.0225587
0.0216298
0.020908
0.0204313
0.0202188
0.020271
0.0205736
0.0211027
0.0218294
0.0227241
0.0237588
0.0249089
0.0261534
0.027475
0.0288591
0.0302936
0.0317677
0.0332717
0.0347968
0.0363346
0.0378772
0.0394175
0.0409492
0.0424667
0.0439652
0.0454404
0.046889
0.0483081
0.0496953
0.051049
0.0523677
0.0536506
0.0548973
0.0561076
0.0572815
0.0584194
0.0595218
0.0605893
0.0616226
0.0626226
0.06359
0.064526
0.0654316
0.0663083
0.067157
0.0679789
0.068775
0.0695465
0.0702944
0.0710197
0.0717234
0.0724065
0.0730699
0.0737146
0.0743412
0.0749508
0.0755439
0.0761213
0.0766836
0.0772314
0.0777652
0.0782853
0.0787922
0.0792861
0.0797674
0.0802361
0.0806923
0.0811362
0.0815676
0.0819864
0.0823925
0.0827857
0.0831656
0.0835319
0.0838843
0.0842224
0.084546
0.0848546
0.085148
0.0854259
0.0856883
0.0859349
0.0861657
0.0863809
0.0865806
0.0867651
0.0869347
0.0870899
0.0872311
0.087359
0.0874742
0.0875773
0.0876692
0.0877504
0.0878219
0.0878843
0.0879383
0.0879848
0.0880244
0.0880578
0.0880857
0.0881087
0.0881272
0.0881423
0.0881508
0.0363702
0.0360998
0.0358287
0.035546
0.0352425
0.0349115
0.0345487