/*--------------------------------*- C++ -*----------------------------------*\
  =========                 |
  \\      /  F ield         | OpenFOAM: The Open Source CFD Toolbox
   \\    /   O peration     | Website:  https://openfoam.org
    \\  /    A nd           | Version:  8
     \\/     M anipulation  |
\*---------------------------------------------------------------------------*/
FoamFile
{
    version     2.0;
    format      ascii;
    class       volScalarField;
    location    "400";
    object      p;
}
// * * * * * * * * * * * * * * * * * * * * * * * * * * * * * * * * * * * * * //

dimensions      [0 2 -2 0 0 0 0];

internalField   nonuniform List<scalar> 
7320
(
150.22
144.364
142.453
140.669
138.96
137.264
135.6
133.976
132.383
130.817
129.273
127.749
126.244
124.756
123.286
121.834
120.404
118.997
117.614
116.255
114.916
113.595
112.287
110.986
109.689
108.393
107.095
105.795
104.492
103.187
101.879
100.57
99.2615
97.953
96.6465
95.3418
94.0409
92.7441
91.4525
90.1659
88.8857
87.6118
86.3452
85.085
83.8328
82.5882
81.3519
80.123
78.9028
77.6906
76.4872
75.2912
74.104
72.9249
71.7545
70.5915
69.437
68.2903
67.1518
66.0201
64.8964
63.7799
62.671
61.5683
60.4729
59.3838
58.3014
57.2242
56.1534
55.088
54.0283
52.9731
51.9231
50.8776
49.8368
48.7992
47.7659
46.736
45.7098
44.686
43.6654
42.6471
41.6315
40.6169
39.6044
38.5931
37.5833
36.5735
35.5644
34.5553
33.5462
32.5356
31.5244
30.5116
29.4974
28.4805
27.4616
26.4396
25.415
24.3861
23.3539
22.3175
21.2772
20.2319
19.1823
18.1278
17.0686
16.0038
14.9342
13.8592
12.7794
11.694
10.6037
9.50823
8.40784
7.30236
6.1921
5.07716
3.95747
2.83398
1.7045
0.582932
149.422
144.351
142.454
140.669
138.96
137.264
135.6
133.976
132.384
130.817
129.273
127.749
126.244
124.756
123.286
121.834
120.404
118.997
117.614
116.255
114.916
113.595
112.287
110.986
109.689
108.393
107.095
105.795
104.492
103.187
101.879
100.57
99.2615
97.953
96.6465
95.3418
94.0409
92.7441
91.4525
90.1659
88.8857
87.6118
86.3452
85.085
83.8328
82.5882
81.3519
80.123
78.9028
77.6906
76.4872
75.2912
74.104
72.9249
71.7544
70.5915
69.437
68.2903
67.1518
66.0201
64.8964
63.7799
62.671
61.5683
60.4729
59.3838
58.3014
57.2242
56.1534
55.088
54.0283
52.9731
51.9231
50.8776
49.8368
48.7992
47.7659
46.736
45.7098
44.686
43.6654
42.6471
41.6315
40.6169
39.6044
38.5931
37.5833
36.5734
35.5644
34.5553
33.5462
32.5356
31.5244
30.5116
29.4974
28.4805
27.4616
26.4396
25.415
24.3861
23.3538
22.3175
21.2772
20.2319
19.1823
18.1278
17.0686
16.0038
14.9342
13.8592
12.7794
11.694
10.6037
9.50823
8.40783
7.30236
6.1921
5.07715
3.95747
2.83398
1.7045
0.582931
149.217
144.356
142.455
140.67
138.96
137.264
135.6
133.976
132.384
130.817
129.273
127.749
126.244
124.756
123.286
121.834
120.404
118.997
117.614
116.255
114.916
113.595
112.287
110.986
109.689
108.393
107.095
105.795
104.492
103.187
101.879
100.57
99.2615
97.953
96.6465
95.3418
94.0409
92.7441
91.4526
90.1659
88.8857
87.6118
86.3452
85.085
83.8328
82.5881
81.3519
80.123
78.9028
77.6906
76.4872
75.2912
74.104
72.9249
71.7544
70.5915
69.437
68.2903
67.1518
66.0201
64.8964
63.7799
62.671
61.5683
60.4728
59.3837
58.3014
57.2242
56.1534
55.0879
54.0283
52.973
51.9231
50.8776
49.8368
48.7992
47.7659
46.736
45.7098
44.686
43.6654
42.6471
41.6315
40.6169
39.6044
38.5931
37.5833
36.5734
35.5644
34.5552
33.5462
32.5355
31.5243
30.5116
29.4974
28.4805
27.4616
26.4396
25.415
24.3861
23.3538
22.3174
21.2772
20.2319
19.1823
18.1278
17.0686
16.0038
14.9342
13.8592
12.7794
11.694
10.6037
9.50822
8.40783
7.30236
6.19209
5.07715
3.95747
2.83398
1.7045
0.58293
149.203
144.363
142.457
140.671
138.961
137.265
135.601
133.976
132.384
130.818
129.274
127.75
126.244
124.756
123.286
121.835
120.404
118.997
117.614
116.255
114.916
113.595
112.287
110.986
109.689
108.393
107.095
105.795
104.492
103.187
101.88
100.57
99.2615
97.953
96.6465
95.3418
94.0409
92.7441
91.4526
90.1659
88.8857
87.6118
86.3452
85.085
83.8328
82.5881
81.3519
80.123
78.9028
77.6906
76.4872
75.2912
74.104
72.9249
71.7544
70.5914
69.437
68.2903
67.1518
66.0201
64.8964
63.7799
62.6709
61.5683
60.4728
59.3837
58.3014
57.2242
56.1534
55.0879
54.0283
52.973
51.9231
50.8775
49.8368
48.7992
47.7659
46.736
45.7098
44.686
43.6654
42.6471
41.6314
40.6169
39.6044
38.5931
37.5832
36.5734
35.5644
34.5552
33.5462
32.5355
31.5243
30.5115
29.4974
28.4805
27.4616
26.4396
25.415
24.386
23.3538
22.3174
21.2772
20.2319
19.1823
18.1278
17.0686
16.0038
14.9342
13.8592
12.7794
11.694
10.6037
9.50822
8.40783
7.30235
6.19209
5.07715
3.95747
2.83398
1.70449
0.582928
149.176
144.367
142.459
140.672
138.962
137.266
135.601
133.977
132.384
130.818
129.274
127.75
126.244
124.756
123.286
121.835
120.404
118.997
117.615
116.255
114.917
113.595
112.287
110.986
109.689
108.393
107.095
105.795
104.492
103.187
101.88
100.57
99.2615
97.953
96.6466
95.3418
94.041
92.7441
91.4526
90.1659
88.8857
87.6118
86.3452
85.085
83.8328
82.5881
81.3518
80.123
78.9027
77.6906
76.4872
75.2912
74.104
72.9249
71.7544
70.5914
69.4369
68.2902
67.1518
66.0201
64.8964
63.7799
62.6709
61.5683
60.4728
59.3837
58.3014
57.2242
56.1533
55.0879
54.0282
52.973
51.9231
50.8775
49.8368
48.7992
47.7659
46.736
45.7098
44.686
43.6654
42.6471
41.6314
40.6168
39.6044
38.5931
37.5832
36.5734
35.5644
34.5552
33.5461
32.5355
31.5243
30.5115
29.4974
28.4805
27.4616
26.4396
25.415
24.386
23.3538
22.3174
21.2772
20.2319
19.1823
18.1277
17.0686
16.0038
14.9341
13.8592
12.7794
11.694
10.6037
9.50822
8.40782
7.30235
6.19209
5.07715
3.95746
2.83397
1.70449
0.582927
149.134
144.372
142.461
140.673
138.963
137.266
135.602
133.977
132.385
130.818
129.274
127.75
126.245
124.757
123.286
121.835
120.405
118.997
117.615
116.255
114.917
113.595
112.287
110.986
109.689
108.393
107.095
105.795
104.492
103.187
101.88
100.571
99.2615
97.953
96.6466
95.3419
94.041
92.7441
91.4526
90.1659
88.8857
87.6118
86.3452
85.085
83.8328
82.5881
81.3518
80.123
78.9027
77.6906
76.4872
75.2911
74.1039
72.9248
71.7544
70.5914
69.4369
68.2902
67.1518
66.02
64.8964
63.7798
62.6709
61.5682
60.4728
59.3837
58.3013
57.2241
56.1533
55.0879
54.0282
52.973
51.923
50.8775
49.8367
48.7991
47.7658
46.7359
45.7097
44.6859
43.6653
42.647
41.6314
40.6168
39.6044
38.5931
37.5832
36.5734
35.5644
34.5552
33.5461
32.5355
31.5243
30.5115
29.4974
28.4805
27.4615
26.4396
25.4149
24.386
23.3538
22.3174
21.2772
20.2319
19.1823
18.1277
17.0686
16.0038
14.9341
13.8592
12.7794
11.694
10.6037
9.50821
8.40782
7.30234
6.19208
5.07714
3.95746
2.83397
1.70449
0.582924
149.099
144.376
142.464
140.675
138.964
137.267
135.603
133.978
132.385
130.819
129.275
127.75
126.245
124.757
123.287
121.835
120.405
118.998
117.615
116.255
114.917
113.595
112.287
110.986
109.689
108.393
107.095
105.795
104.492
103.187
101.88
100.571
99.2616
97.9531
96.6466
95.3419
94.041
92.7441
91.4526
90.1659
88.8857
87.6118
86.3452
85.085
83.8327
82.5881
81.3518
80.1229
78.9027
77.6905
76.4871
75.2911
74.1039
72.9248
71.7543
70.5914
69.4369
68.2902
67.1517
66.02
64.8963
63.7798
62.6708
61.5682
60.4727
59.3836
58.3013
57.2241
56.1533
55.0878
54.0282
52.9729
51.923
50.8774
49.8367
48.7991
47.7658
46.7359
45.7097
44.6859
43.6653
42.647
41.6314
40.6168
39.6043
38.593
37.5832
36.5734
35.5643
34.5552
33.5461
32.5355
31.5243
30.5115
29.4974
28.4805
27.4615
26.4396
25.4149
24.386
23.3538
22.3174
21.2771
20.2319
19.1823
18.1277
17.0686
16.0037
14.9341
13.8592
12.7794
11.694
10.6037
9.50821
8.40781
7.30234
6.19208
5.07714
3.95746
2.83397
1.70449
0.582924
149.071
144.382
142.467
140.677
138.966
137.269
135.604
133.979
132.386
130.819
129.275
127.751
126.245
124.757
123.287
121.835
120.405
118.998
117.615
116.255
114.917
113.596
112.287
110.986
109.689
108.393
107.096
105.795
104.492
103.187
101.88
100.571
99.2616
97.9531
96.6466
95.3419
94.041
92.7441
91.4526
90.1659
88.8856
87.6118
86.3452
85.085
83.8327
82.5881
81.3518
80.1229
78.9027
77.6905
76.4871
75.2911
74.1039
72.9248
71.7543
70.5913
69.4368
68.2901
67.1517
66.02
64.8963
63.7797
62.6708
61.5681
60.4727
59.3836
58.3012
57.2241
56.1532
55.0878
54.0281
52.9729
51.9229
50.8774
49.8366
48.799
47.7658
46.7359
45.7097
44.6859
43.6653
42.647
41.6313
40.6168
39.6043
38.593
37.5831
36.5733
35.5643
34.5551
33.5461
32.5354
31.5243
30.5115
29.4973
28.4804
27.4615
26.4396
25.4149
24.386
23.3538
22.3174
21.2771
20.2318
19.1823
18.1277
17.0686
16.0037
14.9341
13.8592
12.7794
11.694
10.6037
9.5082
8.40781
7.30234
6.19208
5.07713
3.95745
2.83397
1.70448
0.582918
149.049
144.388
142.469
140.68
138.968
137.27
135.605
133.98
132.387
130.82
129.276
127.751
126.246
124.758
123.287
121.836
120.405
118.998
117.615
116.255
114.917
113.596
112.287
110.986
109.689
108.393
107.096
105.795
104.493
103.187
101.88
100.571
99.2617
97.9532
96.6467
95.3419
94.041
92.7442
91.4526
90.1659
88.8856
87.6118
86.3452
85.085
83.8327
82.5881
81.3518
80.1229
78.9026
77.6905
76.4871
75.291
74.1038
72.9247
71.7543
70.5913
69.4368
68.2901
67.1516
66.0199
64.8962
63.7797
62.6707
61.5681
60.4726
59.3835
58.3012
57.224
56.1532
55.0877
54.0281
52.9728
51.9229
50.8774
49.8366
48.799
47.7657
46.7358
45.7096
44.6858
43.6652
42.6469
41.6313
40.6167
39.6043
38.593
37.5831
36.5733
35.5643
34.5551
33.546
32.5354
31.5242
30.5114
29.4973
28.4804
27.4615
26.4395
25.4149
24.386
23.3538
22.3174
21.2771
20.2318
19.1823
18.1277
17.0686
16.0037
14.9341
13.8592
12.7794
11.694
10.6037
9.5082
8.4078
7.30233
6.19207
5.07713
3.95745
2.83396
1.70448
0.582918
149.029
144.395
142.471
140.682
138.97
137.272
135.606
133.981
132.388
130.821
129.276
127.752
126.246
124.758
123.288
121.836
120.406
118.998
117.615
116.256
114.917
113.596
112.287
110.986
109.689
108.393
107.096
105.796
104.493
103.187
101.88
100.571
99.2617
97.9532
96.6467
95.342
94.0411
92.7442
91.4526
90.1659
88.8857
87.6117
86.3452
85.0849
83.8327
82.588
81.3517
80.1229
78.9026
77.6904
76.487
75.291
74.1038
72.9247
71.7542
70.5912
69.4367
68.29
67.1516
66.0199
64.8962
63.7796
62.6707
61.568
60.4726
59.3835
58.3011
57.2239
56.1531
55.0877
54.028
52.9728
51.9228
50.8773
49.8365
48.7989
47.7657
46.7358
45.7096
44.6858
43.6652
42.6469
41.6312
40.6167
39.6042
38.5929
37.5831
36.5733
35.5643
34.5551
33.546
32.5354
31.5242
30.5114
29.4973
28.4804
27.4615
26.4395
25.4149
24.386
23.3538
22.3174
21.2771
20.2318
19.1822
18.1277
17.0685
16.0037
14.9341
13.8592
12.7793
11.694
10.6037
9.50819
8.4078
7.30232
6.19207
5.07712
3.95744
2.83396
1.70447
0.582909
149.009
144.403
142.474
140.685
138.972
137.274
135.608
133.982
132.389
130.822
129.277
127.753
126.247
124.759
123.288
121.837
120.406
118.999
117.616
116.256
114.917
113.596
112.287
110.986
109.69
108.393
107.096
105.796
104.493
103.187
101.88
100.571
99.2619
97.9533
96.6468
95.3421
94.0411
92.7442
91.4526
90.1659
88.8857
87.6118
86.3452
85.0849
83.8327
82.588
81.3517
80.1228
78.9026
77.6904
76.487
75.2909
74.1037
72.9246
71.7541
70.5912
69.4367
68.2899
67.1515
66.0198
64.8961
63.7796
62.6706
61.5679
60.4725
59.3834
58.301
57.2239
56.153
55.0876
54.0279
52.9727
51.9228
50.8772
49.8365
48.7989
47.7656
46.7357
45.7095
44.6857
43.6651
42.6468
41.6312
40.6166
39.6042
38.5929
37.583
36.5732
35.5642
34.555
33.546
32.5354
31.5242
30.5114
29.4973
28.4804
27.4614
26.4395
25.4148
24.3859
23.3537
22.3173
21.2771
20.2318
19.1822
18.1277
17.0685
16.0037
14.9341
13.8592
12.7793
11.694
10.6037
9.50818
8.40779
7.30232
6.19206
5.07712
3.95744
2.83395
1.70447
0.582907
148.986
144.412
142.475
140.687
138.974
137.276
135.61
133.984
132.391
130.823
129.279
127.754
126.248
124.76
123.289
121.837
120.407
118.999
117.616
116.256
114.918
113.596
112.288
110.987
109.69
108.394
107.096
105.796
104.493
103.188
101.88
100.571
99.2621
97.9535
96.647
95.3422
94.0412
92.7443
91.4527
90.166
88.8857
87.6118
86.3452
85.0849
83.8327
82.588
81.3517
80.1228
78.9025
77.6903
76.4869
75.2909
74.1037
72.9245
71.7541
70.5911
69.4366
68.2899
67.1514
66.0197
64.896
63.7795
62.6705
61.5679
60.4724
59.3833
58.301
57.2238
56.1529
55.0875
54.0279
52.9726
51.9227
50.8771
49.8364
48.7988
47.7655
46.7356
45.7094
44.6856
43.665
42.6468
41.6311
40.6166
39.6041
38.5928
37.583
36.5732
35.5642
34.555
33.5459
32.5353
31.5241
30.5114
29.4972
28.4803
27.4614
26.4395
25.4148
24.3859
23.3537
22.3173
21.2771
20.2318
19.1822
18.1277
17.0685
16.0037
14.9341
13.8592
12.7793
11.694
10.6036
9.50817
8.40778
7.30231
6.19205
5.07711
3.95743
2.83394
1.70446
0.582892
148.959
144.423
142.477
140.689
138.977
137.278
135.612
133.986
132.392
130.825
129.28
127.755
126.249
124.761
123.29
121.838
120.407
119
117.617
116.257
114.918
113.597
112.288
110.987
109.69
108.394
107.097
105.796
104.494
103.188
101.881
100.571
99.2623
97.9537
96.6472
95.3424
94.0414
92.7445
91.4528
90.1661
88.8858
87.6119
86.3452
85.085
83.8327
82.588
81.3517
80.1228
78.9025
77.6903
76.4869
75.2908
74.1036
72.9245
71.754
70.591
69.4365
68.2898
67.1513
66.0196
64.8959
63.7794
62.6704
61.5678
60.4723
59.3832
58.3009
57.2237
56.1528
55.0874
54.0278
52.9725
51.9226
50.8771
49.8363
48.7987
47.7654
46.7355
45.7094
44.6856
43.665
42.6467
41.6311
40.6165
39.604
38.5928
37.5829
36.5731
35.5641
34.5549
33.5459
32.5353
31.5241
30.5113
29.4972
28.4803
27.4614
26.4394
25.4148
24.3859
23.3537
22.3173
21.277
20.2318
19.1822
18.1276
17.0685
16.0037
14.9341
13.8591
12.7793
11.6939
10.6036
9.50815
8.40776
7.30229
6.19204
5.0771
3.95742
2.83393
1.70445
0.582884
148.929
144.435
142.479
140.69
138.978
137.28
135.614
133.988
132.394
130.826
129.281
127.757
126.25
124.762
123.291
121.839
120.408
119.001
117.617
116.257
114.919
113.597
112.289
110.988
109.691
108.394
107.097
105.797
104.494
103.188
101.881
100.572
99.2627
97.9541
96.6475
95.3426
94.0416
92.7447
91.453
90.1662
88.8859
87.612
86.3453
85.085
83.8327
82.588
81.3517
80.1228
78.9025
77.6903
76.4868
75.2908
74.1036
72.9244
71.754
70.591
69.4365
68.2897
67.1513
66.0195
64.8958
63.7793
62.6703
61.5677
60.4722
59.3831
58.3008
57.2236
56.1527
55.0873
54.0277
52.9724
51.9225
50.877
49.8362
48.7986
47.7653
46.7354
45.7093
44.6855
43.6649
42.6466
41.631
40.6164
39.604
38.5927
37.5828
36.573
35.564
34.5549
33.5458
32.5352
31.524
30.5113
29.4971
28.4802
27.4613
26.4394
25.4147
24.3858
23.3536
22.3172
21.277
20.2317
19.1822
18.1276
17.0685
16.0036
14.934
13.8591
12.7793
11.6939
10.6036
9.50813
8.40774
7.30228
6.19202
5.07708
3.9574
2.83392
1.70444
0.582857
148.893
144.448
142.48
140.692
138.98
137.282
135.616
133.99
132.396
130.828
129.283
127.758
126.252
124.763
123.292
121.84
120.409
119.002
117.618
116.258
114.92
113.598
112.289
110.988
109.691
108.395
107.098
105.797
104.495
103.189
101.881
100.572
99.2632
97.9545
96.6479
95.343
94.042
92.745
91.4533
90.1665
88.8861
87.6121
86.3455
85.0852
83.8329
82.5881
81.3518
80.1228
78.9025
77.6903
76.4869
75.2908
74.1035
72.9244
71.7539
70.5909
69.4364
68.2897
67.1512
66.0195
64.8957
63.7792
62.6703
61.5676
60.4721
59.383
58.3007
57.2235
56.1526
55.0872
54.0276
52.9723
51.9224
50.8769
49.8361
48.7985
47.7653
46.7354
45.7092
44.6854
43.6648
42.6465
41.6309
40.6163
39.6039
38.5926
37.5828
36.573
35.564
34.5548
33.5457
32.5351
31.524
30.5112
29.4971
28.4802
27.4613
26.4393
25.4147
24.3858
23.3536
22.3172
21.2769
20.2317
19.1821
18.1276
17.0684
16.0036
14.934
13.8591
12.7792
11.6939
10.6036
9.50811
8.40772
7.30225
6.192
5.07706
3.95738
2.8339
1.70443
0.582837
148.852
144.464
142.481
140.693
138.981
137.283
135.618
133.992
132.398
130.83
129.285
127.76
126.254
124.765
123.294
121.841
120.411
119.003
117.619
116.259
114.921
113.599
112.29
110.989
109.692
108.396
107.099
105.798
104.495
103.19
101.882
100.573
99.2638
97.9551
96.6484
95.3435
94.0424
92.7454
91.4537
90.1668
88.8865
87.6124
86.3457
85.0854
83.8331
82.5883
81.3519
80.123
78.9026
77.6904
76.4869
75.2908
74.1036
72.9244
71.7539
70.5909
69.4364
68.2896
67.1511
66.0194
64.8957
63.7791
62.6702
61.5675
60.472
59.3829
58.3006
57.2234
56.1526
55.0871
54.0275
52.9722
51.9223
50.8768
49.836
48.7984
47.7651
46.7353
45.7091
44.6853
43.6647
42.6464
41.6308
40.6162
39.6038
38.5925
37.5827
36.5729
35.5639
34.5547
33.5457
32.5351
31.5239
30.5111
29.497
28.4801
27.4612
26.4393
25.4146
24.3857
23.3535
22.3171
21.2769
20.2316
19.1821
18.1275
17.0684
16.0036
14.9339
13.859
12.7792
11.6938
10.6035
9.50807
8.40768
7.30222
6.19197
5.07703
3.95736
2.83387
1.7044
0.582786
148.804
144.484
142.482
140.694
138.982
137.284
135.619
133.993
132.4
130.832
129.287
127.762
126.255
124.766
123.295
121.843
120.412
119.004
117.621
116.261
114.922
113.6
112.291
110.99
109.693
108.397
107.099
105.799
104.496
103.19
101.883
100.574
99.2646
97.9559
96.6491
95.3442
94.0431
92.746
91.4542
90.1674
88.8869
87.6129
86.3461
85.0858
83.8334
82.5886
81.3522
80.1232
78.9028
77.6906
76.4871
75.291
74.1037
72.9245
71.754
70.5909
69.4364
68.2896
67.1511
66.0194
64.8957
63.7791
62.6701
61.5675
60.472
59.3829
58.3005
57.2233
56.1525
55.087
54.0274
52.9721
51.9222
50.8767
49.8359
48.7983
47.7651
46.7352
45.709
44.6852
43.6646
42.6463
41.6307
40.6161
39.6037
38.5924
37.5826
36.5728
35.5638
34.5546
33.5455
32.535
31.5238
30.511
29.4969
28.48
27.4611
26.4392
25.4145
24.3856
23.3534
22.3171
21.2768
20.2315
19.182
18.1274
17.0683
16.0035
14.9339
13.859
12.7791
11.6938
10.6035
9.50802
8.40764
7.30218
6.19193
5.077
3.95732
2.83384
1.70437
0.582735
148.749
144.506
142.483
140.695
138.983
137.285
135.619
133.994
132.401
130.833
129.288
127.764
126.257
124.768
123.297
121.845
120.414
119.006
117.622
116.262
114.923
113.601
112.292
110.991
109.694
108.398
107.101
105.8
104.497
103.192
101.884
100.575
99.2656
97.9568
96.6501
95.3451
94.0439
92.7468
91.455
90.1681
88.8876
87.6135
86.3467
85.0863
83.8338
82.589
81.3526
80.1236
78.9032
77.6909
76.4873
75.2912
74.1039
72.9247
71.7541
70.5911
69.4365
68.2897
67.1512
66.0195
64.8957
63.7792
62.6702
61.5675
60.472
59.3829
58.3005
57.2233
56.1524
55.087
54.0273
52.9721
51.9221
50.8766
49.8358
48.7983
47.765
46.7351
45.7089
44.6851
43.6645
42.6462
41.6306
40.616
39.6036
38.5923
37.5824
36.5727
35.5637
34.5545
33.5454
32.5348
31.5237
30.5109
29.4968
28.4799
27.461
26.4391
25.4144
24.3855
23.3533
22.317
21.2767
20.2314
19.1819
18.1274
17.0682
16.0034
14.9338
13.8589
12.7791
11.6937
10.6034
9.50796
8.40757
7.30212
6.19187
5.07694
3.95727
2.83379
1.70433
0.582634
148.685
144.532
142.484
140.696
138.984
137.286
135.62
133.994
132.401
130.834
129.289
127.765
126.259
124.77
123.299
121.847
120.416
119.008
117.624
116.264
114.925
113.603
112.294
110.993
109.695
108.399
107.102
105.801
104.498
103.193
101.885
100.576
99.2667
97.958
96.6512
95.3462
94.045
92.7478
91.4559
90.169
88.8884
87.6143
86.3474
85.087
83.8345
82.5897
81.3531
80.1241
78.9037
77.6913
76.4877
75.2916
74.1042
72.925
71.7544
70.5914
69.4368
68.29
67.1514
66.0196
64.8959
63.7793
62.6703
61.5676
60.4721
59.3829
58.3005
57.2233
56.1525
55.087
54.0273
52.9721
51.9221
50.8766
49.8358
48.7982
47.7649
46.735
45.7088
44.685
43.6644
42.6461
41.6305
40.6159
39.6035
38.5922
37.5823
36.5726
35.5635
34.5544
33.5453
32.5347
31.5235
30.5108
29.4966
28.4798
27.4609
26.4389
25.4143
24.3854
23.3532
22.3168
21.2766
20.2313
19.1818
18.1272
17.0681
16.0033
14.9337
13.8588
12.779
11.6936
10.6033
9.50788
8.40749
7.30205
6.1918
5.07688
3.95721
2.83372
1.70428
0.582514
148.611
144.563
142.486
140.697
138.985
137.286
135.62
133.995
132.402
130.835
129.29
127.765
126.26
124.771
123.3
121.848
120.417
119.009
117.626
116.265
114.926
113.604
112.295
110.994
109.697
108.4
107.103
105.803
104.5
103.194
101.887
100.577
99.2681
97.9594
96.6525
95.3475
94.0463
92.7491
91.4571
90.1702
88.8896
87.6154
86.3485
85.088
83.8354
82.5905
81.354
80.1249
78.9044
77.692
76.4884
75.2922
74.1048
72.9255
71.7549
70.5918
69.4372
68.2903
67.1517
66.02
64.8961
63.7795
62.6705
61.5678
60.4722
59.3831
58.3006
57.2235
56.1526
55.0871
54.0274
52.9721
51.9222
50.8766
49.8358
48.7982
47.7649
46.735
45.7088
44.685
43.6644
42.6461
41.6304
40.6159
39.6034
38.5921
37.5822
36.5725
35.5634
34.5543
33.5452
32.5346
31.5234
30.5107
29.4965
28.4797
27.4607
26.4388
25.4141
24.3853
23.3531
22.3167
21.2764
20.2312
19.1816
18.1271
17.068
16.0032
14.9336
13.8587
12.7789
11.6935
10.6032
9.50777
8.40739
7.30195
6.19171
5.07679
3.95713
2.83363
1.70421
0.582303
148.527
144.598
142.488
140.699
138.986
137.287
135.621
133.995
132.402
130.835
129.29
127.766
126.26
124.772
123.301
121.849
120.419
119.011
117.627
116.267
114.928
113.606
112.297
110.995
109.698
108.402
107.104
105.804
104.501
103.196
101.888
100.579
99.2697
97.9609
96.6541
95.3491
94.0478
92.7506
91.4586
90.1716
88.891
87.6167
86.3498
85.0892
83.8366
82.5917
81.355
80.1259
78.9054
77.6929
76.4892
75.293
74.1056
72.9263
71.7556
70.5925
69.4378
68.2909
67.1523
66.0205
64.8966
63.78
62.6709
61.5681
60.4726
59.3834
58.3009
57.2237
56.1528
55.0873
54.0276
52.9723
51.9223
50.8767
49.8359
48.7983
47.765
46.7351
45.7088
44.685
43.6644
42.6461
41.6304
40.6159
39.6034
38.5921
37.5822
36.5724
35.5634
34.5542
33.5451
32.5345
31.5233
30.5105
29.4964
28.4795
27.4606
26.4387
25.414
24.3851
23.3529
22.3165
21.2763
20.231
19.1815
18.127
17.0678
16.003
14.9334
13.8585
12.7787
11.6934
10.6031
9.50764
8.40726
7.30183
6.19159
5.07668
3.95702
2.83352
1.70413
0.582025
148.432
144.638
142.49
140.701
138.988
137.289
135.622
133.996
132.403
130.835
129.291
127.766
126.26
124.772
123.301
121.85
120.419
119.012
117.629
116.268
114.929
113.607
112.298
110.997
109.7
108.403
107.106
105.806
104.503
103.197
101.89
100.581
99.2713
97.9626
96.6558
95.3508
94.0495
92.7523
91.4603
90.1733
88.8927
87.6184
86.3514
85.0908
83.8382
82.5932
81.3565
80.1273
78.9067
77.6942
76.4904
75.2942
74.1067
72.9273
71.7566
70.5934
69.4387
68.2918
67.153
66.0212
64.8973
63.7806
62.6715
61.5687
60.4731
59.3839
58.3014
57.2242
56.1532
55.0877
54.0279
52.9726
51.9226
50.877
49.8361
48.7985
47.7652
46.7352
45.709
44.6852
43.6645
42.6462
41.6305
40.6159
39.6034
38.5921
37.5822
36.5724
35.5633
34.5542
33.545
32.5344
31.5232
30.5104
29.4963
28.4794
27.4605
26.4385
25.4138
24.385
23.3528
22.3164
21.2761
20.2309
19.1813
18.1268
17.0676
16.0029
14.9333
13.8584
12.7785
11.6932
10.6029
9.50749
8.40711
7.30168
6.19145
5.07654
3.95689
2.83338
1.70402
0.581569
148.326
144.681
142.492
140.703
138.991
137.29
135.623
133.997
132.404
130.836
129.291
127.766
126.261
124.772
123.302
121.85
120.42
119.012
117.629
116.269
114.93
113.608
112.299
110.998
109.7
108.404
107.107
105.807
104.504
103.198
101.891
100.582
99.273
97.9643
96.6576
95.3527
94.0514
92.7542
91.4622
90.1752
88.8946
87.6203
86.3532
85.0927
83.84
82.5949
81.3582
80.129
78.9083
77.6958
76.4919
75.2957
74.1081
72.9287
71.7579
70.5947
69.4399
68.2929
67.1542
66.0223
64.8983
63.7816
62.6724
61.5696
60.474
59.3847
58.3021
57.2249
56.1539
55.0883
54.0285
52.9732
51.9231
50.8775
49.8366
48.799
47.7656
46.7356
45.7093
44.6855
43.6648
42.6464
41.6307
40.6161
39.6036
38.5923
37.5823
36.5725
35.5634
34.5542
33.545
32.5345
31.5232
30.5104
29.4962
28.4794
27.4604
26.4384
25.4137
24.3849
23.3526
22.3163
21.2759
20.2307
19.1811
18.1266
17.0674
16.0027
14.9331
13.8582
12.7783
11.693
10.6028
9.50732
8.40693
7.30151
6.19128
5.07638
3.95674
2.83321
1.70389
0.580931
148.209
144.729
142.496
140.705
138.993
137.292
135.625
133.998
132.405
130.837
129.292
127.767
126.261
124.773
123.302
121.851
120.42
119.013
117.63
116.269
114.93
113.608
112.299
110.998
109.7
108.404
107.107
105.807
104.504
103.199
101.892
100.583
99.2743
97.9659
96.6592
95.3545
94.0533
92.7562
91.4642
90.1773
88.8966
87.6224
86.3553
85.0947
83.842
82.597
81.3602
80.131
78.9103
77.6977
76.4938
75.2975
74.1099
72.9304
71.7596
70.5963
69.4415
68.2945
67.1556
66.0237
64.8997
63.7829
62.6737
61.5708
60.4751
59.3858
58.3032
57.2259
56.1548
55.0893
54.0294
52.974
51.9239
50.8783
49.8373
48.7996
47.7662
46.7362
45.7098
44.686
43.6653
42.6469
41.6311
40.6165
39.6039
38.5926
37.5826
36.5728
35.5637
34.5544
33.5452
32.5346
31.5233
30.5105
29.4963
28.4794
27.4604
26.4384
25.4137
24.3848
23.3526
22.3162
21.2758
20.2306
19.181
18.1265
17.0673
16.0025
14.9329
13.858
12.7782
11.6929
10.6026
9.50714
8.40675
7.30134
6.19111
5.07621
3.95657
2.83303
1.70374
0.579939
148.082
144.779
142.5
140.707
138.996
137.295
135.626
133.999
132.406
130.838
129.293
127.768
126.262
124.773
123.303
121.852
120.421
119.014
117.63
116.27
114.931
113.609
112.299
110.998
109.7
108.404
107.107
105.807
104.504
103.199
101.892
100.584
99.2748
97.9665
96.6601
95.3556
94.0546
92.7578
91.466
90.1792
88.8986
87.6245
86.3574
85.097
83.8443
82.5992
81.3624
80.1332
78.9125
77.6999
76.4959
75.2996
74.112
72.9325
71.7616
70.5983
69.4434
68.2963
67.1574
66.0255
64.9014
63.7846
62.6753
61.5725
60.4767
59.3873
58.3046
57.2273
56.1562
55.0906
54.0306
52.9752
51.9251
50.8794
49.8383
48.8007
47.7672
46.7371
45.7107
44.6868
43.666
42.6476
41.6318
40.6172
39.6046
38.5932
37.5831
36.5733
35.5641
34.5549
33.5456
32.535
31.5237
30.5108
29.4965
28.4796
27.4606
26.4386
25.4138
24.3849
23.3526
22.3162
21.2758
20.2306
19.181
18.1264
17.0672
16.0024
14.9328
13.8579
12.778
11.6927
10.6024
9.507
8.4066
7.30119
6.19096
5.07606
3.95642
2.83284
1.70359
0.578529
147.948
144.83
142.505
140.708
138.999
137.297
135.628
134.001
132.407
130.839
129.294
127.769
126.263
124.774
123.304
121.852
120.422
119.015
117.631
116.271
114.931
113.609
112.299
110.998
109.7
108.404
107.106
105.807
104.504
103.199
101.892
100.583
99.2746
97.9664
96.6601
95.3557
94.0549
92.7582
91.4666
90.18
88.8997
87.6258
86.3589
85.0987
83.8462
82.6013
81.3646
80.1355
78.9148
77.7023
76.4983
75.302
74.1143
72.9348
71.7638
70.6006
69.4456
68.2985
67.1596
66.0276
64.9035
63.7867
62.6773
61.5744
60.4786
59.3892
58.3064
57.2291
56.1579
55.0922
54.0322
52.9768
51.9266
50.8808
49.8397
48.802
47.7685
46.7384
45.7119
44.688
43.6672
42.6487
41.6328
40.6182
39.6055
38.5941
37.584
36.5741
35.5649
34.5556
33.5463
32.5356
31.5243
30.5114
29.497
28.4801
27.461
26.439
25.4141
24.3852
23.3529
22.3164
21.276
20.2308
19.1811
18.1265
17.0672
16.0025
14.9328
13.8579
12.778
11.6927
10.6024
9.50694
8.40653
7.30112
6.19088
5.07597
3.95633
2.8327
1.70347
0.576453
147.814
144.88
142.511
140.709
139.003
137.3
135.63
134.003
132.408
130.84
129.295
127.77
126.264
124.775
123.305
121.854
120.423
119.016
117.632
116.272
114.932
113.61
112.3
110.998
109.7
108.404
107.106
105.806
104.504
103.199
101.892
100.583
99.2745
97.9664
96.66
95.3557
94.0549
92.7583
91.4666
90.1801
88.8999
87.626
86.3592
85.0991
83.8468
82.6021
81.3655
80.1367
78.9162
77.7039
76.5001
75.3041
74.1165
72.9371
71.7662
70.603
69.4481
68.301
67.162
66.0301
64.9059
63.7891
62.6796
61.5767
60.4808
59.3914
58.3085
57.2312
56.16
55.0943
54.0342
52.9788
51.9285
50.8827
49.8415
48.8039
47.7703
46.7401
45.7136
44.6897
43.6688
42.6503
41.6343
40.6196
39.6069
38.5954
37.5852
36.5754
35.5661
34.5567
33.5473
32.5367
31.5252
30.5123
29.4979
28.4809
27.4618
26.4397
25.4147
24.3858
23.3534
22.317
21.2765
20.2312
19.1815
18.1269
17.0675
16.0028
14.9331
13.8581
12.7782
11.6929
10.6025
9.50706
8.40662
7.30119
6.19094
5.07601
3.95637
2.83267
1.70342
0.573609
147.686
144.925
142.518
140.709
139.006
137.302
135.632
134.004
132.41
130.841
129.296
127.771
126.265
124.776
123.306
121.855
120.424
119.017
117.634
116.273
114.933
113.61
112.3
110.998
109.7
108.404
107.106
105.806
104.504
103.199
101.892
100.583
99.2745
97.9664
96.6601
95.3558
94.0551
92.7584
91.4668
90.1803
88.9001
87.6262
86.3594
85.0994
83.847
82.6023
81.3657
80.1369
78.9164
77.7042
76.5004
75.3045
74.1171
72.9379
71.7672
70.6042
69.4495
68.3026
67.1638
66.0321
64.9081
63.7914
62.682
61.5792
60.4834
59.394
58.3111
57.2338
56.1625
55.0967
54.0366
52.9812
51.9308
50.885
49.8437
48.806
47.7724
46.7422
45.7156
44.6917
43.6707
42.6522
41.6361
40.6215
39.6087
38.5972
37.587
36.577
35.5677
34.5583
33.5488
32.5382
31.5267
30.5137
29.4992
28.4822
27.463
26.4408
25.4158
24.3869
23.3544
22.3179
21.2773
20.232
19.1822
18.1276
17.0682
16.0034
14.9336
13.8587
12.7787
11.6933
10.603
9.50746
8.40698
7.30153
6.19125
5.0763
3.95663
2.83284
1.70353
0.569915
147.578
144.961
142.525
140.709
139.009
137.304
135.633
134.005
132.411
130.842
129.297
127.772
126.265
124.777
123.307
121.855
120.425
119.018
117.634
116.274
114.934
113.611
112.301
110.998
109.7
108.404
107.106
105.806
104.504
103.199
101.892
100.583
99.2746
97.9665
96.6602
95.356
94.0552
92.7586
91.467
90.1806
88.9003
87.6265
86.3597
85.0996
83.8472
82.6026
81.366
80.1372
78.9167
77.7045
76.5007
75.3048
74.1173
72.9381
71.7673
70.6044
69.4497
68.3028
67.164
66.0324
64.9085
63.7919
62.6826
61.58
60.4844
59.3952
58.3125
57.2354
56.1643
55.0987
54.0387
52.9835
51.9332
50.8875
49.8462
48.8086
47.775
46.7448
45.7182
44.6943
43.6733
42.6547
41.6385
40.6239
39.611
38.5994
37.5891
36.5792
35.5698
34.5603
33.5507
32.5401
31.5285
30.5155
29.5009
28.4839
27.4646
26.4424
25.4173
24.3884
23.3558
22.3193
21.2786
20.2333
19.1835
18.1288
17.0693
16.0045
14.9347
13.8597
12.7796
11.6942
10.6038
9.50823
8.40771
7.30222
6.1919
5.0769
3.9572
2.83331
1.70388
0.565801
147.51
144.983
142.53
140.709
139.01
137.306
135.634
134.006
132.412
130.843
129.297
127.772
126.266
124.777
123.307
121.856
120.426
119.019
117.635
116.274
114.934
113.611
112.301
110.998
109.701
108.404
107.106
105.806
104.504
103.199
101.892
100.583
99.2746
97.9666
96.6603
95.3561
94.0554
92.7588
91.4672
90.1808
88.9005
87.6267
86.3599
85.0999
83.8475
82.6028
81.3662
80.1374
78.917
77.7047
76.5009
75.305
74.1176
72.9384
71.7676
70.6047
69.4499
68.3031
67.1642
66.0326
64.9087
63.7921
62.6828
61.5802
60.4845
59.3953
58.3125
57.2355
56.1644
55.0989
54.0389
52.9838
51.9336
50.888
49.8469
48.8094
47.7759
46.746
45.7194
44.6957
43.6748
42.6564
41.6404
40.6259
39.6131
38.6016
37.5913
36.5815
35.5721
34.5627
33.5531
32.5424
31.5308
30.5178
29.5031
28.4861
27.4667
26.4445
25.4193
24.3903
23.3577
22.3211
21.2804
20.235
19.185
18.1303
17.0707
16.0058
14.9359
13.8609
12.7807
11.6953
10.6048
9.5092
8.40862
7.30308
6.19271
5.07766
3.95792
2.83394
1.70436
0.562608
147.51
144.983
142.53
140.709
139.01
137.306
135.634
134.006
132.412
130.843
129.297
127.772
126.266
124.777
123.307
121.856
120.426
119.019
117.635
116.274
114.934
113.611
112.301
110.998
109.7
108.404
107.106
105.806
104.504
103.199
101.892
100.583
99.2746
97.9666
96.6602
95.3561
94.0554
92.7588
91.4672
90.1808
88.9005
87.6267
86.3599
85.0999
83.8475
82.6028
81.3662
80.1374
78.917
77.7047
76.5009
75.305
74.1176
72.9384
71.7676