/*--------------------------------*- C++ -*----------------------------------*\
  =========                 |
  \\      /  F ield         | OpenFOAM: The Open Source CFD Toolbox
   \\    /   O peration     | Website:  https://openfoam.org
    \\  /    A nd           | Version:  8
     \\/     M anipulation  |
\*---------------------------------------------------------------------------*/
FoamFile
{
    version     2.0;
    format      ascii;
    class       surfaceScalarField;
    location    "400";
    object      phi;
}
// * * * * * * * * * * * * * * * * * * * * * * * * * * * * * * * * * * * * * //

dimensions      [0 3 -1 0 0 0 0];

internalField   nonuniform List<scalar> 
14458
(
0.00222126
0.00139907
0.00205682
0.000164454
0.00198942
6.74312e-05
0.00194726
4.21879e-05
0.00191671
3.0575e-05
0.00189296
2.3775e-05
0.00187368
1.93091e-05
0.00185758
1.61306e-05
0.00184386
1.37548e-05
0.00183196
1.19147e-05
0.00182153
1.04764e-05
0.00181228
9.2935e-06
0.00180399
8.32285e-06
0.00179651
7.50761e-06
0.00178973
6.81655e-06
0.0017836
6.16585e-06
0.00177809
5.53791e-06
0.0017732
4.90713e-06
0.00176894
4.32325e-06
0.00176529
3.7014e-06
0.0017622
3.12141e-06
0.00175963
2.60152e-06
0.00175748
2.2012e-06
0.00175568
1.83852e-06
0.00175415
1.5559e-06
0.00175282
1.3333e-06
0.00175165
1.25207e-06
0.0017506
1.1085e-06
0.00174965
9.93693e-07
0.00174877
8.87923e-07
0.00174797
8.61394e-07
0.00174724
7.6461e-07
0.00174657
6.77029e-07
0.00174597
5.84549e-07
0.00174543
6.22649e-07
0.00174496
5.24326e-07
0.00174455
4.33932e-07
0.00174421
3.35914e-07
0.00174393
3.31961e-07
0.00174372
2.31127e-07
0.00174357
1.40836e-07
0.00174349
4.42957e-08
0.00174346
1.02458e-07
0.0017435
3.39223e-09
0.0017436
-8.34914e-08
0.00174375
-1.77796e-07
0.00174397
-1.66419e-07
0.00174424
-2.61086e-07
0.00174456
-3.4176e-07
0.00174493
-4.29001e-07
0.00174535
-3.53408e-07
0.00174583
-4.42389e-07
0.00174635
-5.16735e-07
0.00174691
-6.00038e-07
0.00174752
-5.72052e-07
0.00174818
-6.55482e-07
0.00174887
-7.2333e-07
0.0017496
-7.99265e-07
0.00175038
-7.0871e-07
0.00175119
-7.86406e-07
0.00175203
-8.48038e-07
0.00175291
-9.20004e-07
0.00175382
-8.80389e-07
0.00175477
-9.52193e-07
0.00175574
-1.00708e-06
0.00175674
-1.07108e-06
0.00175776
-9.70661e-07
0.00175881
-1.03564e-06
0.00175988
-1.08297e-06
0.00176097
-1.1414e-06
0.00176208
-1.08696e-06
0.0017632
-1.14419e-06
0.00176435
-1.183e-06
0.0017655
-1.2313e-06
0.00176666
-1.1149e-06
0.00176782
-1.16292e-06
0.001769
-1.19196e-06
0.00177017
-1.23227e-06
0.00177135
-1.1611e-06
0.00177252
-1.19876e-06
0.00177369
-1.2169e-06
0.00177485
-1.24443e-06
0.001776
-1.1094e-06
0.00177713
-1.13567e-06
0.00177825
-1.14223e-06
0.00177935
-1.16065e-06
0.00178043
-1.06763e-06
0.00178148
-1.08391e-06
0.00178251
-1.0808e-06
0.00178351
-1.08844e-06
0.00178448
-9.35121e-07
0.00178543
-9.4389e-07
0.00178634
-9.34174e-07
0.00178721
-9.38493e-07
0.00178806
-8.36801e-07
0.00178887
-8.42226e-07
0.00178964
-8.29808e-07
0.00179038
-8.30203e-07
0.00179108
-6.83415e-07
0.00179176
-6.87457e-07
0.00179239
-6.74676e-07
0.001793
-6.77123e-07
0.00179357
-5.84205e-07
0.00179411
-5.89001e-07
0.00179463
-5.77804e-07
0.00179511
-5.78983e-07
0.00179556
-4.63843e-07
0.00179599
-4.67289e-07
0.00179639
-4.5663e-07
0.00179677
-4.58086e-07
0.00179712
-3.9678e-07
0.00179745
-3.97289e-07
0.00179776
-3.85809e-07
0.00179805
-3.81513e-07
0.00179832
-3.36496e-07
0.00179857
-3.28039e-07
0.00179881
-3.10972e-07
0.00179903
-2.97518e-07
0.00179923
-2.87785e-07
0.00179942
-2.64052e-07
0.00179959
-2.01793e-07
-1.09562e-07
0.00311151
0.00259576
0.00288393
0.000392047
0.00278398
0.000167394
0.00272314
0.000103047
0.0026798
7.39341e-05
0.0026464
5.71871e-05
0.00261943
4.62989e-05
0.00259697
3.86036e-05
0.00257787
3.28735e-05
0.00256135
2.84495e-05
0.00254687
2.49804e-05
0.00253403
2.21474e-05
0.00252255
1.98225e-05
0.00251221
1.78685e-05
0.00250286
1.61916e-05
0.00249442
1.46209e-05
0.00248687
1.31001e-05
0.00248021
1.15773e-05
0.00247444
1.01336e-05
0.00246951
8.65196e-06
0.00246538
7.28031e-06
0.00246193
6.06531e-06
0.00245905
5.1079e-06
0.00245663
4.27792e-06
0.00245457
3.63474e-06
0.00245277
3.136e-06
0.00245117
2.89493e-06
0.00244973
2.57868e-06
0.00244842
2.32431e-06
0.00244722
2.09455e-06
0.00244612
1.99408e-06
0.00244512
1.78445e-06
0.00244421
1.59092e-06
0.00244339
1.39149e-06
0.00244267
1.39655e-06
0.00244204
1.18477e-06
0.0024415
9.86699e-07
0.00244105
7.7811e-07
0.0024407
7.17288e-07
0.00244044
5.03482e-07
0.00244027
3.07669e-07
0.00244018
1.04956e-07
0.00244018
1.45599e-07
0.00244027
-6.20694e-08
0.00244044
-2.47858e-07
0.0024407
-4.42564e-07
0.00244103
-4.70614e-07
0.00244143
-6.65269e-07
0.00244192
-8.35841e-07
0.00244247
-1.01315e-06
0.00244309
-9.34094e-07
0.00244378
-1.11492e-06
0.00244454
-1.27038e-06
0.00244535
-1.43687e-06
0.00244623
-1.4281e-06
0.00244717
-1.59442e-06
0.00244816
-1.73448e-06
0.00244921
-1.88351e-06
0.00245031
-1.77052e-06
0.00245146
-1.92327e-06
0.00245266
-2.04858e-06
0.0024539
-2.18695e-06
0.00245519
-2.14961e-06
0.00245652
-2.28719e-06
0.00245789
-2.39635e-06
0.00245929
-2.51593e-06
0.00246073
-2.37651e-06
0.0024622
-2.49803e-06
0.0024637
-2.58945e-06
0.00246522
-2.6948e-06
0.00246677
-2.62205e-06
0.00246834
-2.72423e-06
0.00246993
-2.79536e-06
0.00247153
-2.87699e-06
0.00247314
-2.69862e-06
0.00247476
-2.77925e-06
0.00247638
-2.82731e-06
0.00247801
-2.88908e-06
0.00247963
-2.77445e-06
0.00248125
-2.82981e-06
0.00248285
-2.8521e-06
0.00248445
-2.88444e-06
0.00248602
-2.65977e-06
0.00248757
-2.6891e-06
0.0024891
-2.68489e-06
0.0024906
-2.69539e-06
0.00249207
-2.52984e-06
0.00249351
-2.53553e-06
0.00249491
-2.50911e-06
0.00249626
-2.49569e-06
0.00249758
-2.22864e-06
0.00249885
-2.21801e-06
0.00250008
-2.17702e-06
0.00250126
-2.15563e-06
0.0025024
-1.96802e-06
0.00250349
-1.94962e-06
0.00250453
-1.90292e-06
0.00250552
-1.8743e-06
0.00250647
-1.615e-06
0.00250737
-1.59555e-06
0.00250822
-1.54964e-06
0.00250903
-1.52672e-06
0.0025098
-1.35517e-06
0.00251052
-1.33902e-06
0.00251121
-1.29842e-06
0.00251185
-1.27643e-06
0.00251245
-1.07229e-06
0.00251302
-1.05775e-06
0.00251355
-1.02193e-06
0.00251406
-1.00475e-06
0.00251452
-8.8966e-07
0.00251496
-8.73789e-07
0.00251538
-8.4131e-07
0.00251576
-8.18949e-07
0.00251612
-7.29966e-07
0.00251645
-7.03289e-07
0.00251676
-6.67688e-07
0.00251706
-6.34489e-07
0.00251733
-6.05332e-07
0.00251757
-5.53515e-07
0.00251781
-5.1874e-07
-3.11923e-07
0.00403426
0.00368826
0.00373892
0.000687397
0.00360103
0.000305298
0.0035184
0.000185681
0.0034605
0.000131845
0.00341635
0.000101353
0.00338092
8.17427e-05
0.00335154
6.79897e-05
0.00332663
5.77985e-05
0.00330513
4.99587e-05
0.00328632
4.38078e-05
0.00326967
3.88084e-05
0.0032548
3.47054e-05
0.00324143
3.12507e-05
0.00322938
2.82599e-05
0.00321855
2.54631e-05
0.00320891
2.27526e-05
0.00320044
2.00497e-05
0.00319314
1.7464e-05
0.00318693
1.48768e-05
0.00318172
1.25038e-05
0.00317737
1.04233e-05
0.00317373
8.76819e-06
0.00317065
7.3709e-06
0.00316801
6.29305e-06
0.00316568
5.46218e-06
0.00316361
4.99778e-06
0.00316174
4.47107e-06
0.00316004
4.04384e-06
0.00315848
3.65929e-06
0.00315705
3.44116e-06
0.00315576
3.08916e-06
0.00315459
2.76085e-06
0.00315355
2.4267e-06
0.00315264
2.34457e-06
0.00315185
1.99189e-06
0.00315119
1.65984e-06
0.00315065
1.31588e-06
0.00315023
1.15599e-06
0.00314993
8.0567e-07
0.00314976
4.81897e-07
0.00314969
1.52454e-07
0.00314974
1.24727e-07
0.00314991
-2.11209e-07
0.00315018
-5.14171e-07
0.00315056
-8.25821e-07
0.00315103
-9.28999e-07
0.00315161
-1.23911e-06
0.00315228
-1.51401e-06
0.00315304
-1.79407e-06
0.00315389
-1.75615e-06
0.00315482
-2.04125e-06
0.00315585
-2.28919e-06
0.00315694
-2.54865e-06
0.00315812
-2.5891e-06
0.00315937
-2.84745e-06
0.0031607
-3.06799e-06
0.00316208
-3.29678e-06
0.00316354
-3.20059e-06
0.00316506
-3.43496e-06
0.00316664
-3.62963e-06
0.00316827
-3.83841e-06
0.00316996
-3.82738e-06
0.00317171
-4.03402e-06
0.0031735
-4.20004e-06
0.00317533
-4.37588e-06
0.0031772
-4.22995e-06
0.00317912
-4.40833e-06
0.00318107
-4.54333e-06
0.00318305
-4.6931e-06
0.00318505
-4.61951e-06
0.00318708
-4.76307e-06
0.00318913
-4.86213e-06
0.0031912
-4.97057e-06
0.00319327
-4.75536e-06
0.00319535
-4.86132e-06
0.00319744
-4.92027e-06
0.00319952
-4.99315e-06
0.0032016
-4.8442e-06
0.00320366
-4.90566e-06
0.00320571
-4.91975e-06
0.00320774
-4.94244e-06
0.00320974
-4.64508e-06
0.00321171
-4.66247e-06
0.00321365
-4.63187e-06
0.00321554
-4.61695e-06
0.0032174
-4.38135e-06
0.00321921
-4.35842e-06
0.00322097
-4.29044e-06
0.00322268
-4.23615e-06
0.00322433
-3.86776e-06
0.00322593
-3.8185e-06
0.00322747
-3.7272e-06
0.00322895
-3.65967e-06
0.00323037
-3.3858e-06
0.00323173
-3.3239e-06
0.00323304
-3.22408e-06
0.00323427
-3.14641e-06
0.00323545
-2.78501e-06
0.00323657
-2.72365e-06
0.00323764
-2.6273e-06
0.00323864
-2.56058e-06
0.00323959
-2.31096e-06
0.00324049
-2.257e-06
0.00324134
-2.17147e-06
0.00324214
-2.11012e-06
0.00324289
-1.82609e-06
0.00324359
-1.77944e-06
0.00324425
-1.70527e-06
0.00324487
-1.65615e-06
0.00324546
-1.48759e-06
0.003246
-1.44399e-06
0.00324651
-1.37853e-06
0.00324698
-1.32833e-06
0.00324743
-1.20017e-06
0.00324784
-1.14768e-06
0.00324823
-1.08155e-06
0.00324859
-1.02278e-06
0.00324892
-9.7297e-07
0.00324923
-8.87066e-07
0.00324952
-7.80496e-07
-4.23363e-07
0.00509521
0.00469391
0.00472974
0.00105287
0.00454516
0.000489896
0.00443474
0.000296106
0.00435841
0.000208187
0.00430082
0.000158951
0.00425496
0.000127621
0.00421713
0.000105831
0.00418516
8.97755e-05
0.00415765
7.74763e-05
0.00413364
6.78394e-05
0.00411242
6.00335e-05
0.00409352
5.36256e-05
0.00407656
4.82185e-05
0.00406133
4.35063e-05
0.0040477
3.90998e-05
0.00403563
3.48322e-05
0.00402509
3.06019e-05
0.00401601
2.65571e-05
0.00400832
2.25869e-05
0.00400186
1.89824e-05
0.00399644
1.58544e-05
0.00399186
1.3362e-05
0.00398796
1.12904e-05
0.00398456
9.69446e-06
0.00398156
8.46389e-06
0.00397887
7.71816e-06
0.00397644
6.92631e-06
0.00397422
6.27439e-06
0.0039722
5.68472e-06
0.00397036
5.29986e-06
0.00396871
4.75639e-06
0.00396723
4.24568e-06
0.00396591
3.73072e-06
0.00396477
3.5174e-06
0.0039638
2.97969e-06
0.003963
2.47176e-06
0.00396236
1.95231e-06
0.00396188
1.65513e-06
0.00396156
1.13088e-06
0.0039614
6.43731e-07
0.00396138
1.54357e-07
0.00396151
2.72922e-08
0.00396178
-4.68091e-07
0.00396219
-9.17557e-07
0.00396273
-1.37368e-06
0.00396339
-1.57823e-06
0.00396419
-2.02949e-06
0.0039651
-2.43305e-06
0.00396612
-2.8383e-06
0.00396725
-2.86249e-06
0.0039685
-3.27338e-06
0.00396984
-3.63418e-06
0.00397129
-4.00527e-06
0.00397282
-4.11287e-06
0.00397446
-4.48076e-06
0.00397618
-4.79851e-06
0.00397798
-5.12178e-06
0.00397986
-5.05591e-06
0.00398182
-5.38601e-06
0.00398385
-5.66328e-06
0.00398595
-5.9539e-06
0.00398811
-5.98002e-06
0.00399034
-6.26593e-06
0.00399263
-6.49827e-06
0.00399496
-6.7377e-06
0.00399734
-6.59134e-06
0.00399977
-6.83299e-06
0.00400224
-7.01711e-06
0.00400475
-7.21473e-06
0.00400728
-7.14305e-06
0.00400984
-7.32987e-06
0.00401242
-7.45799e-06
0.00401501
-7.59193e-06
0.00401761
-7.33708e-06
0.00402022
-7.46585e-06
0.00402282
-7.53231e-06
0.00402542
-7.61072e-06
0.004028
-7.42114e-06
0.00403057
-7.48156e-06
0.00403311
-7.47978e-06
0.00403562
-7.48284e-06
0.00403809
-7.10143e-06
0.00404052
-7.09619e-06
0.00404291
-7.02822e-06
0.00404525
-6.97498e-06
0.00404753
-6.65619e-06
0.00404975
-6.59126e-06
0.00405191
-6.46855e-06
0.004054
-6.35845e-06
0.00405602
-5.87287e-06
0.00405797
-5.77065e-06
0.00405985
-5.61509e-06
0.00406165
-5.48632e-06
0.00406338
-5.11138e-06
0.00406504
-4.99164e-06
0.00406662
-4.82498e-06
0.00406812
-4.6837e-06
0.00406955
-4.20523e-06
0.00407091
-4.08895e-06
0.0040722
-3.92981e-06
0.00407342
-3.8065e-06
0.00407457
-3.4664e-06
0.00407566
-3.3632e-06
0.00407669
-3.22219e-06
0.00407766
-3.1105e-06
0.00407856
-2.73469e-06
0.00407941
-2.64654e-06
0.00408022
-2.5258e-06
0.00408097
-2.43594e-06
0.00408167
-2.20469e-06
0.00408233
-2.12572e-06
0.00408294
-2.02242e-06
0.00408352
-1.93751e-06
0.00408405
-1.75793e-06
0.00408455
-1.67369e-06
0.00408502
-1.57731e-06
0.00408545
-1.48778e-06
0.00408586
-1.40797e-06
0.00408623
-1.28191e-06
0.00408658
-1.20364e-06
-6.81723e-07
0.00634387
0.00561008
0.00590982
0.00148693
0.00566913
0.000730593
0.00552327
0.000441978
0.00542324
0.000308222
0.0053485
0.000233705
0.00528941
0.000186714
0.00524096
0.000154298
0.00520018
0.00013056
0.00516521
0.000112461
0.00513475
9.83086e-05
0.00510791
8.68823e-05
0.00508405
7.75012e-05
0.00506271
6.95672e-05
0.00504361
6.26154e-05
0.0050266
5.6117e-05
0.0050116
4.98393e-05
0.00499855
4.36627e-05
0.00498734
3.7782e-05
0.00497783
3.21135e-05
0.0049698
2.7024e-05
0.00496301
2.26514e-05
0.00495722
1.91682e-05
0.00495222
1.63054e-05
0.00494782
1.40976e-05
0.0049439
1.23855e-05
0.00494037
1.12746e-05
0.00493717
1.01443e-05
0.00493426
9.19682e-06
0.00493162
8.33164e-06
0.00492923
7.70553e-06
0.00492709
6.90297e-06
0.0049252
6.14569e-06
0.00492353
5.388e-06
0.0049221
4.97294e-06
0.0049209
4.19335e-06
0.00491993
3.45685e-06
0.00491916
2.71153e-06
0.00491861
2.22239e-06
0.00491827
1.47892e-06
0.00491813
7.87113e-07
0.00491817
9.85757e-08
0.0049184
-1.7781e-07
0.00491881
-8.68161e-07
0.00491939
-1.49628e-06
0.00492014
-2.12785e-06
0.00492105
-2.47063e-06
0.00492211
-3.09108e-06
0.00492332
-3.64819e-06
0.00492467
-4.20271e-06
0.00492615
-4.32541e-06
0.00492777
-4.8844e-06
0.00492952
-5.37753e-06
0.00493138
-5.87946e-06
0.00493336
-6.08013e-06
0.00493545
-6.57491e-06
0.00493765
-7.00436e-06
0.00493995
-7.43632e-06
0.00494234
-7.42777e-06
0.00494482
-7.86652e-06
0.0049474
-8.23661e-06
0.00495005
-8.61915e-06
0.00495278
-8.69912e-06
0.00495558
-9.07259e-06
0.00495845
-9.37669e-06
0.00496138
-9.68476e-06
0.00496435
-9.55538e-06
0.00496739
-9.86378e-06
0.00497047
-1.00977e-05
0.00497358
-1.03436e-05
0.00497672
-1.02807e-05
0.0049799
-1.05091e-05
0.00498309
-1.06615e-05
0.00498629
-1.08158e-05
0.00498949
-1.05286e-05
0.0049927
-1.06733e-05
0.0049959
-1.07377e-05
0.00499908
-1.08118e-05
0.00500225
-1.05783e-05
0.00500538
-1.06261e-05
0.00500848
-1.05942e-05
0.00501154
-1.05632e-05
0.00501454
-1.00961e-05
0.0050175
-1.0053e-05
0.00502039
-9.93021e-06
0.00502322
-9.82153e-06
0.00502598
-9.40974e-06
0.00502866
-9.28512e-06
0.00503127
-9.08795e-06
0.00503379
-8.90298e-06
0.00503622
-8.29492e-06
0.00503857
-8.12113e-06
0.00504083
-7.88132e-06
0.00504299
-7.67228e-06
0.00504507
-7.18509e-06
0.00504706
-6.98917e-06
0.00504895
-6.73631e-06
0.00505076
-6.51304e-06
0.00505247
-5.9125e-06
0.0050541
-5.72431e-06
0.00505564
-5.48482e-06
0.0050571
-5.28846e-06
0.00505848
-4.84925e-06
0.00505979
-4.6817e-06
0.00506101
-4.46962e-06
0.00506217
-4.29318e-06
0.00506325
-3.82291e-06
0.00506427
-3.68048e-06
0.00506523
-3.49986e-06
0.00506613
-3.35746e-06
0.00506697
-3.05795e-06
0.00506776
-2.93323e-06
0.00506849
-2.77972e-06
0.00506918
-2.65082e-06
0.00506982
-2.42039e-06
0.00507042
-2.29652e-06
0.00507098
-2.15676e-06
0.0050715
-2.02972e-06
0.00507199
-1.91839e-06
0.00507242
-1.74389e-06
0.00507285
-1.58942e-06
-8.54427e-07
0.00782498
0.00642457
0.00732968
0.00198224
0.00702382
0.00103647
0.00683327
0.000632543
0.00670272
0.000438781
0.00660585
0.000330578
0.00652982
0.000262755
0.00646782
0.000216312
0.00641588
0.000182512
0.00637148
0.000156867
0.00633293
0.00013687
0.00629905
0.000120773
0.00626901
0.000107558
0.00624222
9.63601e-05
0.00621834
8.65098e-05
0.00619716
7.73113e-05
0.00617854
6.84606e-05
0.00616238
5.98291e-05
0.00614851
5.16739e-05
0.0061367
4.39419e-05
0.00612665
3.70794e-05
0.00611807
3.12415e-05
0.00611066
2.66001e-05
0.00610416
2.28106e-05
0.00609839
1.9875e-05
0.0060932
1.75746e-05
0.00608851
1.59995e-05
0.00608424
1.44264e-05
0.00608037
1.30795e-05
0.00607687
1.18352e-05
0.00607373
1.08697e-05
0.00607093
9.70896e-06
0.00606847
8.6108e-06
0.00606633
7.52005e-06
0.0060645
6.82413e-06
0.00606299
5.72127e-06
0.00606178
4.6807e-06
0.00606085
3.63794e-06
0.00606019
2.89408e-06
0.00605981
1.86806e-06
0.00605968
9.13295e-07
0.00605979
-2.93112e-08
0.00606014
-4.99249e-07
0.00606072
-1.43359e-06
0.00606151
-2.28549e-06
0.00606251
-3.13542e-06
0.00606371
-3.65231e-06
0.0060651
-4.48039e-06
0.00606667
-5.22651e-06
0.00606842
-5.9639e-06
0.00607032
-6.20952e-06
0.00607239
-6.94723e-06
0.00607462
-7.60095e-06
0.00607699
-8.26052e-06
0.0060795
-8.57501e-06
0.00608214
-9.22076e-06
0.00608491
-9.78398e-06
0.0060878
-1.03451e-05
0.0060908
-1.04056e-05
0.00609391
-1.09713e-05
0.00609713
-1.14507e-05
0.00610043
-1.19401e-05
0.00610383
-1.20832e-05
0.00610731
-1.25567e-05
0.00611086
-1.29431e-05
0.00611448
-1.33288e-05
0.00611816
-1.32167e-05
0.0061219
-1.35985e-05
0.00612569
-1.3887e-05
0.00612951
-1.41842e-05
0.00613337
-1.41275e-05
0.00613725
-1.43979e-05
0.00614115
-1.45734e-05
0.00614505
-1.4745e-05
0.00614895
-1.44137e-05
0.00615285
-1.45693e-05
0.00615673
-1.46248e-05
0.00616059
-1.46864e-05
0.00616441
-1.43953e-05
0.0061682
-1.44202e-05
0.00617193
-1.43465e-05
0.00617561
-1.42687e-05
0.00617922
-1.36952e-05
0.00618277
-1.36004e-05
0.00618624
-1.34081e-05
0.00618963
-1.32285e-05
0.00619293
-1.27036e-05
0.00619614
-1.25032e-05
0.00619925
-1.22151e-05
0.00620225
-1.19382e-05
0.00620516
-1.1183e-05
0.00620795
-1.09209e-05
0.00621065
-1.058e-05
0.00621323
-1.02737e-05
0.0062157
-9.65324e-06
0.00621806
-9.36479e-06
0.00622032
-9.00933e-06
0.00622247
-8.68786e-06
0.0062245
-7.9425e-06
0.00622644
-7.66747e-06
0.00622828
-7.3328e-06
0.00623002
-7.04912e-06
0.00623166
-6.49297e-06
0.00623321
-6.24801e-06
0.00623467
-5.95207e-06
0.00623605
-5.69857e-06
0.00623734
-5.11568e-06
0.00623856
-4.90804e-06
0.0062397
-4.65735e-06
0.00624077
-4.45238e-06
0.00624177
-4.07144e-06
0.0062427
-3.89197e-06
0.00624358
-3.68183e-06
0.0062444
-3.50081e-06
0.00624517
-3.2035e-06
0.00624588
-3.03263e-06
0.00624655
-2.8487e-06
0.00624717
-2.67756e-06
0.00624775
-2.52322e-06
0.00624827
-2.29248e-06
0.00624879
-2.1714e-06
-1.20771e-06
0.00958314
0.0071224
0.00904307
0.00252233
0.00866539
0.00141415
0.00841973
0.000878216
0.00825013
0.000608394
0.0081247
0.000456013
0.0080268
0.000360664
0.00794739
0.000295735
0.00788116
0.000248751
0.00782476
0.000213275
0.00777594
0.000185698
0.00773316
0.000163567
0.00769533
0.000145404
0.0076617
0.000129994
0.00763182
0.000116403
0.0076054
0.000103739
0.00758225
9.16192e-05
0.00756217
7.99151e-05
0.00754491
6.89564e-05
0.00753012
5.87351e-05
0.00751745
4.97702e-05
0.00750648
4.22165e-05
0.00749687
3.6222e-05
0.00748834
3.13483e-05
0.00748068
2.75458e-05
0.00747374
2.45221e-05
0.00746742
2.23404e-05
0.00746167
2.01853e-05
0.00745646
1.82991e-05
0.00745177
1.65351e-05
0.00744757
1.50881e-05
0.00744385
1.34352e-05
0.00744059
1.18696e-05
0.00743778
1.03252e-05
0.0074354
9.22627e-06
0.00743344
7.69399e-06
0.00743188
6.25175e-06
0.0074307
4.81974e-06
0.00742988
3.73078e-06
0.0074294
2.34308e-06
0.00742926
1.05382e-06
0.00742943
-2.10124e-07
0.0074299
-9.46465e-07
0.00743066
-2.18303e-06
0.00743169
-3.31133e-06
0.00743298
-4.42986e-06
0.00743451
-5.17318e-06
0.00743629
-6.25259e-06
0.00743828
-7.22657e-06
0.00744049
-8.18419e-06
0.0074429
-8.59846e-06
0.0074455
-9.5477e-06
0.0074483
-1.03909e-05
0.00745126
-1.12365e-05
0.00745439
-1.16969e-05
0.00745769
-1.25181e-05
0.00746114
-1.32355e-05
0.00746472
-1.39459e-05
0.00746844
-1.41049e-05
0.00747228
-1.48144e-05
0.00747625
-1.54163e-05
0.00748032
-1.6026e-05
0.0074845
-1.62494e-05
0.00748877
-1.68328e-05
0.00749313
-1.73075e-05
0.00749756
-1.77764e-05
0.00750205
-1.76965e-05
0.00750661
-1.81542e-05
0.00751121
-1.84963e-05
0.00751586
-1.8844e-05
0.00752053
-1.87965e-05
0.00752523
-1.91046e-05
0.00752995
-1.92952e-05
0.00753466
-1.9476e-05
0.00753936
-1.91021e-05
0.00754404
-1.92576e-05
0.00754871
-1.92904e-05
0.00755333
-1.9326e-05
0.00755791
-1.89685e-05
0.00756243
-1.89548e-05
0.0075669
-1.88207e-05
0.00757128
-1.8678e-05
0.00757559
-1.79903e-05
0.00757981
-1.78245e-05
0.00758394
-1.75411e-05
0.00758796
-1.72703e-05
0.00759188
-1.66172e-05
0.00759568
-1.63199e-05
0.00759937
-1.59175e-05
0.00760294
-1.55263e-05
0.00760638
-1.46134e-05
0.0076097
-1.42409e-05
0.00761289
-1.37752e-05
0.00761594
-1.33497e-05
0.00761887
-1.25801e-05
0.00762168
-1.21776e-05
0.00762435
-1.16965e-05
0.00762689
-1.12555e-05
0.00762931
-1.03551e-05
0.00763161
-9.97283e-06
0.00763379
-9.52183e-06
0.00763585
-9.13145e-06
0.0076378
-8.44518e-06
0.00763964
-8.10456e-06
0.00764138
-7.70574e-06
0.00764302
-7.35786e-06
0.00764455
-6.65528e-06
0.007646
-6.36658e-06
0.00764736
-6.02927e-06
0.00764863
-5.74726e-06
0.00764982
-5.27595e-06
0.00765094
-5.02862e-06
0.00765199
-4.74639e-06
0.00765296
-4.50122e-06
0.00765388
-4.13617e-06
0.00765473
-3.90767e-06
0.00765553
-3.66314e-06
0.00765627
-3.43821e-06
0.00765696
-3.23935e-06
0.00765759
-2.93914e-06
0.0076582
-2.73289e-06
-1.4453e-06
0.0116649
0.00769186
0.0111083
0.00307894
0.0106582
0.00186425
0.0103471
0.00118939
0.0101283
0.000827206
0.00996615
0.000618159
0.00984001
0.00048682
0.00973812
0.000397629
0.0096535
0.000333378
0.00958171
0.000285079
0.00951977
0.000247654
0.00946564
0.000217707
0.0094179
0.000193149
0.0093756
0.000172302
0.00933812
0.000153897
0.00930507
0.000136802
0.00927615
0.000120549
0.00925105
0.000105015
0.00922941
9.06218e-05
0.00921075
7.74026e-05
0.00919459
6.59447e-05
0.00918043
5.63799e-05
0.00916787
4.88068e-05
0.00915657
4.26577e-05
0.00914631
3.7813e-05
0.00913694
3.38912e-05
0.00912838
3.09289e-05
0.00912057
2.80038e-05
0.0091135
2.53867e-05
0.00910713
2.29089e-05
0.00910144
2.07943e-05
0.00909642
1.84636e-05
0.00909204
1.62545e-05
0.00908827
1.40886e-05
0.00908508
1.24382e-05
0.00908246
1.03292e-05
0.00908037
8.34991e-06
0.00907879
6.40161e-06
0.00907768
4.85629e-06
0.00907703
2.99809e-06
0.00907681
1.27546e-06
0.00907699
-4.02736e-07
0.00907755
-1.48119e-06
0.00907847
-3.09981e-06
0.00907974
-4.577e-06
0.00908134
-6.03281e-06
0.00908324
-7.05968e-06
0.00908544
-8.44977e-06
0.00908791
-9.70545e-06
0.00909064
-1.09347e-05
0.00909362
-1.15547e-05
0.00909684
-1.27602e-05
0.00910029
-1.38333e-05
0.00910394
-1.49036e-05
0.0091078
-1.55391e-05
0.00911185
-1.65691e-05
0.00911608
-1.74704e-05
0.00912047
-1.83583e-05
0.00912501
-1.86307e-05
0.00912971
-1.95077e-05
0.00913455
-2.02524e-05
0.00913951
-2.10014e-05
0.00914459
-2.13154e-05
0.00914977
-2.20233e-05
0.00915506
-2.25978e-05
0.00916042
-2.31602e-05
0.00916585
-2.31099e-05
0.00917134
-2.36496e-05
0.00917689
-2.40482e-05
0.00918248
-2.44483e-05
0.0091881
-2.44035e-05
0.00919373
-2.47474e-05
0.00919938
-2.49483e-05
0.00920501
-2.51327e-05
0.00921062
-2.46984e-05
0.00921621
-2.48452e-05
0.00922176
-2.48442e-05
0.00922725
-2.48424e-05
0.00923269
-2.43993e-05
0.00923806
-2.43331e-05
0.00924335
-2.41231e-05
0.00924855
-2.38997e-05
0.00925364
-2.30707e-05
0.00925863
-2.28168e-05
0.00926351
-2.2424e-05
0.00926826
-2.20438e-05
0.00927289
-2.12376e-05
0.00927738
-2.08243e-05
0.00928174
-2.02876e-05
0.00928595
-1.97627e-05
0.00929001
-1.86615e-05
0.00929392
-1.81589e-05
0.00929769
-1.75478e-05
0.00930131
-1.69834e-05
0.00930477
-1.60385e-05
0.00930808
-1.55022e-05
0.00931125
-1.48753e-05
0.00931426
-1.42954e-05
0.00931712
-1.3211e-05
0.00931985
-1.27029e-05
0.00932243
-1.21164e-05
0.00932488
-1.16017e-05
0.0093272
-1.0762e-05
0.00932939
-1.03089e-05
0.00933145
-9.79018e-06
0.0093334
-9.33227e-06
0.00933523
-8.4858e-06
0.00933695
-8.1015e-06
0.00933857
-7.66342e-06
0.00934009
-7.29107e-06
0.00934151
-6.71143e-06
0.00934285
-6.38398e-06
0.0093441
-6.01999e-06
0.00934527
-5.69981e-06
0.00934636
-5.24552e-06
0.00934739
-4.9494e-06
0.00934834
-4.64132e-06
0.00934923
-4.35385e-06
0.00935006
-4.09414e-06
0.00935082
-3.71533e-06
0.00935155
-3.5435e-06
-1.93568e-06
0.0141222
0.00812862
0.0135876
0.00361352
0.013076
0.00237594
0.0126916
0.0015738
0.0124125
0.00110628
0.0122038
0.000826905
0.0120413
0.000649313
0.0119104
0.00052854
0.011802
0.000441748
0.0117104
0.000376725
0.0116316
0.000326482
0.0115629
0.000286396
0.0115025
0.00025356
0.0114491
0.000225694
0.0114019
0.000201102
0.0113604
0.000178362
0.011324
0.000156899
0.0112925
0.000136603
0.0112651
0.000117995
0.0112414
0.00010116
0.0112206
8.67376e-05
0.0112022
7.48052e-05
0.0111856
6.53748e-05
0.0111705
5.77182e-05
0.0111568
5.16165e-05
0.0111441
4.65784e-05
0.0111324
4.26005e-05
0.0111218
3.86649e-05
0.0111121
3.50689e-05
0.0111034
3.1625e-05
0.0110956
2.85887e-05
0.0110887
2.53368e-05
0.0110828
2.22526e-05
0.0110776
1.92449e-05
0.0110732
1.68277e-05
0.0110696
1.39498e-05
0.0110667
1.12566e-05
0.0110645
8.62719e-06
0.0110629
6.46877e-06
0.0110619
4.00066e-06
0.0110615
1.71872e-06
0.0110615
-4.91093e-07
0.0110621
-2.03016e-06
0.0110631
-4.1299e-06
0.0110646
-6.04555e-06
0.0110665
-7.9228e-06
0.0110688
-9.31607e-06
0.0110714
-1.1088e-05
0.0110744
-1.2689e-05
0.0110777
-1.425e-05
0.0110813
-1.51421e-05
0.0110852
-1.66547e-05
0.0110894
-1.80027e-05
0.0110938
-1.93411e-05
0.0110985
-2.01972e-05
0.0111034
-2.1472e-05
0.0111085
-2.25877e-05
0.0111138
-2.36824e-05
0.0111193
-2.41058e-05
0.0111249
-2.51733e-05
0.0111308
-2.60794e-05
0.0111367
-2.69858e-05
0.0111428
-2.74111e-05
0.0111491
-2.82559e-05
0.0111554
-2.89377e-05
0.0111618
-2.96006e-05
0.0111683
-2.95953e-05
0.0111749
-3.02187e-05
0.0111815
-3.06716e-05
0.0111882
-3.11218e-05
0.0111949
-3.10807e-05
0.0112016
-3.14536e-05
0.0112083
-3.16537e-05
0.0112149
-3.18309e-05
0.0112216
-3.13347e-05
0.0112282
-3.14583e-05
0.0112348
-3.1406e-05
0.0112412
-3.13502e-05
0.0112477
-3.08092e-05
0.011254
-3.06714e-05
0.0112602
-3.03631e-05
0.0112663
-3.0038e-05
0.0112723
-2.90573e-05
0.0112782
-2.86928e-05
0.0112839
-2.81657e-05
0.0112895
-2.76531e-05
0.011295
-2.66761e-05
0.0113003
-2.61229e-05
0.0113054
-2.5425e-05
0.0113103
-2.47416e-05
0.0113151
-2.34385e-05
0.0113197
-2.27801e-05
0.0113242
-2.19962e-05
0.0113285
-2.12676e-05
0.0113326
-2.01277e-05
0.0113365
-1.9432e-05
0.0113402
-1.86317e-05
0.0113438
-1.78873e-05
0.0113472
-1.66042e-05
0.0113504
-1.59449e-05
0.0113535
-1.51966e-05
0.0113564
-1.45331e-05
0.0113592
-1.35218e-05
0.0113618
-1.29328e-05
0.0113642
-1.22696e-05
0.0113666
-1.16792e-05
0.0113687
-1.06768e-05
0.0113708
-1.01757e-05
0.0113727
-9.61488e-06
0.0113746
-9.13275e-06
0.0113763
-8.43113e-06
0.0113779
-8.00559e-06
0.0113794
-7.53937e-06
0.0113808
-7.12745e-06
0.0113821
-6.57983e-06
0.0113833
-6.20094e-06
0.0113845
-5.80824e-06
0.0113856
-5.44416e-06
0.0113866
-5.11995e-06
0.0113875
-4.64317e-06
0.0113884
-4.37763e-06
-2.30416e-06
0.0170157
0.00843815
0.0165448
0.00408443
0.0160001
0.00292066
0.0155424
0.00203148
0.0151931
0.0014556
0.0149266
0.00109339
0.0147179
0.000858018
0.0145497
0.000696758
0.0144107
0.000580759
0.0142935
0.000493993
0.0141929
0.000427085
0.0141055
0.00037383
0.0140288
0.000330269
0.0139611
0.000293342
0.0139014
0.00026081
0.0138489
0.000230887
0.0138029
0.000202867
0.0137629
0.000176649
0.0137281
0.000152866
0.0136976
0.000131644
0.0136707
0.000113663
0.0136466
9.89123e-05
0.0136247
8.72784e-05
0.0136046
7.7821e-05
0.013586
7.01909e-05
0.0135688
6.37609e-05
0.013553
5.84856e-05
0.0135384
5.32316e-05
0.0135252
4.83371e-05
0.0135132
4.35982e-05
0.0135025
3.9318e-05
0.013493
3.4823e-05
0.0134847
3.05552e-05
0.0134776
2.64101e-05
0.0134715
2.29592e-05
0.0134664
1.90525e-05
0.0134622
1.54063e-05
0.013459
1.18722e-05
0.0134566
8.90214e-06
0.0134549
5.63437e-06
0.013454
2.62125e-06
0.0134538
-2.80978e-07
0.0134542
-2.4165e-06
0.0134552
-5.13339e-06
0.0134568
-7.61033e-06
0.0134589
-1.00244e-05
0.0134615
-1.18821e-05
0.0134645
-1.41334e-05
0.013468
-1.61676e-05
0.0134719
-1.81437e-05
0.0134761
-1.93717e-05
0.0134807
-2.12617e-05
0.0134857
-2.29475e-05
0.0134909
-2.46141e-05
0.0134965
-2.57375e-05
0.0135023
-2.73073e-05
0.0135084
-2.86816e-05
0.0135147
-3.00253e-05
0.0135213
-3.06245e-05
0.013528
-3.19164e-05
0.013535
-3.30124e-05
0.0135421
-3.41031e-05
0.0135493
-3.46553e-05
0.0135567
-3.56569e-05
0.0135642
-3.6461e-05
0.0135718
-3.72383e-05
0.0135795
-3.72763e-05
0.0135873
-3.79911e-05
0.0135951
-3.85015e-05
0.013603
-3.90044e-05
0.0136109
-3.89593e-05
0.0136188
-3.93585e-05
0.0136267
-3.95517e-05
0.0136345
-3.97154e-05
0.0136424
-3.91365e-05
0.0136501
-3.92268e-05
0.0136578
-3.91099e-05
0.0136654
-3.89874e-05
0.013673
-3.83269e-05
0.0136804
-3.81023e-05
0.0136877
-3.76782e-05
0.0136949
-3.7235e-05
0.0137019
-3.60727e-05
0.0137088
-3.55794e-05
0.0137155
-3.48978e-05
0.0137221
-3.42339e-05
0.0137285
-3.30588e-05
0.0137347
-3.23452e-05
0.0137407
-3.14644e-05
0.0137465
-3.06016e-05
0.0137522
-2.90624e-05
0.0137576
-2.82261e-05
0.0137629
-2.72456e-05
0.0137679
-2.63301e-05
0.0137727
-2.49648e-05
0.0137774
-2.40863e-05
0.0137818
-2.30874e-05
0.0137861
-2.21553e-05
0.0137901
-2.0638e-05
0.013794
-1.98037e-05
0.0137976
-1.88684e-05
0.0138011
-1.80332e-05
0.0138044
-1.68201e-05
0.0138075
-1.60723e-05
0.0138105
-1.5241e-05
0.0138133
-1.44966e-05
0.0138159
-1.33065e-05
0.0138184
-1.26678e-05
0.0138207
-1.19636e-05
0.0138229
-1.13524e-05
0.013825
-1.0504e-05
0.0138269
-9.96222e-06
0.0138287
-9.37828e-06
0.0138304
-8.85851e-06
0.013832
-8.18881e-06
0.0138335
-7.7122e-06
0.0138349
-7.22729e-06
0.0138362
-6.77347e-06
0.0138374
-6.36184e-06
0.0138385
-5.77421e-06
0.0138396
-5.53792e-06
-3.00555e-06
0.0204181
0.00863713
0.020045
0.00445746
0.0195159
0.00344977
0.0190009
0.00254656
0.0185768
0.00187967
0.018242
0.00142825
0.0179759
0.00112411
0.0177603
0.000912347
0.017582
0.000759092
0.0174317
0.000644297
0.017303
0.000555803
0.0171913
0.000485477
0.0170936
0.000428027
0.0170075
0.000379411
0.0169317
0.000336698
0.0168649
0.000297649
0.0168064
0.000261383
0.0167553
0.000227789
0.0167105
0.000197612
0.0166712
0.000171024
0.0166361
0.000148722
0.0166045
0.000130569
0.0165755
0.000116276
0.0165487
0.000104642
0.0165237
9.51448e-05
0.0165005
8.69843e-05
0.016479
8.00502e-05
0.0164591
7.31017e-05
0.016441
6.65141e-05
0.0164245
6.0071e-05
0.0164097
5.41306e-05
0.0163965
4.79848e-05
0.016385
4.21397e-05
0.0163749
3.64787e-05
0.0163662
3.16265e-05
0.016359
2.63559e-05
0.0163529
2.14461e-05
0.0163481
1.67174e-05
0.0163443
1.26629e-05
0.0163416
8.34958e-06
0.0163399
4.38215e-06
0.016339
5.80761e-07
0.0163389
-2.35299e-06
0.0163397
-5.86133e-06
0.0163411
-9.05742e-06
0.0163433
-1.21553e-05
0.016346
-1.46179e-05
0.0163493
-1.74716e-05
0.0163532
-2.00492e-05
0.0163576
-2.25436e-05