/*--------------------------------*- C++ -*----------------------------------*\
  =========                 |
  \\      /  F ield         | OpenFOAM: The Open Source CFD Toolbox
   \\    /   O peration     | Website:  https://openfoam.org
    \\  /    A nd           | Version:  8
     \\/     M anipulation  |
\*---------------------------------------------------------------------------*/
FoamFile
{
    version     2.0;
    format      ascii;
    class       volVectorField;
    location    "400";
    object      U;
}
// * * * * * * * * * * * * * * * * * * * * * * * * * * * * * * * * * * * * * //

dimensions      [0 1 -1 0 0 0 0];

internalField   nonuniform List<vector> 
7320
(
(22.6428 -0.848127 0)
(20.299 -0.0156861 0)
(19.4729 0.000192635 0)
(18.9932 0.000303962 0)
(18.6577 0.000224077 0)
(18.4025 0.000174521 0)
(18.1985 0.000141885 0)
(18.0298 0.000118598 0)
(17.8872 0.000101168 0)
(17.7644 8.76481e-05 0)
(17.6573 7.71165e-05 0)
(17.5627 6.84091e-05 0)
(17.4783 6.12734e-05 0)
(17.4024 5.53161e-05 0)
(17.3337 5.03765e-05 0)
(17.2714 4.57745e-05 0)
(17.2151 4.14009e-05 0)
(17.1648 3.70139e-05 0)
(17.1206 3.30289e-05 0)
(17.0824 2.85694e-05 0)
(17.05 2.43e-05 0)
(17.0228 2.03578e-05 0)
(17.0002 1.73031e-05 0)
(16.9813 1.44053e-05 0)
(16.9654 1.20981e-05 0)
(16.9517 1.02472e-05 0)
(16.9397 9.66093e-06 0)
(16.9291 8.47113e-06 0)
(16.9194 7.52621e-06 0)
(16.9106 6.6635e-06 0)
(16.9025 6.54766e-06 0)
(16.8951 5.78971e-06 0)
(16.8884 5.11352e-06 0)
(16.8822 4.3929e-06 0)
(16.8767 4.90591e-06 0)
(16.8718 4.15452e-06 0)
(16.8676 3.46011e-06 0)
(16.864 2.69087e-06 0)
(16.861 2.80776e-06 0)
(16.8586 2.02071e-06 0)
(16.8569 1.318e-06 0)
(16.8557 5.46502e-07 0)
(16.8552 1.23972e-06 0)
(16.8553 4.59153e-07 0)
(16.8559 -2.31894e-07 0)
(16.8572 -1.00017e-06 0)
(16.859 -7.65475e-07 0)
(16.8613 -1.53128e-06 0)
(16.8641 -2.18367e-06 0)
(16.8675 -2.90698e-06 0)
(16.8713 -2.07156e-06 0)
(16.8757 -2.79466e-06 0)
(16.8805 -3.40463e-06 0)
(16.8857 -4.10673e-06 0)
(16.8914 -3.74239e-06 0)
(16.8975 -4.43743e-06 0)
(16.9041 -5.00322e-06 0)
(16.911 -5.65456e-06 0)
(16.9182 -4.69986e-06 0)
(16.9259 -5.34947e-06 0)
(16.9339 -5.872e-06 0)
(16.9423 -6.50039e-06 0)
(16.9509 -6.05312e-06 0)
(16.9599 -6.67181e-06 0)
(16.9691 -7.14818e-06 0)
(16.9787 -7.72071e-06 0)
(16.9884 -6.70023e-06 0)
(16.9985 -7.26526e-06 0)
(17.0087 -7.68799e-06 0)
(17.0192 -8.22539e-06 0)
(17.0298 -7.67185e-06 0)
(17.0406 -8.19176e-06 0)
(17.0516 -8.55597e-06 0)
(17.0627 -9.02153e-06 0)
(17.0738 -7.88933e-06 0)
(17.0851 -8.3383e-06 0)
(17.0964 -8.63331e-06 0)
(17.1078 -9.0459e-06 0)
(17.1192 -8.3817e-06 0)
(17.1305 -8.76565e-06 0)
(17.1418 -8.98352e-06 0)
(17.1531 -9.302e-06 0)
(17.1642 -8.04424e-06 0)
(17.1753 -8.33655e-06 0)
(17.1862 -8.46645e-06 0)
(17.1969 -8.71733e-06 0)
(17.2074 -7.89153e-06 0)
(17.2178 -8.11366e-06 0)
(17.2279 -8.16782e-06 0)
(17.2377 -8.33111e-06 0)
(17.2472 -6.93445e-06 0)
(17.2565 -7.08619e-06 0)
(17.2654 -7.0829e-06 0)
(17.2741 -7.21578e-06 0)
(17.2824 -6.3249e-06 0)
(17.2904 -6.45161e-06 0)
(17.298 -6.42077e-06 0)
(17.3053 -6.51302e-06 0)
(17.3123 -5.18414e-06 0)
(17.319 -5.28392e-06 0)
(17.3253 -5.24024e-06 0)
(17.3313 -5.33963e-06 0)
(17.337 -4.52236e-06 0)
(17.3424 -4.62464e-06 0)
(17.3475 -4.58489e-06 0)
(17.3523 -4.66038e-06 0)
(17.3568 -3.61991e-06 0)
(17.3611 -3.6934e-06 0)
(17.3651 -3.64583e-06 0)
(17.3688 -3.7092e-06 0)
(17.3723 -3.17305e-06 0)
(17.3756 -3.21372e-06 0)
(17.3787 -3.14809e-06 0)
(17.3816 -3.14562e-06 0)
(17.3843 -2.75098e-06 0)
(17.3868 -2.70003e-06 0)
(17.3892 -2.57338e-06 0)
(17.3914 -2.47489e-06 0)
(17.3934 -2.40634e-06 0)
(17.3954 -2.2162e-06 0)
(17.397 -1.70164e-06 0)
(17.3988 -9.75777e-07 0)
(26.6037 0.167141 0)
(23.9491 0.00743124 0)
(22.9106 0.00132391 0)
(22.324 0.000761714 0)
(21.922 0.000547889 0)
(21.6197 0.000425021 0)
(21.3794 0.000344732 0)
(21.1815 0.000287768 0)
(21.0145 0.00024525 0)
(20.8711 0.000212361 0)
(20.7461 0.000186571 0)
(20.6358 0.000165462 0)
(20.5376 0.000148155 0)
(20.4493 0.000133662 0)
(20.3695 0.000121351 0)
(20.2973 0.000109902 0)
(20.2324 9.88913e-05 0)
(20.1747 8.78564e-05 0)
(20.1242 7.74e-05 0)
(20.0808 6.64501e-05 0)
(20.0442 5.61657e-05 0)
(20.0136 4.69079e-05 0)
(19.9881 3.9539e-05 0)
(19.9669 3.3031e-05 0)
(19.9488 2.79349e-05 0)
(19.9333 2.39534e-05 0)
(19.9196 2.2071e-05 0)
(19.9074 1.95623e-05 0)
(19.8962 1.75686e-05 0)
(19.8861 1.57891e-05 0)
(19.8768 1.50923e-05 0)
(19.8682 1.35079e-05 0)
(19.8605 1.20618e-05 0)
(19.8535 1.0569e-05 0)
(19.8472 1.07755e-05 0)
(19.8417 9.19095e-06 0)
(19.8369 7.71368e-06 0)
(19.8329 6.1443e-06 0)
(19.8297 5.80028e-06 0)
(19.8272 4.18528e-06 0)
(19.8254 2.71232e-06 0)
(19.8244 1.16943e-06 0)
(19.824 1.65219e-06 0)
(19.8244 6.64482e-08 0)
(19.8255 -1.34883e-06 0)
(19.8272 -2.84658e-06 0)
(19.8296 -2.95312e-06 0)
(19.8326 -4.45594e-06 0)
(19.8362 -5.76602e-06 0)
(19.8404 -7.14279e-06 0)
(19.8452 -6.36692e-06 0)
(19.8505 -7.77331e-06 0)
(19.8564 -8.9762e-06 0)
(19.8628 -1.02807e-05 0)
(19.8697 -1.01099e-05 0)
(19.8771 -1.14159e-05 0)
(19.8849 -1.25083e-05 0)
(19.8932 -1.36872e-05 0)
(19.9019 -1.26518e-05 0)
(19.9111 -1.38603e-05 0)
(19.9206 -1.48463e-05 0)
(19.9305 -1.59523e-05 0)
(19.9408 -1.55716e-05 0)
(19.9515 -1.66738e-05 0)
(19.9624 -1.75437e-05 0)
(19.9737 -1.85135e-05 0)
(19.9852 -1.72867e-05 0)
(19.997 -1.82726e-05 0)
(20.0091 -1.90136e-05 0)
(20.0214 -1.98839e-05 0)
(20.0339 -1.92442e-05 0)
(20.0466 -2.0093e-05 0)
(20.0594 -2.06878e-05 0)
(20.0724 -2.13854e-05 0)
(20.0854 -1.98762e-05 0)
(20.0985 -2.05679e-05 0)
(20.1117 -2.09947e-05 0)
(20.1249 -2.15503e-05 0)
(20.1381 -2.06111e-05 0)
(20.1513 -2.11197e-05 0)
(20.1644 -2.1357e-05 0)
(20.1774 -2.16929e-05 0)
(20.1902 -1.98491e-05 0)
(20.203 -2.01603e-05 0)
(20.2155 -2.01958e-05 0)
(20.2278 -2.03657e-05 0)
(20.2399 -1.90436e-05 0)
(20.2517 -1.91729e-05 0)
(20.2632 -1.90348e-05 0)
(20.2744 -1.9015e-05 0)
(20.2853 -1.68467e-05 0)
(20.2958 -1.68412e-05 0)
(20.306 -1.65824e-05 0)
(20.3158 -1.64927e-05 0)
(20.3252 -1.49967e-05 0)
(20.3342 -1.4923e-05 0)
(20.3429 -1.4611e-05 0)
(20.3511 -1.44535e-05 0)
(20.359 -1.23512e-05 0)
(20.3665 -1.22561e-05 0)
(20.3736 -1.19391e-05 0)
(20.3804 -1.18147e-05 0)
(20.3868 -1.04407e-05 0)
(20.3928 -1.03614e-05 0)
(20.3985 -1.00764e-05 0)
(20.4039 -9.94665e-06 0)
(20.409 -8.29433e-06 0)
(20.4137 -8.21453e-06 0)
(20.4182 -7.95628e-06 0)
(20.4224 -7.85237e-06 0)
(20.4263 -6.93338e-06 0)
(20.43 -6.83288e-06 0)
(20.4335 -6.5901e-06 0)
(20.4367 -6.43356e-06 0)
(20.4397 -5.73222e-06 0)
(20.4425 -5.53563e-06 0)
(20.4452 -5.25338e-06 0)
(20.4476 -5.00075e-06 0)
(20.4499 -4.78596e-06 0)
(20.452 -4.38369e-06 0)
(20.4539 -3.92296e-06 0)
(20.4559 -2.30538e-06 0)
(28.9497 0.098477 0)
(26.1304 0.00639138 0)
(24.9213 0.00233859 0)
(24.2467 0.00142182 0)
(23.7931 0.00101511 0)
(23.4561 0.000783204 0)
(23.1902 0.000633169 0)
(22.9724 0.000527466 0)
(22.7892 0.000448901 0)
(22.6322 0.000388322 0)
(22.4956 0.000340784 0)
(22.3754 0.000302056 0)
(22.2683 0.000270292 0)
(22.1723 0.000243619 0)
(22.0858 0.000220694 0)
(22.0078 0.000199307 0)
(21.9379 0.000178619 0)
(21.8761 0.000157917 0)
(21.8223 0.000138111 0)
(21.7763 0.00011796 0)
(21.7376 9.92903e-05 0)
(21.7052 8.27527e-05 0)
(21.6782 6.95661e-05 0)
(21.6555 5.82771e-05 0)
(21.6362 4.95319e-05 0)
(21.6194 4.27774e-05 0)
(21.6045 3.91885e-05 0)
(21.5911 3.49473e-05 0)
(21.5789 3.15455e-05 0)
(21.5678 2.85054e-05 0)
(21.5576 2.69592e-05 0)
(21.5484 2.42077e-05 0)
(21.54 2.16589e-05 0)
(21.5325 1.90534e-05 0)
(21.5258 1.87311e-05 0)
(21.5199 1.59655e-05 0)
(21.515 1.33677e-05 0)
(21.5109 1.06548e-05 0)
(21.5076 9.60102e-06 0)
(21.5052 6.82152e-06 0)
(21.5036 4.26035e-06 0)
(21.5028 1.63062e-06 0)
(21.5027 1.73777e-06 0)
(21.5035 -9.56581e-07 0)
(21.505 -3.37921e-06 0)
(21.5072 -5.89346e-06 0)
(21.5101 -6.51826e-06 0)
(21.5137 -9.03014e-06 0)
(21.518 -1.12469e-05 0)
(21.5229 -1.35268e-05 0)
(21.5283 -1.29004e-05 0)
(21.5344 -1.5227e-05 0)
(21.5411 -1.72407e-05 0)
(21.5484 -1.93714e-05 0)
(21.5561 -1.95024e-05 0)
(21.5644 -2.163e-05 0)
(21.5732 -2.34362e-05 0)
(21.5825 -2.53333e-05 0)
(21.5922 -2.42436e-05 0)
(21.6024 -2.61896e-05 0)
(21.6129 -2.77981e-05 0)
(21.6239 -2.95482e-05 0)
(21.6353 -2.92833e-05 0)
(21.647 -3.10215e-05 0)
(21.6591 -3.24121e-05 0)
(21.6715 -3.39101e-05 0)
(21.6841 -3.24432e-05 0)
(21.697 -3.39659e-05 0)
(21.7102 -3.51184e-05 0)
(21.7237 -3.64215e-05 0)
(21.7372 -3.56751e-05 0)
(21.751 -3.69344e-05 0)
(21.765 -3.78127e-05 0)
(21.7791 -3.87975e-05 0)
(21.7932 -3.67995e-05 0)
(21.8074 -3.7769e-05 0)
(21.8216 -3.83371e-05 0)
(21.8358 -3.90505e-05 0)
(21.85 -3.77306e-05 0)
(21.8642 -3.83564e-05 0)
(21.8782 -3.85755e-05 0)
(21.8922 -3.88936e-05 0)
(21.9059 -3.62645e-05 0)
(21.9195 -3.65397e-05 0)
(21.9328 -3.64016e-05 0)
(21.9459 -3.64201e-05 0)
(21.9587 -3.44152e-05 0)
(21.9713 -3.43664e-05 0)
(21.9835 -3.39259e-05 0)
(21.9953 -3.36216e-05 0)
(22.0068 -3.04258e-05 0)
(22.0179 -3.01555e-05 0)
(22.0286 -2.95173e-05 0)
(22.0389 -2.9098e-05 0)
(22.0488 -2.67865e-05 0)
(22.0583 -2.64055e-05 0)
(22.0674 -2.56886e-05 0)
(22.0761 -2.51734e-05 0)
(22.0843 -2.20553e-05 0)
(22.0921 -2.16628e-05 0)
(22.0996 -2.09596e-05 0)
(22.1067 -2.05193e-05 0)
(22.1133 -1.84089e-05 0)
(22.1197 -1.80627e-05 0)
(22.1256 -1.74351e-05 0)
(22.1312 -1.702e-05 0)
(22.1365 -1.45751e-05 0)
(22.1415 -1.4268e-05 0)
(22.1461 -1.37169e-05 0)
(22.1505 -1.33821e-05 0)
(22.1546 -1.19634e-05 0)
(22.1584 -1.16618e-05 0)
(22.162 -1.11692e-05 0)
(22.1654 -1.08023e-05 0)
(22.1685 -9.71851e-06 0)
(22.1715 -9.32005e-06 0)
(22.1742 -8.80821e-06 0)
(22.1767 -8.34661e-06 0)
(22.1791 -7.95075e-06 0)
(22.1813 -7.26166e-06 0)
(22.1832 -6.53684e-06 0)
(22.1853 -3.69392e-06 0)
(30.6449 0.0459578 0)
(27.8131 0.00831905 0)
(26.456 0.00392377 0)
(25.6943 0.00237969 0)
(25.1892 0.00168142 0)
(24.8184 0.00128862 0)
(24.5284 0.00103734 0)
(24.2922 0.000861762 0)
(24.0944 0.000731968 0)
(23.9254 0.000632292 0)
(23.7787 0.000554124 0)
(23.6498 0.000490695 0)
(23.5354 0.000438662 0)
(23.4329 0.000394857 0)
(23.3408 0.000356879 0)
(23.2581 0.000321407 0)
(23.1845 0.000287036 0)
(23.1196 0.000252798 0)
(23.0635 0.000219945 0)
(23.0155 0.000187277 0)
(22.9752 0.000157364 0)
(22.9414 0.000131197 0)
(22.913 0.000110302 0)
(22.8889 9.28004e-05 0)
(22.8682 7.9315e-05 0)
(22.85 6.89451e-05 0)
(22.8337 6.28917e-05 0)
(22.8191 5.63307e-05 0)
(22.8058 5.09989e-05 0)
(22.7937 4.62133e-05 0)
(22.7826 4.32952e-05 0)
(22.7726 3.89154e-05 0)
(22.7636 3.48155e-05 0)
(22.7556 3.0662e-05 0)
(22.7486 2.92764e-05 0)
(22.7425 2.49e-05 0)
(22.7374 2.07686e-05 0)
(22.7333 1.65145e-05 0)
(22.7301 1.42923e-05 0)
(22.7278 9.96777e-06 0)
(22.7264 5.95446e-06 0)
(22.7259 1.89551e-06 0)
(22.7262 1.1746e-06 0)
(22.7274 -2.95771e-06 0)
(22.7293 -6.698e-06 0)
(22.7321 -1.05192e-05 0)
(22.7355 -1.20217e-05 0)
(22.7397 -1.58187e-05 0)
(22.7446 -1.92022e-05 0)
(22.7502 -2.26238e-05 0)
(22.7564 -2.25058e-05 0)
(22.7632 -2.59869e-05 0)
(22.7706 -2.90304e-05 0)
(22.7786 -3.21878e-05 0)
(22.7872 -3.28968e-05 0)
(22.7963 -3.60375e-05 0)
(22.8059 -3.87363e-05 0)
(22.816 -4.15094e-05 0)
(22.8266 -4.06469e-05 0)
(22.8376 -4.34862e-05 0)
(22.849 -4.58593e-05 0)
(22.8609 -4.83765e-05 0)
(22.8731 -4.84256e-05 0)
(22.8858 -5.09126e-05 0)
(22.8987 -5.29249e-05 0)
(22.912 -5.50286e-05 0)
(22.9255 -5.35189e-05 0)
(22.9393 -5.56502e-05 0)
(22.9534 -5.72723e-05 0)
(22.9677 -5.90439e-05 0)
(22.9821 -5.82997e-05 0)
(22.9967 -5.99901e-05 0)
(23.0115 -6.11594e-05 0)
(23.0263 -6.24124e-05 0)
(23.0412 -6.00228e-05 0)
(23.0561 -6.12401e-05 0)
(23.0711 -6.19048e-05 0)
(23.086 -6.27067e-05 0)
(23.1009 -6.10067e-05 0)
(23.1157 -6.16626e-05 0)
(23.1303 -6.17638e-05 0)
(23.1448 -6.1938e-05 0)
(23.1591 -5.85127e-05 0)
(23.1732 -5.86172e-05 0)
(23.187 -5.81601e-05 0)
(23.2006 -5.78601e-05 0)
(23.2138 -5.50796e-05 0)
(23.2268 -5.46778e-05 0)
(23.2393 -5.37541e-05 0)
(23.2515 -5.29651e-05 0)
(23.2633 -4.86626e-05 0)
(23.2747 -4.79336e-05 0)
(23.2857 -4.67203e-05 0)
(23.2963 -4.57626e-05 0)
(23.3064 -4.25062e-05 0)
(23.3161 -4.16176e-05 0)
(23.3254 -4.02993e-05 0)
(23.3343 -3.92198e-05 0)
(23.3427 -3.49968e-05 0)
(23.3507 -3.412e-05 0)
(23.3583 -3.28498e-05 0)
(23.3655 -3.19071e-05 0)
(23.3723 -2.89501e-05 0)
(23.3787 -2.81688e-05 0)
(23.3848 -2.70392e-05 0)
(23.3905 -2.61755e-05 0)
(23.3958 -2.28693e-05 0)
(23.4009 -2.21946e-05 0)
(23.4056 -2.12192e-05 0)
(23.4101 -2.0521e-05 0)
(23.4142 -1.85214e-05 0)
(23.4181 -1.79046e-05 0)
(23.4218 -1.70586e-05 0)
(23.4252 -1.63792e-05 0)
(23.4284 -1.4843e-05 0)
(23.4313 -1.41574e-05 0)
(23.4341 -1.33427e-05 0)
(23.4367 -1.26002e-05 0)
(23.4391 -1.19517e-05 0)
(23.4413 -1.08925e-05 0)
(23.4433 -9.95783e-06 0)
(23.4454 -5.54715e-06 0)
(31.9342 0.0469929 0)
(29.2283 0.0125102 0)
(27.7543 0.0060612 0)
(26.9065 0.00365788 0)
(26.3479 0.00256014 0)
(25.9421 0.0019482 0)
(25.6273 0.00156075 0)
(25.3724 0.00129233 0)
(25.16 0.00109511 0)
(24.9793 0.000944331 0)
(24.8228 0.000826296 0)
(24.6856 0.000730841 0)
(24.564 0.000652514 0)
(24.4555 0.000586406 0)
(24.3583 0.000528706 0)
(24.2714 0.000474784 0)
(24.1943 0.000422592 0)
(24.1268 0.000370947 0)
(24.0684 0.000321529 0)
(24.0187 0.000273334 0)
(23.9767 0.000229713 0)
(23.9413 0.000191976 0)
(23.9113 0.000161861 0)
(23.8855 0.000136993 0)
(23.863 0.000117853 0)
(23.8431 0.000103103 0)
(23.8252 9.38545e-05 0)
(23.809 8.43289e-05 0)
(23.7943 7.6453e-05 0)
(23.781 6.93216e-05 0)
(23.7689 6.44113e-05 0)
(23.758 5.78258e-05 0)
(23.7483 5.16219e-05 0)
(23.7397 4.53869e-05 0)
(23.7322 4.23577e-05 0)
(23.7259 3.58707e-05 0)
(23.7207 2.97371e-05 0)
(23.7165 2.34936e-05 0)
(23.7133 1.96329e-05 0)
(23.7112 1.33527e-05 0)
(23.71 7.50585e-06 0)
(23.7098 1.65778e-06 0)
(23.7104 -3.09642e-07 0)
(23.712 -6.21242e-06 0)
(23.7144 -1.15774e-05 0)
(23.7176 -1.6997e-05 0)
(23.7216 -1.97023e-05 0)
(23.7264 -2.50528e-05 0)
(23.7318 -2.98493e-05 0)
(23.738 -3.46448e-05 0)
(23.7448 -3.5338e-05 0)
(23.7523 -4.01929e-05 0)
(23.7604 -4.44662e-05 0)
(23.7692 -4.88394e-05 0)
(23.7784 -5.03565e-05 0)
(23.7882 -5.46848e-05 0)
(23.7986 -5.84331e-05 0)
(23.8094 -6.22264e-05 0)
(23.8207 -6.18104e-05 0)
(23.8325 -6.56783e-05 0)
(23.8447 -6.89343e-05 0)
(23.8573 -7.23258e-05 0)
(23.8703 -7.28371e-05 0)
(23.8836 -7.61655e-05 0)
(23.8973 -7.88743e-05 0)
(23.9113 -8.16452e-05 0)
(23.9255 -8.02257e-05 0)
(23.94 -8.30148e-05 0)
(23.9547 -8.51378e-05 0)
(23.9697 -8.73959e-05 0)
(23.9848 -8.67117e-05 0)
(24 -8.88329e-05 0)
(24.0154 -9.02747e-05 0)
(24.0308 -9.17619e-05 0)
(24.0462 -8.90171e-05 0)
(24.0617 -9.04337e-05 0)
(24.0771 -9.1129e-05 0)
(24.0925 -9.19397e-05 0)
(24.1078 -8.98192e-05 0)
(24.123 -9.04087e-05 0)
(24.1381 -9.02799e-05 0)
(24.1529 -9.0185e-05 0)
(24.1675 -8.59105e-05 0)
(24.1819 -8.57113e-05 0)
(24.196 -8.47898e-05 0)
(24.2098 -8.4017e-05 0)
(24.2233 -8.03519e-05 0)
(24.2364 -7.94372e-05 0)
(24.2492 -7.78618e-05 0)
(24.2615 -7.64128e-05 0)
(24.2734 -7.09079e-05 0)
(24.285 -6.95505e-05 0)
(24.2961 -6.75877e-05 0)
(24.3068 -6.5915e-05 0)
(24.317 -6.15874e-05 0)
(24.3268 -6.00222e-05 0)
(24.3361 -5.7932e-05 0)
(24.3451 -5.61172e-05 0)
(24.3535 -5.06968e-05 0)
(24.3616 -4.918e-05 0)
(24.3692 -4.71883e-05 0)
(24.3765 -4.55907e-05 0)
(24.3833 -4.16843e-05 0)
(24.3898 -4.03296e-05 0)
(24.3959 -3.85625e-05 0)
(24.4016 -3.71177e-05 0)
(24.407 -3.28822e-05 0)
(24.4121 -3.17242e-05 0)
(24.4168 -3.0213e-05 0)
(24.4213 -2.90438e-05 0)
(24.4255 -2.63898e-05 0)
(24.4294 -2.53639e-05 0)
(24.4331 -2.40752e-05 0)
(24.4365 -2.29993e-05 0)
(24.4397 -2.09525e-05 0)
(24.4427 -1.99081e-05 0)
(24.4455 -1.8724e-05 0)
(24.4481 -1.76392e-05 0)
(24.4505 -1.66817e-05 0)
(24.4528 -1.51797e-05 0)
(24.4547 -1.40052e-05 0)
(24.4569 -7.71449e-06 0)
(32.9266 0.0603725 0)
(30.4695 0.0174498 0)
(28.9196 0.00880693 0)
(27.99 0.00533556 0)
(27.3756 0.00370765 0)
(26.9322 0.00280203 0)
(26.5908 0.0022332 0)
(26.3162 0.00184231 0)
(26.0884 0.00155692 0)
(25.8953 0.00133981 0)
(25.7287 0.00117026 0)
(25.583 0.00103358 0)
(25.4542 0.000921405 0)
(25.3396 0.000826507 0)
(25.2372 0.000743253 0)
(25.1461 0.000665472 0)
(25.0656 0.000590414 0)
(24.9953 0.000516758 0)
(24.9346 0.000446729 0)
(24.8829 0.000379637 0)
(24.8389 0.000319629 0)
(24.8015 0.000268259 0)
(24.7694 0.000227341 0)
(24.7414 0.000193862 0)
(24.7167 0.000168036 0)
(24.6947 0.000147975 0)
(24.6747 0.000134631 0)
(24.6566 0.000121265 0)
(24.6402 0.000109986 0)
(24.6253 9.96528e-05 0)
(24.6118 9.19012e-05 0)
(24.5998 8.22902e-05 0)
(24.5891 7.32037e-05 0)
(24.5798 6.41391e-05 0)
(24.5718 5.87303e-05 0)
(24.5651 4.94534e-05 0)
(24.5595 4.06876e-05 0)
(24.5552 3.18552e-05 0)
(24.552 2.5778e-05 0)
(24.5499 1.70079e-05 0)
(24.5489 8.83803e-06 0)
(24.5489 7.37864e-07 0)
(24.5498 -2.94054e-06 0)
(24.5517 -1.103e-05 0)
(24.5545 -1.84e-05 0)
(24.5581 -2.57822e-05 0)
(24.5626 -3.00489e-05 0)
(24.5678 -3.72807e-05 0)
(24.5738 -4.37877e-05 0)
(24.5806 -5.02417e-05 0)
(24.588 -5.2047e-05 0)
(24.596 -5.85371e-05 0)
(24.6047 -6.42756e-05 0)
(24.6141 -7.0092e-05 0)
(24.6239 -7.26481e-05 0)
(24.6344 -7.83688e-05 0)
(24.6454 -8.3347e-05 0)
(24.6568 -8.83323e-05 0)
(24.6688 -8.85552e-05 0)
(24.6811 -9.36062e-05 0)
(24.694 -9.78766e-05 0)
(24.7072 -0.000102267 0)
(24.7208 -0.000103369 0)
(24.7347 -0.000107641 0)
(24.749 -0.000111126 0)
(24.7635 -0.000114633 0)
(24.7783 -0.000113392 0)
(24.7933 -0.000116888 0)
(24.8086 -0.000119538 0)
(24.824 -0.0001223 0)
(24.8396 -0.000121697 0)
(24.8552 -0.000124242 0)
(24.871 -0.000125925 0)
(24.8868 -0.000127605 0)
(24.9026 -0.000124483 0)
(24.9184 -0.000126038 0)
(24.9342 -0.00012668 0)
(24.9499 -0.000127409 0)
(24.9654 -0.000124783 0)
(24.9809 -0.000125196 0)
(24.9961 -0.000124708 0)
(25.0112 -0.000124208 0)
(25.0259 -0.000118973 0)
(25.0404 -0.000118324 0)
(25.0547 -0.000116778 0)
(25.0686 -0.000115369 0)
(25.0821 -0.000110671 0)
(25.0953 -0.000109075 0)
(25.1081 -0.000106668 0)
(25.1205 -0.000104378 0)
(25.1325 -9.75237e-05 0)
(25.144 -9.5362e-05 0)
(25.1551 -9.24665e-05 0)
(25.1658 -8.99e-05 0)
(25.176 -8.43421e-05 0)
(25.1858 -8.19282e-05 0)
(25.1952 -7.88887e-05 0)
(25.2041 -7.6167e-05 0)
(25.2126 -6.94129e-05 0)
(25.2206 -6.70978e-05 0)
(25.2283 -6.4224e-05 0)
(25.2355 -6.18195e-05 0)
(25.2424 -5.68331e-05 0)
(25.2488 -5.47655e-05 0)
(25.2549 -5.22203e-05 0)
(25.2607 -5.00621e-05 0)
(25.2661 -4.47951e-05 0)
(25.2712 -4.30364e-05 0)
(25.2759 -4.08728e-05 0)
(25.2804 -3.91246e-05 0)
(25.2846 -3.5724e-05 0)
(25.2885 -3.41929e-05 0)
(25.2922 -3.23682e-05 0)
(25.2956 -3.08095e-05 0)
(25.2988 -2.81768e-05 0)
(25.3018 -2.66981e-05 0)
(25.3046 -2.5075e-05 0)
(25.3072 -2.35816e-05 0)
(25.3097 -2.22519e-05 0)
(25.3119 -2.02263e-05 0)
(25.3139 -1.88269e-05 0)
(25.3161 -1.03239e-05 0)
(33.6709 0.0694794 0)
(31.5723 0.0227048 0)
(30.0008 0.0122444 0)
(28.9993 0.00751482 0)
(28.3281 0.00520238 0)
(27.8445 0.00390793 0)
(27.4741 0.00309845 0)
(27.1779 0.00254597 0)
(26.9334 0.00214509 0)
(26.727 0.00184164 0)
(26.5494 0.00160539 0)
(26.3946 0.0014155 0)
(26.2581 0.00125968 0)
(26.137 0.00112761 0)
(26.0292 0.00101134 0)
(25.9335 0.000902851 0)
(25.8493 0.000798651 0)
(25.7759 0.000697362 0)
(25.7126 0.0006019 0)
(25.6584 0.000511968 0)
(25.612 0.000432499 0)
(25.572 0.000365152 0)
(25.5373 0.000311633 0)
(25.5066 0.000268086 0)
(25.4792 0.000234307 0)
(25.4545 0.000207736 0)
(25.4319 0.000189101 0)
(25.4114 0.000170689 0)
(25.3928 0.000154799 0)
(25.376 0.000140056 0)
(25.3608 0.000128277 0)
(25.3474 0.000114488 0)
(25.3355 0.000101428 0)
(25.3252 8.8491e-05 0)
(25.3164 7.97126e-05 0)
(25.309 6.67182e-05 0)
(25.303 5.44643e-05 0)
(25.2984 4.22345e-05 0)
(25.295 3.31864e-05 0)
(25.2928 2.12207e-05 0)
(25.2918 1.00851e-05 0)
(25.2918 -8.72529e-07 0)
(25.2929 -6.83654e-06 0)
(25.295 -1.76449e-05 0)
(25.2981 -2.75048e-05 0)
(25.3021 -3.73123e-05 0)
(25.3069 -4.35752e-05 0)
(25.3125 -5.30968e-05 0)
(25.3189 -6.16838e-05 0)
(25.3261 -7.01497e-05 0)
(25.3339 -7.34106e-05 0)
(25.3425 -8.18523e-05 0)
(25.3517 -8.93409e-05 0)
(25.3615 -9.68763e-05 0)
(25.3719 -0.000100731 0)
(25.3828 -0.000108088 0)
(25.3943 -0.000114508 0)
(25.4063 -0.000120889 0)
(25.4187 -0.000121951 0)
(25.4316 -0.000128361 0)
(25.4449 -0.000133795 0)
(25.4586 -0.000139326 0)
(25.4726 -0.000141149 0)
(25.487 -0.000146478 0)
(25.5017 -0.000150821 0)
(25.5167 -0.000155138 0)
(25.5319 -0.000154147 0)
(25.5473 -0.000158397 0)
(25.5629 -0.000161593 0)
(25.5787 -0.00016487 0)
(25.5945 -0.000164347 0)
(25.6105 -0.000167297 0)
(25.6265 -0.000169175 0)
(25.6426 -0.000170991 0)
(25.6586 -0.000167436 0)
(25.6746 -0.000169049 0)
(25.6905 -0.000169535 0)
(25.7063 -0.000170073 0)
(25.722 -0.000166825 0)
(25.7375 -0.000166932 0)
(25.7528 -0.000165932 0)
(25.7679 -0.000164872 0)
(25.7827 -0.000158527 0)
(25.7972 -0.000157264 0)
(25.8114 -0.000154911 0)
(25.8253 -0.000152688 0)
(25.8388 -0.000146777 0)
(25.852 -0.000144314 0)
(25.8647 -0.000140875 0)
(25.8771 -0.00013755 0)
(25.889 -0.000129163 0)
(25.9005 -0.000126004 0)
(25.9116 -0.000121974 0)
(25.9222 -0.00011832 0)
(25.9324 -0.000111345 0)
(25.9422 -0.000107894 0)
(25.9515 -0.000103709 0)
(25.9604 -9.98941e-05 0)
(25.9688 -9.16376e-05 0)
(25.9769 -8.83492e-05 0)
(25.9845 -8.44147e-05 0)
(25.9917 -8.10367e-05 0)
(25.9985 -7.48136e-05 0)
(26.005 -7.18782e-05 0)
(26.0111 -6.83973e-05 0)
(26.0168 -6.53793e-05 0)
(26.0222 -5.89517e-05 0)
(26.0273 -5.64598e-05 0)
(26.032 -5.35118e-05 0)
(26.0365 -5.10634e-05 0)
(26.0407 -4.68048e-05 0)
(26.0446 -4.46592e-05 0)
(26.0483 -4.21908e-05 0)
(26.0518 -4.00498e-05 0)
(26.055 -3.67443e-05 0)
(26.058 -3.47421e-05 0)
(26.0608 -3.25966e-05 0)
(26.0634 -3.0614e-05 0)
(26.0658 -2.88457e-05 0)
(26.0681 -2.61928e-05 0)
(26.0701 -2.45537e-05 0)
(26.0723 -1.3305e-05 0)
(34.1947 0.0755319 0)
(32.5411 0.028234 0)
(31.0182 0.0164221 0)
(29.9638 0.0103051 0)
(29.2379 0.0071398 0)
(28.7119 0.00533963 0)
(28.3102 0.00421326 0)
(27.9902 0.00344803 0)
(27.7272 0.00289575 0)
(27.506 0.00247972 0)
(27.3165 0.00215685 0)
(27.1516 0.00189813 0)
(27.0068 0.00168593 0)
(26.8785 0.00150588 0)
(26.7647 0.00134704 0)
(26.6641 0.00119922 0)
(26.5756 0.00105808 0)
(26.4986 0.000922301 0)
(26.432 0.000795617 0)
(26.3747 0.000678187 0)
(26.3253 0.000575671 0)
(26.2823 0.000489629 0)
(26.2443 0.000421412 0)
(26.2104 0.000366058 0)
(26.1797 0.000322755 0)
(26.1517 0.000288127 0)
(26.1261 0.000262624 0)
(26.1027 0.000237536 0)
(26.0814 0.000215387 0)
(26.0622 0.000194571 0)
(26.045 0.000177137 0)
(26.0297 0.000157586 0)
(26.0162 0.000139052 0)
(26.0046 0.000120816 0)
(25.9947 0.000107327 0)
(25.9864 8.9361e-05 0)
(25.9797 7.24663e-05 0)
(25.9744 5.57562e-05 0)
(25.9706 4.27385e-05 0)
(25.9681 2.6647e-05 0)
(25.9669 1.17028e-05 0)
(25.9668 -2.90493e-06 0)
(25.9679 -1.18919e-05 0)
(25.97 -2.61029e-05 0)
(25.9732 -3.90723e-05 0)
(25.9773 -5.18943e-05 0)
(25.9823 -6.06967e-05 0)
(25.9882 -7.30192e-05 0)
(25.9949 -8.41456e-05 0)
(26.0023 -9.50636e-05 0)
(26.0105 -0.000100193 0)
(26.0194 -0.000110972 0)
(26.0289 -0.000120554 0)
(26.0391 -0.000130142 0)
(26.0498 -0.000135602 0)
(26.0612 -0.000144881 0)
(26.073 -0.000152993 0)
(26.0854 -0.000161009 0)
(26.0981 -0.000163132 0)
(26.1114 -0.000171104 0)
(26.125 -0.000177868 0)
(26.139 -0.000184701 0)
(26.1534 -0.000187381 0)
(26.1681 -0.000193888 0)
(26.1831 -0.000199176 0)
(26.1983 -0.000204382 0)
(26.2137 -0.000203702 0)
(26.2294 -0.000208749 0)
(26.2452 -0.0002125 0)
(26.2611 -0.000216295 0)
(26.2772 -0.000215833 0)
(26.2933 -0.000219156 0)
(26.3094 -0.000221163 0)
(26.3256 -0.000223045 0)
(26.3416 -0.000218974 0)
(26.3577 -0.000220545 0)
(26.3736 -0.000220748 0)
(26.3894 -0.000220969 0)
(26.4051 -0.000216957 0)
(26.4205 -0.000216607 0)
(26.4358 -0.000214921 0)
(26.4508 -0.000213129 0)
(26.4655 -0.000205501 0)
(26.4799 -0.000203438 0)
(26.4941 -0.000200075 0)
(26.5078 -0.000196843 0)
(26.5213 -0.000189518 0)
(26.5343 -0.000185985 0)
(26.547 -0.000181295 0)
(26.5592 -0.000176724 0)
(26.5711 -0.0001666 0)
(26.5825 -0.000162233 0)
(26.5935 -0.000156845 0)
(26.604 -0.000151895 0)
(26.6141 -0.000143292 0)
(26.6238 -0.000138597 0)
(26.6331 -0.000133049 0)
(26.6419 -0.000127937 0)
(26.6503 -0.000117983 0)
(26.6583 -0.000113526 0)
(26.6659 -0.000108329 0)
(26.6731 -0.000103792 0)
(26.6799 -9.61504e-05 0)
(26.6864 -9.21718e-05 0)
(26.6925 -8.75744e-05 0)
(26.6982 -8.35314e-05 0)
(26.7036 -7.57889e-05 0)
(26.7087 -7.24119e-05 0)
(26.7135 -6.85256e-05 0)
(26.7179 -6.52382e-05 0)
(26.7221 -5.99883e-05 0)
(26.7261 -5.71014e-05 0)
(26.7298 -5.38627e-05 0)
(26.7333 -5.10246e-05 0)
(26.7365 -4.69384e-05 0)
(26.7395 -4.43094e-05 0)
(26.7423 -4.1542e-05 0)
(26.745 -3.89778e-05 0)
(26.7474 -3.66851e-05 0)
(26.7497 -3.32911e-05 0)
(26.7517 -3.13743e-05 0)
(26.7539 -1.68906e-05 0)
(34.5334 0.0801415 0)
(33.3602 0.0337838 0)
(31.9723 0.0212968 0)
(30.8975 0.0138044 0)
(30.1241 0.00962947 0)
(29.5557 0.00718854 0)
(29.1205 0.0056503 0)
(28.7745 0.0046065 0)
(28.4911 0.00385603 0)
(28.2535 0.00329304 0)
(28.0505 0.00285749 0)
(27.8746 0.00250951 0)
(27.7203 0.00222436 0)
(27.5842 0.00198237 0)
(27.4636 0.00176877 0)
(27.3572 0.00157074 0)
(27.2639 0.00138299 0)
(27.1825 0.0012043 0)
(27.112 0.00103938 0)
(27.051 0.00088885 0)
(26.9979 0.000759003 0)
(26.9511 0.000651028 0)
(26.9093 0.000565605 0)
(26.8715 0.00049633 0)
(26.8369 0.000441551 0)
(26.8052 0.000396897 0)
(26.7759 0.000362482 0)
(26.7492 0.000328574 0)
(26.7248 0.000297971 0)
(26.7027 0.000268858 0)
(26.6829 0.00024358 0)
(26.6653 0.000216134 0)
(26.6498 0.000190102 0)
(26.6365 0.000164638 0)
(26.625 0.000144641 0)
(26.6155 0.000120019 0)
(26.6077 9.69364e-05 0)
(26.6015 7.42995e-05 0)
(26.597 5.59877e-05 0)
(26.5939 3.45401e-05 0)
(26.5922 1.46737e-05 0)
(26.5917 -4.62631e-06 0)
(26.5925 -1.75931e-05 0)
(26.5945 -3.60938e-05 0)
(26.5975 -5.29756e-05 0)
(26.6016 -6.95703e-05 0)
(26.6066 -8.16031e-05 0)
(26.6125 -9.73744e-05 0)
(26.6192 -0.000111623 0)
(26.6268 -0.000125548 0)
(26.6351 -0.000133054 0)
(26.6442 -0.000146644 0)
(26.6539 -0.000158745 0)
(26.6642 -0.000170794 0)
(26.6752 -0.000178226 0)
(26.6867 -0.000189773 0)
(26.6987 -0.000199876 0)
(26.7113 -0.000209815 0)
(26.7242 -0.000213255 0)
(26.7377 -0.000223021 0)
(26.7515 -0.000231308 0)
(26.7657 -0.000239629 0)
(26.7802 -0.000243317 0)
(26.795 -0.000251137 0)
(26.8101 -0.000257463 0)
(26.8255 -0.000263643 0)
(26.841 -0.000263333 0)
(26.8567 -0.000269214 0)
(26.8726 -0.000273522 0)
(26.8886 -0.000277834 0)
(26.9046 -0.0002774 0)
(26.9207 -0.00028105 0)
(26.9368 -0.000283105 0)
(26.9529 -0.000284971 0)
(26.9689 -0.000280278 0)
(26.9849 -0.000281692 0)
(27.0007 -0.000281466 0)
(27.0164 -0.000281227 0)
(27.0319 -0.000276288 0)
(27.0473 -0.000275316 0)
(27.0624 -0.000272752 0)
(27.0772 -0.000270042 0)
(27.0918 -0.000260935 0)
(27.106 -0.000257874 0)
(27.12 -0.000253285 0)
(27.1336 -0.000248837 0)
(27.1469 -0.000239879 0)
(27.1598 -0.000235061 0)
(27.1723 -0.000228886 0)
(27.1844 -0.000222846 0)
(27.1961 -0.000210758 0)
(27.2075 -0.000204955 0)
(27.2183 -0.00019797 0)
(27.2288 -0.000191498 0)
(27.2389 -0.000181035 0)
(27.2485 -0.00017487 0)
(27.2577 -0.000167721 0)
(27.2665 -0.000161088 0)
(27.2749 -0.000149214 0)
(27.2828 -0.00014337 0)
(27.2904 -0.000136683 0)
(27.2976 -0.000130778 0)
(27.3044 -0.000121509 0)
(27.3109 -0.000116287 0)
(27.317 -0.000110367 0)
(27.3227 -0.00010511 0)
(27.3281 -9.58681e-05 0)
(27.3332 -9.14285e-05 0)
(27.3381 -8.64251e-05 0)
(27.3426 -8.21366e-05 0)
(27.3468 -7.57359e-05 0)
(27.3508 -7.19579e-05 0)
(27.3545 -6.78006e-05 0)
(27.358 -6.41293e-05 0)
(27.3613 -5.91298e-05 0)
(27.3643 -5.57496e-05 0)
(27.3672 -5.22443e-05 0)
(27.3699 -4.8986e-05 0)
(27.3724 -4.60652e-05 0)
(27.3747 -4.17914e-05 0)
(27.3767 -3.96058e-05 0)
(27.379 -2.12437e-05 0)
(34.7383 0.0835141 0)
(34.0044 0.0389154 0)
(32.8455 0.0266773 0)
(31.8005 0.0180621 0)
(30.9964 0.0127836 0)
(30.3891 0.00956284 0)
(29.9198 0.00750052 0)
(29.546 0.00609588 0)
(29.2401 0.00508719 0)
(28.9843 0.00433259 0)
(28.7664 0.00375033 0)
(28.5779 0.00328643 0)
(28.4132 0.00290677 0)
(28.268 0.00258478 0)
(28.1399 0.00230085 0)
(28.0269 0.00203889 0)
(27.9277 0.00179246 0)
(27.8412 0.00156045 0)
(27.7659 0.00134863 0)
(27.7004 0.00115811 0)
(27.6428 0.000995663 0)
(27.5916 0.000861759 0)
(27.5454 0.000756029 0)
(27.5032 0.000670214 0)
(27.4643 0.000601524 0)
(27.4282 0.000544366 0)
(27.3948 0.00049844 0)
(27.3641 0.000452963 0)
(27.336 0.000411067 0)
(27.3106 0.000370751 0)
(27.2877 0.000334753 0)
(27.2673 0.000296597 0)
(27.2494 0.000260381 0)
(27.2338 0.000225127 0)
(27.2204 0.000196223 0)
(27.2091 0.000162704 0)
(27.1998 0.000131372 0)
(27.1924 0.000100884 0)
(27.1867 7.55154e-05 0)
(27.1826 4.70823e-05 0)
(27.1801 2.08205e-05 0)
(27.179 -4.54793e-06 0)
(27.1792 -2.27574e-05 0)
(27.1807 -4.67103e-05 0)
(27.1833 -6.85544e-05 0)
(27.187 -8.99081e-05 0)
(27.1917 -0.000106068 0)
(27.1974 -0.000126122 0)
(27.204 -0.000144241 0)
(27.2115 -0.000161881 0)
(27.2197 -0.000172412 0)
(27.2287 -0.000189413 0)
(27.2383 -0.000204565 0)
(27.2487 -0.000219586 0)
(27.2596 -0.000229448 0)
(27.2711 -0.000243689 0)
(27.2831 -0.00025615 0)
(27.2957 -0.000268364 0)
(27.3087 -0.000273434 0)
(27.3221 -0.000285274 0)
(27.336 -0.000295315 0)
(27.3501 -0.000305343 0)
(27.3646 -0.000310221 0)
(27.3795 -0.00031951 0)
(27.3945 -0.000326982 0)
(27.4098 -0.000334237 0)
(27.4253 -0.000334366 0)
(27.4409 -0.000341123 0)
(27.4567 -0.000345987 0)
(27.4726 -0.000350812 0)
(27.4885 -0.000350372 0)
(27.5044 -0.000354297 0)
(27.5204 -0.000356309 0)
(27.5363 -0.000358067 0)
(27.5521 -0.000352644 0)
(27.5679 -0.00035377 0)
(27.5835 -0.000352957 0)
(27.599 -0.000352107 0)
(27.6143 -0.00034607 0)
(27.6294 -0.000344298 0)
(27.6443 -0.000340653 0)
(27.6589 -0.000336834 0)
(27.6733 -0.000326047 0)
(27.6873 -0.00032178 0)
(27.7011 -0.000315735 0)
(27.7145 -0.000309857 0)
(27.7276 -0.000299043 0)
(27.7403 -0.000292713 0)
(27.7527 -0.000284806 0)
(27.7647 -0.000277067 0)
(27.7763 -0.000262779 0)
(27.7874 -0.0002553 0)
(27.7982 -0.000246458 0)
(27.8086 -0.000238223 0)
(27.8186 -0.000225651 0)
(27.8282 -0.000217769 0)
(27.8374 -0.000208754 0)
(27.8462 -0.000200354 0)
(27.8545 -0.000186314 0)
(27.8625 -0.000178835 0)
(27.8701 -0.000170401 0)
(27.8773 -0.00016289 0)
(27.8841 -0.000151754 0)
(27.8906 -0.000145056 0)
(27.8968 -0.000137572 0)
(27.9026 -0.000130881 0)
(27.908 -0.000119925 0)