/*--------------------------------*- C++ -*----------------------------------*\
  =========                 |
  \\      /  F ield         | OpenFOAM: The Open Source CFD Toolbox
   \\    /   O peration     | Website:  https://openfoam.org
    \\  /    A nd           | Version:  7
     \\/     M anipulation  |
\*---------------------------------------------------------------------------*/
FoamFile
{
    version     2.0;
    format      ascii;
    class       volScalarField;
    location    "2.1";
    object      T;
}
// * * * * * * * * * * * * * * * * * * * * * * * * * * * * * * * * * * * * * //

dimensions      [0 0 0 1 0 0 0];

internalField   nonuniform List<scalar> 
32100
(
6.31254e+52
-3.20208e+52
1.78739e+51
1.84622e+50
-4.58734e+49
2.32586e+47
6.78048e+47
-5.70644e+46
-1.77467e+45
1.27422e+45
-3.44568e+43
-2.04754e+42
9.97878e+39
1.16192e+40
3.3389e+39
-3.53669e+52
1.85502e+51
2.04025e+50
-4.77099e+49
1.51737e+47
7.02481e+47
-5.82658e+46
-1.92176e+45
1.28474e+45
-6.14833e+43
-1.89737e+43
-2.78943e+42
8.80337e+40
1.04021e+40
2.97447e+39
1.88588e+51
2.32547e+50
-5.03638e+49
5.81865e+46
7.34722e+47
-6.02674e+46
-2.12325e+45
1.32509e+45
-6.70975e+43
-2.06322e+43
-6.69651e+42
-1.67657e+42
1.24212e+41
8.5773e+39
2.31242e+39
2.7255e+50
-5.51947e+49
-2.79401e+47
7.89395e+47
-6.02603e+46
-2.94489e+45
1.32816e+45
-4.95537e+43
-1.44523e+43
-7.23541e+41
-2.17955e+42
-6.54712e+41
1.17244e+41
8.1823e+39
1.43247e+39
-6.17021e+49
-1.72401e+48
6.60409e+47
-4.84316e+46
-1.38923e+45
7.78076e+44
-9.22309e+43
-1.51568e+42
1.71224e+42
-3.85997e+41
-4.25248e+41
-1.31136e+41
8.76306e+40
6.62633e+39
3.82302e+38
-4.60822e+48
-3.87081e+47
-2.36083e+47
1.05328e+46
2.79352e+45
-6.52347e+44
-5.10075e+43
1.3107e+43
5.85647e+41
-5.5211e+40
4.76056e+40
3.11718e+40
5.29761e+40
3.54163e+39
-4.16629e+38
-2.55241e+48
-1.29959e+48
-1.75586e+47
1.33053e+46
1.4431e+45
-5.70683e+44
-4.13033e+43
1.0906e+43
6.07087e+41
-7.48987e+39
7.08456e+40
4.28835e+40
2.43986e+40
5.20244e+38
-7.37573e+38
-3.39955e+48
-1.16496e+48
-1.71726e+47
9.9383e+45
1.63658e+45
-5.14395e+44
-4.83162e+43
1.0007e+43
7.24683e+41
-4.22088e+40
4.13344e+40
1.94219e+40
7.08791e+39
-1.08315e+39
-6.63445e+38
-3.08833e+48
-1.08762e+48
-1.73699e+47
8.0911e+45
1.78172e+45
-4.71736e+44
-5.33589e+43
9.12674e+42
8.09301e+41
-5.77635e+40
2.1279e+40
4.64643e+39
1.17373e+38
-1.25938e+39
-4.22503e+38
-2.84207e+48
-1.01779e+48
-1.73206e+47
6.14453e+45
1.88575e+45
-4.24666e+44
-5.76224e+43
8.11408e+42
8.93847e+41
-5.60767e+40
1.50874e+40
1.90435e+39
-1.19977e+39
-8.00172e+38
-2.01384e+38
-2.62056e+48
-9.49455e+47
-1.72311e+47
4.14564e+45
1.96709e+45
-3.75571e+44
-6.11596e+43
7.03325e+42
9.62321e+41
-4.90619e+40
1.24083e+40
2.22184e+39
-7.55825e+38
-3.44751e+38
-6.94375e+37
-2.41504e+48
-8.90084e+47
-1.69966e+47
2.1731e+45
2.02429e+45
-3.25655e+44
-6.38895e+43
5.91483e+42
1.00906e+42
-4.04184e+40
9.79287e+39
2.39778e+39
-2.7303e+38
-1.07912e+38
-1.42964e+37
-2.24713e+48
-8.37263e+47
-1.60765e+47
4.38569e+44
2.0247e+45
-2.76325e+44
-6.57891e+43
4.79491e+42
1.03199e+42
-3.08109e+40
7.33946e+39
2.13151e+39
-1.14537e+38
-3.27696e+37
-8.88667e+35
-2.10438e+48
-6.95649e+47
-1.31119e+47
-1.00193e+45
1.79589e+45
-2.29757e+44
-6.55905e+43
3.71973e+42
1.02809e+42
-2.0601e+40
5.57801e+39
1.97717e+39
-5.47636e+37
-1.75781e+37
6.79246e+35
-1.55004e+48
-5.12998e+47
-1.06085e+47
-1.88644e+45
1.47417e+45
-1.68548e+44
-5.91119e+43
2.52894e+42
9.97296e+41
-1.06921e+40
4.37797e+39
2.18992e+39
-3.728e+37
-1.76514e+37
6.53297e+35
-1.07551e+48
-4.02363e+47
-9.31347e+46
-2.551e+45
1.28718e+45
-1.1537e+44
-5.36419e+43
1.39192e+42
9.81024e+41
-4.27617e+38
3.09413e+39
2.44367e+39
-1.81686e+37
-2.3026e+37
5.29273e+35
-8.85831e+47
-3.52048e+47
-8.61747e+46
-3.17544e+45
1.20955e+45
-7.97829e+43
-5.21491e+43
4.12178e+41
9.80211e+41
1.09217e+40
1.66934e+39
2.4918e+39
1.83526e+37
-2.80658e+37
3.26411e+35
-7.82344e+47
-3.23373e+47
-8.31297e+46
-3.87612e+45
1.1597e+45
-5.07734e+43
-5.13654e+43
-5.40139e+41
9.74651e+41
2.38811e+40
3.31331e+38
2.43358e+39
6.22423e+37
-3.06408e+37
-2.22642e+34
-6.98602e+47
-2.98632e+47
-8.01272e+46
-4.601e+45
1.09329e+45
-2.23196e+43
-5.04377e+43
-1.52416e+42
9.57601e+41
3.81747e+40
-8.14259e+38
2.304e+39
1.07344e+38
-3.08647e+37
-4.87975e+35
-6.28069e+47
-2.75162e+47
-7.68069e+46
-5.32088e+45
1.01028e+45
6.31091e+42
-4.90008e+43
-2.53638e+42
9.23621e+41
5.337e+40
-1.67582e+39
2.16192e+39
1.54368e+38
-3.01269e+37
-1.03853e+36
-5.64034e+47
-2.51873e+47
-7.3036e+46
-6.01161e+45
9.10673e+44
3.46979e+43
-4.68994e+43
-3.56147e+42
8.70327e+41
6.92742e+40
-2.2414e+39
1.96459e+39
1.97989e+38
-2.79901e+37
-1.61542e+36
-5.02228e+47
-2.28127e+47
-6.90356e+46
-6.67283e+45
7.9338e+44
6.22803e+43
-4.40289e+43
-4.58981e+42
7.9727e+41
8.59314e+40
-2.4747e+39
1.71396e+39
2.30326e+38
-2.40848e+37
-2.1076e+36
-4.4276e+47
-2.04778e+47
-6.49935e+46
-7.29013e+45
6.57755e+44
8.82367e+43
-4.03274e+43
-5.61153e+42
7.02533e+41
1.03537e+41
-2.31984e+39
1.4601e+39
2.58181e+38
-1.95807e+37
-2.48229e+36
-3.86628e+47
-1.82412e+47
-6.08994e+46
-7.84773e+45
5.02644e+44
1.11308e+44
-3.57841e+43
-6.61447e+42
5.81931e+41
1.21985e+41
-1.71679e+39
1.21083e+39
2.86113e+38
-1.49455e+37
-2.77548e+36
-3.35123e+47
-1.61875e+47
-5.68721e+46
-8.34957e+45
3.28556e+44
1.30669e+44
-3.03897e+43
-7.57145e+42
4.29661e+41
1.40489e+41
-5.6672e+38
9.57317e+38
3.15115e+38
-1.00472e+37
-3.04664e+36
-2.88451e+47
-1.43185e+47
-5.28153e+46
-8.78201e+45
1.36273e+44
1.45555e+44
-2.41437e+43
-8.43881e+42
2.39141e+41
1.58332e+41
1.25888e+39
6.95596e+38
3.47151e+38
-4.52837e+36
-3.3662e+36
-2.47354e+47
-1.26086e+47
-4.87554e+46
-9.14629e+45
-7.39843e+43
1.55002e+44
-1.7082e+43
-9.17486e+42
4.27112e+39
1.74413e+41
3.90728e+39
4.11238e+38
3.77377e+38
2.21156e+36
-3.70083e+36
-2.12368e+47
-1.11023e+47
-4.4958e+46
-9.46892e+45
-3.01778e+44
1.57893e+44
-9.25319e+42
-9.72654e+42
-2.78996e+41
1.88341e+41
7.52054e+39
1.10053e+38
3.93582e+38
1.01407e+37
-3.90625e+36
-1.82422e+47
-9.82805e+46
-4.15707e+46
-9.75697e+45
-5.46313e+44
1.53153e+44
-7.60019e+41
-1.00413e+43
-6.14545e+41
1.97011e+41
1.22435e+40
-1.7278e+38
3.98329e+38
1.90694e+37
-3.97019e+36
-1.55841e+47
-8.71949e+46
-3.84264e+46
-9.97223e+45
-8.04434e+44
1.39428e+44
8.25245e+42
-1.00492e+43
-1.00712e+42
1.96867e+41
1.81746e+40
-4.0322e+38
3.91759e+38
2.92307e+37
-3.88774e+36
-1.31384e+47
-7.64239e+46
-3.50761e+46
-1.00592e+46
-1.07192e+45
1.1515e+44
1.75688e+43
-9.6575e+42
-1.46003e+42
1.84682e+41
2.55037e+40
-5.30648e+38
3.59378e+38
3.95354e+37
-3.57822e+36
-1.0916e+47
-6.54366e+46
-3.12289e+46
-1.00202e+46
-1.34395e+45
7.87021e+43
2.67979e+43
-8.73943e+42
-1.96969e+42
1.54429e+41
3.44866e+40
-4.80427e+38
3.0733e+38
4.94617e+37
-3.13061e+36
-9.05302e+46
-5.54763e+46
-2.75649e+46
-9.86429e+45
-1.61296e+45
2.83247e+43
3.52926e+43
-7.13869e+42
-2.51473e+42
9.81188e+40
4.53495e+40
-1.69629e+38
2.5382e+38
6.21173e+37
-2.62421e+36
-7.55402e+46
-4.79052e+46
-2.47453e+46
-9.62311e+45
-1.87833e+45
-3.76451e+43
4.21483e+43
-4.74719e+42
-3.04709e+42
5.14967e+39
5.7768e+40
6.29031e+38
1.87651e+38
8.11454e+37
-1.82235e+36
-6.29995e+46
-4.21816e+46
-2.24895e+46
-9.32981e+45
-2.14262e+45
-1.21111e+44
4.59982e+43
-1.53569e+42
-3.49401e+42
-1.36222e+41
7.05115e+40
2.26883e+39
8.51053e+37
1.06524e+38
-1.41977e+35
-5.22228e+46
-3.68131e+46
-2.01963e+46
-8.99634e+45
-2.40329e+45
-2.23713e+44
4.48156e+43
2.41166e+42
-3.76112e+42
-3.35577e+41
8.04107e+40
5.31439e+39
-5.91814e+37
1.361e+38
3.45862e+36
-4.30153e+46
-3.17178e+46
-1.79456e+46
-8.65096e+45
-2.65828e+45
-3.44839e+44
3.71835e+43
6.86649e+42
-3.74726e+42
-5.92807e+41
8.14447e+40
1.05786e+40
-2.13623e+38
1.62176e+38
1.07107e+37
-3.51343e+46
-2.73455e+46
-1.60076e+46
-8.29406e+45
-2.89841e+45
-4.80509e+44
2.20605e+43
1.14397e+43
-3.34522e+42
-8.94641e+41
6.51318e+40
1.79882e+40
-2.44021e+38
1.66931e+38
2.32247e+37
-2.83784e+46
-2.36714e+46
-1.43552e+46
-7.88365e+45
-3.0917e+45
-6.20576e+44
-1.70469e+42
1.5562e+43
-2.46051e+42
-1.20298e+42
2.34852e+40
2.68146e+40
8.16447e+37
1.32197e+38
4.14657e+37
-2.2576e+46
-2.05568e+46
-1.29546e+46
-7.4244e+45
-3.17891e+45
-7.55467e+44
-3.45306e+43
1.84321e+43
-1.07647e+42
-1.4524e+42
-4.7836e+40
3.55012e+40
1.13394e+39
4.09222e+37
6.40064e+37
-1.75641e+46
-1.77266e+46
-1.16844e+46
-6.88945e+45
-3.15827e+45
-8.77199e+44
-7.53248e+43
1.89862e+43
7.17637e+41
-1.5819e+42
-1.46528e+41
4.16526e+40
3.482e+39
-1.14082e+38
8.28239e+37
-1.3287e+46
-1.4932e+46
-1.04307e+46
-6.25611e+45
-3.08027e+45
-9.80063e+44
-1.21596e+44
1.67356e+43
2.78968e+42
-1.56121e+42
-2.59626e+41
4.11962e+40
6.57272e+39
-2.38081e+38
8.00527e+37
-9.84735e+45
-1.22154e+46
-9.12771e+45
-5.5973e+45
-2.9699e+45
-1.06103e+45
-1.70114e+44
1.117e+43
4.94094e+42
-1.37239e+42
-3.59331e+41
3.1118e+40
9.57971e+39
-2.39505e+38
4.91226e+37
-7.23941e+45
-9.81735e+45
-7.85374e+45
-5.01037e+45
-2.83886e+45
-1.12009e+45
-2.18189e+44
2.75636e+42
6.43246e+42
-1.03001e+42
-4.39485e+41
1.55937e+40
1.23354e+40
-9.61099e+37
1.93532e+35
-5.32915e+45
-7.87887e+45
-6.76856e+45
-4.5248e+45
-2.70149e+45
-1.16167e+45
-2.64126e+44
-7.49498e+42
7.18613e+42
-5.70667e+41
-5.05171e+41
-1.51506e+39
1.31557e+40
1.95852e+38
-1.19098e+38
-3.94671e+45
-6.37688e+45
-5.89049e+45
-4.11685e+45
-2.57135e+45
-1.19249e+45
-3.08472e+44
-1.88606e+43
7.48471e+42
-9.14942e+40
-4.94507e+41
-1.61839e+40
1.12742e+40
4.78019e+38
-9.25271e+37
-2.92706e+45
-5.20109e+45
-5.19331e+45
-3.78651e+45
-2.45472e+45
-1.21869e+45
-3.52949e+44
-3.15498e+43
7.33786e+42
3.40372e+41
-4.55629e+41
-2.61847e+40
9.11483e+39
4.74639e+38
-4.35426e+37
-2.1634e+45
-4.24783e+45
-4.62066e+45
-3.52399e+45
-2.34818e+45
-1.23673e+45
-3.96775e+44
-4.5625e+43
7.02218e+42
7.20726e+41
-4.40223e+41
-3.45483e+40
8.01513e+39
4.82399e+38
-3.57576e+37
-1.57623e+45
-3.44129e+45
-4.09302e+45
-3.28688e+45
-2.23762e+45
-1.23715e+45
-4.35171e+44
-6.09064e+43
6.37374e+42
1.10388e+42
-4.28866e+41
-4.25265e+40
7.61662e+39
5.38023e+38
-3.84786e+37
-1.13128e+45
-2.75353e+45
-3.59633e+45
-3.0642e+45
-2.12388e+45
-1.22361e+45
-4.67091e+44
-7.70958e+43
5.20254e+42
1.49273e+42
-4.14764e+41
-5.04032e+40
7.4185e+39
6.25098e+38
-4.41722e+37
-7.97452e+44
-2.181e+45
-3.16024e+45
-2.87378e+45
-2.02096e+45
-1.20904e+45
-4.99159e+44
-9.4593e+43
3.47067e+42
1.87776e+42
-3.92692e+41
-5.74192e+40
7.04554e+39
6.97171e+38
-4.58413e+37
-5.4897e+44
-1.7052e+45
-2.77239e+45
-2.68569e+45
-1.93188e+45
-1.19496e+45
-5.33642e+44
-1.14594e+44
1.0663e+42
2.24822e+42
-3.56733e+41
-6.19086e+40
6.25772e+39
7.00426e+38
-3.84098e+37
-3.70945e+44
-1.30284e+45
-2.37795e+45
-2.48181e+45
-1.85096e+45
-1.18099e+45
-5.66793e+44
-1.37326e+44
-2.16811e+42
2.59044e+42
-3.08792e+41
-6.29647e+40
5.13512e+39
6.23496e+38
-2.99638e+37
-2.45816e+44
-9.72759e+44
-1.98788e+45
-2.28093e+45
-1.79028e+45
-1.16973e+45
-5.98196e+44
-1.62404e+44
-6.38329e+42
2.87355e+42
-2.54544e+41
-6.03668e+40
3.85072e+39
4.88361e+38
-3.19475e+37
-1.56984e+44
-7.12628e+44
-1.64339e+45
-2.09861e+45
-1.7483e+45
-1.15855e+45
-6.2678e+44
-1.89415e+44
-1.17035e+43
3.06901e+42
-1.99094e+41
-5.35212e+40
2.47991e+39
3.25865e+38
-3.84194e+37
-9.46732e+43
-5.05613e+44
-1.33375e+45
-1.92037e+45
-1.70297e+45
-1.14606e+45
-6.52255e+44
-2.17876e+44
-1.82253e+43
3.14215e+42
-1.48799e+41
-4.12829e+40
1.03037e+39
1.33086e+38
-3.24384e+37
-5.23646e+43
-3.40616e+44
-1.04945e+45
-1.72411e+45
-1.64906e+45
-1.13436e+45
-6.76228e+44
-2.48931e+44
-2.59816e+43
2.96526e+42
-1.04855e+41
-2.33137e+40
-4.5807e+38
-4.34412e+37
-2.73559e+37
-2.57857e+43
-2.1436e+44
-7.92634e+44
-1.51129e+45
-1.58272e+45
-1.12224e+45
-6.94235e+44
-2.81819e+44
-3.49212e+43
2.54626e+42
-6.98692e+40
-5.42753e+39
-1.70792e+39
-2.10922e+38
-3.79581e+37
-1.08765e+43
-1.22797e+44
-5.66111e+44
-1.28382e+45
-1.49508e+45
-1.10826e+45
-7.04418e+44
-3.12379e+44
-4.52727e+43
2.05474e+42
-4.04228e+40
3.79453e+39
-2.51531e+39
-6.12597e+38
-1.12191e+38
-3.53778e+42
-6.13443e+43
-3.73772e+44
-1.04642e+45
-1.38569e+45
-1.09557e+45
-7.09173e+44
-3.33708e+44
-5.80158e+43
2.12614e+42
1.49756e+40
5.41914e+39
-2.60753e+39
-7.94337e+38
-1.03569e+38
-5.92835e+41
-2.37987e+43
-2.17696e+44
-8.07333e+44
-1.25881e+45
-1.08874e+45
-7.10637e+44
-3.3696e+44
-7.20841e+43
2.37873e+42
2.28328e+40
-3.36706e+40
-1.77053e+40
-1.09474e+40
-3.56664e+39
-3.75141e+40
-4.83136e+42
-1.00301e+44
-5.72173e+44
-1.11561e+45
-1.09142e+45
-7.14199e+44
-3.20794e+44
-8.15608e+43
-1.76635e+42
3.93163e+41
-5.50188e+39
5.93641e+40
2.5957e+40
4.04552e+39
-2.58818e+41
4.95624e+41
-2.45451e+43
-3.46807e+44
-9.48806e+44
-1.10077e+45
-7.3027e+44
-3.03625e+44
-9.61672e+43
-1.44903e+43
4.7155e+41
-2.00231e+41
-1.41298e+41
-5.54356e+40
-9.63075e+38
-1.9843e+41
6.26516e+39
7.55597e+42
-1.44876e+44
-7.45148e+44
-1.10338e+45
-7.65501e+44
-2.83793e+44
-1.06618e+44
-3.37491e+43
-1.34486e+43
-1.12998e+43
-1.5159e+43
-1.93418e+43
-1.16977e+43
3.55341e+41
3.23993e+40
7.30893e+42
-6.05284e+42
-4.97506e+44
-1.07845e+45
-8.18066e+44
-2.54658e+44
-9.35439e+43
-3.36739e+43
-3.88751e+43
-3.61175e+43
-4.68994e+43
-3.89282e+43
-2.11635e+43
-3.04748e+41
5.27418e+40
1.21e+43
1.47655e+43
-2.57737e+44
-9.95767e+44
-8.6363e+44
-2.33877e+44
-6.8457e+43
-6.98861e+42
-8.9505e+42
-1.92438e+43
-2.04547e+43
-1.65926e+43
-2.01901e+43
1.78126e+44
7.4998e+43
4.12758e+43
-1.06645e+43
-2.38327e+44
-7.89424e+44
-8.49593e+44
-2.30378e+44
-5.34401e+43
1.03247e+42
-1.42357e+42
-2.38342e+42
-3.28145e+42
-5.53745e+42
-1.74765e+43
-1.89352e+45
-7.8221e+44
-2.93686e+44
-1.31897e+44
-4.47269e+44
-8.23344e+44
-6.70286e+44
-2.25792e+44
-5.27494e+43
-3.66873e+43
-1.81967e+43
-1.01466e+43
-6.88605e+42
-5.31015e+42
-1.41619e+43
-2.05577e+46
-6.35561e+45
-3.83826e+45
-2.74486e+45
-1.8588e+45
-9.42255e+44
-4.45105e+44
-7.37167e+43
-7.18167e+43
-5.40998e+43
-2.93812e+43
-1.58012e+43
-9.25074e+42
-5.58486e+42
-1.20447e+43
4.42258e+47
1.09056e+47
2.68495e+46
7.6359e+45
2.02159e+45
5.34447e+44
-1.341e+44
-4.37903e+44
-2.77055e+44
-1.43048e+44
-6.68739e+43
-3.13665e+43
-1.55026e+43
-7.85055e+42
-1.05297e+43
2.9384e+48
7.90395e+47
4.29887e+47
2.05582e+47
1.00447e+47
4.98323e+46
1.76698e+46
3.5398e+45
4.0638e+44
-4.17391e+43
-5.20531e+43
-2.50814e+43
-9.49769e+42
-3.15794e+42
8.58817e+41
-8.29941e+49
-9.00278e+48
-3.50288e+47
3.40126e+47
2.9663e+47
1.43265e+47
4.08786e+46
8.76708e+45
1.7049e+45
3.80951e+44
1.41716e+44
8.76354e+43
6.06801e+43
4.1074e+43
6.40443e+43
5.91431e+50
-2.55032e+49
-1.77798e+49
-3.35979e+48
-2.58214e+47
1.12044e+47
4.5672e+46
9.19186e+45
1.59983e+45
7.68186e+43
-2.21549e+44
-2.20861e+44
-1.43504e+44
-5.56336e+43
2.22332e+43
6.46209e+51
8.07682e+50
3.2911e+48
-4.76505e+48
-5.9375e+46
8.04281e+45
4.93144e+46
2.41151e+46
1.54235e+46
1.28503e+46
1.03895e+46
7.63339e+45
4.77214e+45
2.41498e+45
1.25037e+45
-9.042e+52
5.87603e+51
9.11603e+50
-8.45664e+49
7.14472e+48
1.2919e+48
2.35089e+47
2.39241e+47
1.87023e+47
1.39301e+47
1.01687e+47
7.05689e+46
4.41388e+46
2.31186e+46
9.4052e+45
-5.58115e+53
-8.38425e+52
7.44275e+51
4.94621e+50
-9.91037e+49
6.13742e+48
-1.36953e+48
-2.57015e+48
-2.47876e+48
-2.25014e+48
-1.87441e+48
-1.38823e+48
-8.6254e+47
-4.1473e+47
-1.41529e+47
8.07254e+54
-5.62281e+53
-7.4456e+52
6.81031e+51
3.73327e+50
-1.5223e+50
-4.15491e+49
-3.96261e+49
-3.26035e+49
-2.51447e+49
-1.8681e+49
-1.31163e+49
-8.25904e+48
-4.3636e+48
-1.61749e+48
-5.32025e+55
7.20179e+54
-5.5138e+53
-7.09531e+52
6.23026e+51
1.42967e+50
-2.77382e+50
-1.13753e+50
-7.46921e+49
-4.35633e+49
-2.24211e+49
-1.12264e+49
-6.75335e+48
-5.43862e+48
-2.57329e+48
-2.85411e+56
-4.5624e+55
6.56325e+54
-5.44796e+53
-6.9059e+52
5.42297e+51
-5.36011e+50
-1.00571e+51
-8.75015e+50
-8.12167e+50
-6.99005e+50
-5.46489e+50
-3.72102e+50
-2.07844e+50
-8.71357e+49
5.3009e+57
-2.87244e+56
-4.04529e+55
6.13131e+54
-5.51348e+53
-8.05961e+52
-5.10649e+51
-8.67478e+51
-7.17989e+51
-5.25902e+51
-3.73695e+51
-2.60304e+51
-1.72674e+51
-1.07198e+51
-5.35668e+50
1.29195e+59
1.47293e+58
-7.60747e+56
-1.23078e+56
1.86578e+55
-1.02476e+54
2.66228e+53
5.35156e+53
5.31335e+53
5.0324e+53
4.47805e+53
3.72665e+53
2.82051e+53
2.04556e+53
1.51034e+53
-1.87627e+60
1.1775e+59
1.41564e+58
-6.73479e+56
-1.23686e+56
2.46666e+55
3.96941e+54
4.19097e+54
3.89483e+54
3.23916e+54
2.27515e+54
1.52055e+54
1.04131e+54
7.03515e+53
4.20122e+53
1.35265e+61
-1.67811e+60
1.17262e+59
1.42699e+58
-5.1802e+56
-9.39791e+55
4.94193e+55
2.30923e+55
1.75322e+55
1.32545e+55
9.50729e+54
6.33155e+54
3.76135e+54
1.98072e+54
1.09985e+54
-6.11296e+60
1.15612e+61
-1.56929e+60
1.02191e+59
2.2551e+58
1.20969e+57
7.29236e+55
2.0303e+56
1.32173e+56
7.93806e+55
4.85532e+55
2.77676e+55
1.40083e+55
6.10892e+54
2.93175e+54
-8.12812e+62
1.47179e+60
1.02482e+61
-1.43749e+60
9.98484e+58
1.13479e+58
2.29194e+55
1.87259e+56
1.62628e+56
9.55809e+55
6.32522e+55
4.27233e+55
2.69552e+55
1.47273e+55
8.12111e+54
-3.06563e+60
1.12031e+61
-1.6223e+60
1.14382e+59
1.56255e+58
3.60585e+56
3.36592e+56
2.74529e+56
1.51679e+56
9.15411e+55
5.80143e+55
4.25898e+55
3.18866e+55
2.16773e+55
1.40122e+55
1.37822e+61
-1.86332e+60
6.37262e+58
1.56136e+58
1.91013e+57
6.78013e+56
4.20829e+56
2.61185e+56
1.61566e+56
9.77478e+55
5.82669e+55
4.2859e+55
3.2702e+55
2.4507e+55
1.70416e+55
-1.32199e+60
-8.1207e+58
-1.59809e+57
1.79562e+57
1.54432e+57
9.83278e+56
5.8961e+56
3.54217e+56
2.14355e+56
1.30401e+56
8.27706e+55
6.33627e+55
3.84513e+55
2.34917e+55
1.37306e+55
3.88725e+58
9.69254e+57
5.05453e+57
2.44908e+57
1.24444e+57
6.73604e+56
3.8089e+56
2.22595e+56
1.33692e+56
9.05429e+55
7.80962e+55
9.11585e+55
5.97252e+54
6.64048e+53
1.35578e+53
4.17249e+57
1.14794e+57
4.41252e+56
2.15139e+56
1.12919e+56
6.25716e+55
3.67076e+55
2.27158e+55
1.58414e+55
3.3166e+55
1.15e+55
-4.10011e+53
3.3043e+53
4.74432e+52
1.58102e+52
-2.99044e+55
-3.10872e+54
-1.49345e+55
-1.48705e+55
-1.17765e+55
-8.94957e+54
-6.90078e+54
-5.76986e+54
-8.43921e+54
1.43569e+55
2.82853e+55
-1.81047e+54
-1.83622e+54
-9.46734e+53
-4.75403e+53
-3.46409e+55
-1.31212e+55
-5.14711e+54
-2.5208e+54
-1.41275e+54
-7.41307e+53
-6.27954e+53
-5.55088e+53
9.04616e+53
4.4564e+53
2.20819e+55
1.43387e+55
8.10443e+54
4.47616e+54
2.48317e+54
3.71686e+54
1.3456e+54
6.41359e+53
4.08995e+53
3.0085e+53
2.00365e+53
5.8519e+52
-4.83363e+52
-8.37457e+52
-4.59201e+53
8.2619e+53
2.51762e+54
2.86614e+54
2.41575e+54
1.84548e+54
-6.85475e+52
-1.53122e+52
-2.38757e+52
-2.46037e+52
-2.39257e+52
-2.03792e+52
-8.85174e+51
6.34003e+50
4.87117e+51
1.51643e+52
-1.29998e+53
-1.89958e+53
-1.68055e+53
-1.37837e+53
-1.15976e+53
-4.12969e+52
-1.58323e+52
-7.55746e+51
-4.70399e+51
-3.39067e+51
-2.44254e+51
-1.82487e+51
-1.26e+51
-3.30796e+50
1.37947e+51
5.7722e+51
4.25107e+51
2.09431e+51
1.08102e+51
6.47762e+50
1.52157e+51
4.50228e+50
3.90615e+50
3.63198e+50
3.35085e+50
2.57894e+50
5.05892e+49
-1.44453e+50
-3.24803e+50
-6.7632e+50
4.10079e+50
1.24087e+51
1.28503e+51
1.09926e+51
8.80343e+50
4.53011e+50
1.83573e+50
7.36154e+49
3.56718e+49
1.99507e+49
1.21861e+49
1.12038e+49
4.82392e+48
-3.17127e+49
-1.43605e+50
-3.67981e+50
-3.81479e+50
-3.06577e+50
-2.36656e+50
-1.80582e+50
-5.81112e+49
-2.18905e+49
-1.07598e+49
-6.88738e+48
-4.95211e+48
-3.05053e+48
-5.16791e+47
2.06661e+48
4.48818e+48
3.88838e+48
-6.89596e+48
-1.32284e+49
-1.2885e+49
-1.06045e+49
-8.14913e+48
1.26242e+48
3.88133e+47
4.40856e+47
4.19765e+47
3.6851e+47
2.4322e+47
4.73444e+46
4.74584e+45
4.14815e+47
1.71977e+48
3.76092e+48
3.94351e+48
3.23242e+48
2.49485e+48
1.88724e+48
5.99389e+47
2.26633e+47
1.04638e+47
6.42566e+46
4.59928e+46
3.25271e+46
1.77262e+46
-9.89521e+45
-5.96591e+46
-1.08953e+47
-1.2186e+47
-8.54513e+46
-5.60725e+46
-3.95199e+46
-3.15736e+46
-2.92767e+46
-9.95376e+45
-7.55121e+45
-6.41078e+45
-5.13137e+45
-2.52954e+45
1.62281e+45
5.11105e+45
4.88728e+45
-4.21851e+45
-2.03855e+46
-2.45833e+46
-2.11799e+46
-1.69604e+46
-1.44284e+46
-6.24274e+45
-2.45046e+45
-9.01802e+44
-4.07261e+44
-2.21149e+44
-1.47785e+44
-5.96264e+43
4.31323e+44
1.84563e+45
4.10743e+45
5.70858e+45
5.10281e+45
3.93158e+45
2.70034e+45
9.4022e+44
8.8916e+44
3.30513e+44
1.68434e+44
1.12843e+44
8.18396e+43
4.66838e+43
-7.69182e+41
-5.24696e+43
-8.56742e+43
-3.0106e+43
1.28306e+44
2.11698e+44
2.35256e+44
1.33968e+44
-4.82719e+44
-1.41127e+42
1.26686e+42
-4.59965e+42
-5.93611e+42
-5.57136e+42
-3.55573e+42
-4.85493e+41
-3.46118e+41
-8.96922e+42
-3.14843e+43
-5.75272e+43
-4.67494e+43
2.50404e+43
1.32879e+44
2.26507e+43
-1.24485e+43
-4.87668e+42
-2.24385e+42
-1.35935e+42
-9.57776e+41
-6.66662e+41
-3.3583e+41
2.19588e+41
1.17348e+42
2.62899e+42
4.25865e+42
6.67342e+42
1.89071e+43
6.5637e+43
1.72552e+44
6.86802e+41
2.37603e+41
1.87932e+41
1.65321e+41
1.39866e+41
9.33534e+40
1.82597e+40
-7.02389e+40
-1.27909e+41
4.65481e+41
1.88019e+42
3.69034e+42
6.92147e+42
1.57365e+43
3.8209e+43
1.55002e+41
6.67971e+40
2.57748e+40
1.1158e+40
5.60544e+39
3.82246e+39
3.02164e+39
-1.61944e+40
-6.57077e+40
5.163e+41
1.88269e+42
3.77114e+42
6.50223e+42
1.07802e+43
1.7975e+43
-2.44178e+40
-9.86321e+39
-4.99152e+39
-3.20384e+39
-2.27872e+39
-1.42969e+39
-7.77331e+38
-1.63455e+40
-5.13022e+40
6.84501e+41
2.34998e+42
4.62802e+42
7.89827e+42
1.26793e+43
1.96329e+43
6.08588e+38
1.82147e+38
2.26026e+38
2.32966e+38
2.21421e+38
2.40191e+38
-1.49014e+38
-1.94965e+40
-5.86903e+40
7.0038e+41
2.46602e+42
5.06741e+42
8.89611e+42
1.45789e+43
2.29298e+43
2.99985e+38
1.3117e+38
5.99562e+37
3.41323e+37
3.08252e+37
9.5949e+37
-1.89655e+38
-2.25032e+40
-7.33728e+40
5.09079e+41
2.02054e+42
4.40998e+42
8.06334e+42
1.35493e+43
2.16389e+43
-2.86736e+37
-1.17527e+37
-6.97308e+36
-4.00386e+36
5.54147e+36
8.02369e+37
-1.19632e+38
-2.60246e+40
-1.17992e+41
1.47453e+41
1.22856e+42
2.97309e+42
5.57275e+42
9.36633e+42
1.47904e+43
-1.67435e+36
-8.46377e+35
-7.08468e+34
1.29567e+36
9.70066e+36
8.33008e+37
2.03452e+37
-3.05571e+40
-1.31175e+41
-1.32599e+41
4.02427e+41
1.33729e+42
2.67776e+42
4.53979e+42
7.08496e+42
2.29444e+35
7.37891e+34
3.28914e+35
1.57511e+36
9.70746e+36
8.06961e+37
1.90353e+38
-3.56353e+40
-1.40011e+41
-2.36353e+41
-1.39245e+41
1.64734e+41
6.63559e+41
1.36118e+42
2.29578e+42
-1.81369e+35
-9.98174e+34
2.91357e+35
1.68393e+36
9.74103e+36
7.79231e+37
3.38772e+38
-4.20673e+40
-1.3081e+41
-2.13538e+41
-2.60099e+41
-2.42707e+41
-1.47034e+41
2.97345e+40
2.98745e+41
-2.12786e+35
-1.1037e+35
3.79117e+35
1.95516e+36
1.0016e+37
7.68084e+37
4.17917e+38
-2.7186e+40
-9.26665e+40
-1.55437e+41
-2.12846e+41
-2.59376e+41
-2.88671e+41
-2.95487e+41
-2.72714e+41
-2.40355e+35
-1.15091e+35
4.98212e+35
2.33608e+36
1.0349e+37
7.33845e+37
4.78499e+38
-1.097e+40
-4.55484e+40
-8.34141e+40
-1.22603e+41
-1.61689e+41
-2.00585e+41
-2.38666e+41
-2.73088e+41
-2.80317e+35
-1.26649e+35
6.23877e+35
2.77152e+36
1.06755e+37
6.48976e+37
5.44605e+38
-2.30382e+39
-1.35898e+40
-2.85006e+40
-4.55636e+40
-6.43517e+40
-8.53243e+40
-1.08717e+41
-1.34082e+41
-3.20157e+35
-1.36094e+35
7.59152e+35
3.24865e+36
1.12482e+37
5.5428e+37
7.60703e+38
1.78436e+39
-1.13716e+38
-3.55324e+39
-8.00556e+39
-1.34489e+40
-2.00754e+40
-2.80008e+40
-3.72842e+40
-3.64129e+35
-1.42709e+35
9.25478e+35
3.833e+36
1.22396e+37
4.84991e+37
4.96988e+38
1.84821e+39
2.15348e+39
1.96811e+39
1.49418e+39
7.84569e+38
-1.99991e+38
-1.51906e+39
-3.23266e+39
-4.1339e+35
-1.4985e+35
1.12299e+36
4.56151e+36
1.39219e+37
4.54344e+37
3.25246e+38
8.32661e+38
1.14945e+39
1.34767e+39
1.4824e+39
1.60299e+39
1.70721e+39
1.77576e+39
1.78985e+39
-4.66026e+35
-1.55592e+35
1.35264e+36
5.44753e+36
1.66973e+37
5.37195e+37
1.55793e+38
2.68592e+38
3.44643e+38
4.10335e+38
4.73173e+38
5.42248e+38
6.17976e+38
6.96794e+38
7.754e+38
-5.33579e+35
-2.17611e+35
1.48612e+36
6.10362e+36
1.63402e+37
3.40523e+37
5.55896e+37
7.08138e+37
7.8831e+37
8.53349e+37
9.23221e+37
1.01096e+38
1.11773e+38
1.24004e+38
1.37466e+38
-6.13889e+35
-5.9401e+35
2.5966e+35
2.45706e+36
6.32109e+36
1.13979e+37
1.58598e+37
1.81207e+37
1.86514e+37
1.84958e+37
1.80929e+37
1.76922e+37
1.73601e+37
1.71059e+37
1.69499e+37
-5.79628e+35
-8.41277e+35
-8.37481e+35
-4.52206e+35
3.03935e+35
1.25906e+36
2.16595e+36
2.82436e+36
3.21293e+36
3.42578e+36
3.51696e+36
3.50872e+36
3.41746e+36
3.25868e+36
3.04734e+36
-3.58095e+35
-6.06776e+35
-8.13344e+35
-9.28533e+35
-9.28064e+35
-8.40747e+35
-6.97983e+35
-5.3228e+35
-3.73465e+35
-2.36076e+35
-1.2214e+35
-2.9611e+34
4.38071e+34
1.00157e+35
1.40545e+35
-1.30415e+35
-2.301e+35
-3.20563e+35
-3.88223e+35
-4.23461e+35
-4.32074e+35
-4.21333e+35
-3.97834e+35
-3.68347e+35
-3.38154e+35
-3.09385e+35
-2.82101e+35
-2.56013e+35
-2.31085e+35
-2.07606e+35
-1.95222e+34
-3.86968e+34
-5.61227e+34
-6.9594e+34
-7.78388e+34
-8.20054e+34
-8.3066e+34
-8.19794e+34
-7.97964e+34
-7.71555e+34
-7.42073e+34
-7.0938e+34
-6.73564e+34
-6.35212e+34
-5.95211e+34
1.89187e+33
-6.46984e+31
-1.70992e+33
-3.01221e+33
-4.03626e+33
-4.81214e+33
-5.34772e+33
-5.68071e+33
-5.88722e+33
-6.01872e+33
-6.07881e+33
-6.06262e+33
-5.97367e+33
-5.82147e+33
-5.61456e+33
1.92247e+33
1.56385e+33
1.18188e+33
9.44858e+32
7.76335e+32
6.44502e+32
5.347e+32
4.40138e+32
3.60959e+32
2.96484e+32
2.4236e+32
1.95421e+32
1.54301e+32
1.1839e+32
8.80477e+31
6.21051e+32
5.59827e+32
4.2163e+32
3.18604e+32
2.45365e+32
1.93733e+32
1.56641e+32
1.29172e+32
1.09105e+32
9.46487e+31
8.35095e+31
7.42466e+31
6.62064e+31
5.90847e+31
5.27899e+31
8.20615e+31
9.42389e+31
8.36996e+31
6.82531e+31
5.37256e+31
4.1751e+31
3.23772e+31
2.5354e+31
2.02803e+31
1.65435e+31
1.36324e+31
1.12833e+31
9.36584e+30
7.80232e+30
6.51833e+30
-1.80522e+31
-9.77627e+30
-2.91982e+30
6.30802e+29
2.1082e+30
2.56561e+30
2.56299e+30
2.39741e+30
2.19249e+30
1.96739e+30
1.73007e+30
1.49669e+30
1.27915e+30
1.08466e+30
9.09251e+29
-1.36787e+31
-8.69503e+30
-5.6796e+30
-3.71265e+30
-2.48461e+30
-1.69896e+30
-1.18443e+30
-8.44305e+29
-6.16891e+29
-4.59682e+29
-3.46536e+29
-2.62737e+29
-1.99793e+29
-1.52139e+29
-1.17137e+29
-4.18322e+30
-2.25357e+30
-1.33939e+30
-9.04008e+29
-6.44481e+29
-4.72824e+29
-3.56091e+29
-2.76596e+29
-2.20388e+29
-1.78042e+29
-1.44621e+29
-1.17668e+29
-9.57639e+28
-7.79375e+28
-6.3574e+28
-2.03159e+29
-2.62086e+29
-1.482e+29
-1.00429e+29
-7.14106e+28
-5.27882e+28
-4.04186e+28
-3.20493e+28
-2.60669e+28
-2.14353e+28
-1.76796e+28
-1.45874e+28
-1.20307e+28
-9.91671e+27
-8.17695e+27
2.87781e+29
6.91155e+28
1.1473e+28
-5.55511e+26
-2.524e+27
-2.48631e+27
-2.09464e+27
-1.71925e+27
-1.40357e+27
-1.14349e+27
-9.34009e+26
-7.66545e+26
-6.31358e+26
-5.20985e+26
-4.29472e+26
4.22662e+28
2.56241e+28
8.32931e+27
3.06471e+27
1.16656e+27
4.42497e+26
1.57739e+26
4.52067e+25
2.89836e+24
-1.19817e+25
-1.61846e+25
-1.58615e+25
-1.37035e+25
-1.09865e+25
-8.2581e+24
-2.33711e+28
-4.93669e+27
-6.41066e+26
1.77704e+26
2.45082e+26
1.92398e+26
1.35728e+26
9.17545e+25
5.99973e+25
3.83065e+25
2.42942e+25
1.55514e+25
1.01535e+25
6.82249e+24
4.66461e+24
-6.70616e+27
-3.11334e+27
-1.05163e+27
-3.7952e+26
-1.36096e+26
-4.2731e+25
-6.67808e+24
6.24648e+24
9.7471e+24
9.67401e+24
8.3994e+24
6.84432e+24
5.38001e+24
4.13108e+24
3.10183e+24
6.90897e+26
-1.17435e+25
-9.18475e+25
-7.61674e+25
-5.12946e+25
-3.32156e+25
-2.13699e+25
-1.36081e+25
-8.48814e+24
-5.15927e+24
-3.05444e+24
-1.75851e+24
-9.77612e+23
-5.2042e+23
-2.53307e+23
4.40652e+26
1.96537e+26
7.14232e+25
2.67614e+25
9.68487e+24
2.82336e+24
8.27689e+22
-8.96582e+23
-1.13338e+24
-1.07619e+24
-9.16997e+23
-7.38269e+23
-5.74207e+23
-4.36953e+23
-3.24914e+23
3.02695e+25
2.58535e+25
1.4894e+25
8.68835e+24
5.20861e+24
3.232e+24
2.06439e+24
1.34074e+24
8.72768e+23
5.64669e+23
3.62268e+23
2.30367e+23
1.45153e+23
9.08131e+22
5.65457e+22
-7.67168e+24
-3.02263e+24
-9.01728e+23
-1.83014e+23
6.11557e+22
1.37164e+23
1.4947e+23
1.37444e+23
1.17081e+23
9.54225e+22
7.55617e+22
5.85999e+22
4.47435e+22
3.38207e+22
2.53752e+22
-1.23503e+24
-7.75901e+23
-4.13408e+23
-2.33973e+23
-1.40065e+23
-8.80308e+22
-5.7528e+22
-3.85884e+22
-2.61659e+22
-1.77603e+22
-1.20206e+22
-8.10634e+21
-5.45066e+21
-3.65973e+21
-2.46867e+21
-4.03145e+22
-3.3024e+22
-2.20882e+22
-1.48729e+22
-1.03495e+22
-7.45199e+21
-5.51291e+21
-4.14758e+21
-3.13704e+21
-2.36884e+21
-1.78104e+21
-1.33299e+21
-9.94535e+20
-7.41893e+20
-5.56706e+20
-1.71993e+21
-2.93733e+20
-1.77762e+19
2.53705e+19
1.94267e+19
8.10978e+18
-6.60835e+17
-6.20943e+18
-9.10415e+18
-1.00521e+19
-9.75114e+18
-8.78005e+18
-7.54944e+18
-6.31361e+18
-5.22913e+18
-7.29374e+20
-3.25541e+20
-1.23178e+20
-5.02154e+19
-2.12521e+19
-8.909e+18
-3.44333e+18
-9.94014e+17
7.12193e+16
4.81824e+17
5.83875e+17
5.50606e+17
4.6934e+17
3.81869e+17
3.02464e+17
-4.36701e+19
-3.21675e+19
-1.79847e+19
-1.05853e+19
-6.53604e+18
-4.19987e+18
-2.77797e+18
-1.87012e+18
-1.26711e+18
-8.5868e+17
-5.81278e+17
-3.93661e+17
-2.67361e+17
-1.82756e+17
-1.26219e+17
5.72168e+18
2.49294e+18
9.0375e+17
3.21403e+17
9.39961e+16
2.70604e+15
-3.23269e+16
-4.30206e+16
-4.28816e+16
-3.81536e+16
-3.19474e+16
-2.58058e+16
-2.04275e+16
-1.60531e+16
-1.25959e+16
5.9435e+17
3.70129e+17
2.00904e+17
1.1828e+17
7.43089e+16
4.90464e+16
3.35577e+16
2.3485e+16
1.66044e+16
1.17758e+16
8.35866e+15
5.94168e+15
4.23831e+15
3.04424e+15
2.21014e+15
7.19112e+15
4.94999e+15
2.97701e+15
1.92081e+15
1.30755e+15
9.26506e+14
6.76481e+14
5.03292e+14
3.77354e+14
2.8338e+14
2.12783e+14
1.59848e+14
1.20406e+14
9.12437e+13
6.97167e+13
1.85932e+13
1.01775e+13
5.07578e+12
2.75768e+12
1.62501e+12
1.02084e+12
6.73111e+11
4.58621e+11
3.18408e+11
2.23425e+11
1.57931e+11
1.12359e+11
8.05118e+10
5.81988e+10
4.25407e+10
2.10033e+12
8.5316e+11
3.5699e+11
1.73583e+11
9.62197e+10
5.85986e+10
3.81933e+10
2.60245e+10
1.81772e+10
1.28651e+10
9.18438e+09
6.60602e+09
4.78838e+09
3.50009e+09
2.5839e+09
2.85533e+11
1.19057e+11
4.42417e+10
1.95581e+10
9.76819e+09
5.34093e+09
3.13162e+09
1.92967e+09
1.22807e+09
7.99103e+08
5.29328e+08
3.5597e+08
2.42614e+08
1.67644e+08
1.17683e+08
-3.43254e+09
2.51417e+09
1.89137e+09
1.30181e+09
8.55067e+08
5.62121e+08
3.7399e+08
2.51081e+08
1.6931e+08
1.14724e+08
7.82562e+07
5.37554e+07
3.72169e+07
2.60055e+07
1.82455e+07
-5.94876e+09
-2.41275e+09
-8.83114e+08
-3.67828e+08
-1.70438e+08
-8.63905e+07
-4.71277e+07
-2.71964e+07
-1.63426e+07
-1.0107e+07
-6.37901e+06
-4.08244e+06
-2.64103e+06
-1.72842e+06
-1.16215e+06
-5.39816e+08
-2.83281e+08
-1.25422e+08
-6.13824e+07
-3.30631e+07
-1.9313e+07
-1.19785e+07
-7.73236e+06
-5.12022e+06
-3.45295e+06
-2.361e+06
-1.63056e+06
-1.13576e+06
-797913
-565389
-4.0448e+07