/*--------------------------------*- C++ -*----------------------------------*\
  =========                 |
  \\      /  F ield         | OpenFOAM: The Open Source CFD Toolbox
   \\    /   O peration     | Website:  https://openfoam.org
    \\  /    A nd           | Version:  7
     \\/     M anipulation  |
\*---------------------------------------------------------------------------*/
FoamFile
{
    version     2.0;
    format      ascii;
    class       volScalarField;
    location    "500";
    object      epsilon;
}
// * * * * * * * * * * * * * * * * * * * * * * * * * * * * * * * * * * * * * //

dimensions      [0 2 -3 0 0 0 0];

internalField   nonuniform List<scalar> 
32100
(
0.0114746
0.0114746
0.0114746
0.0114746
0.0114746
0.0114746
0.0114746
0.0114746
0.0114746
0.0114747
0.0114746
0.0114733
0.0115614
0.0141723
0.22052
0.011444
0.011444
0.011444
0.0114441
0.0114441
0.0114441
0.011444
0.0114441
0.0114441
0.0114441
0.0114444
0.0114617
0.0117392
0.0185918
0.235271
0.0114136
0.0114136
0.0114136
0.0114136
0.0114136
0.0114136
0.0114136
0.0114136
0.0114136
0.0114137
0.0114161
0.0114714
0.0121037
0.0223516
0.250551
0.0113832
0.0113832
0.0113832
0.0113832
0.0113832
0.0113832
0.0113832
0.0113832
0.0113833
0.0113838
0.0113901
0.0114981
0.0125475
0.0256248
0.266374
0.011353
0.011353
0.011353
0.011353
0.011353
0.011353
0.011353
0.011353
0.0113531
0.0113544
0.0113678
0.0115474
0.0130482
0.0286849
0.282674
0.0113229
0.0113229
0.0113229
0.0113229
0.0113229
0.0113229
0.0113229
0.0113229
0.0113232
0.0113256
0.0113497
0.0116116
0.0135754
0.0314416
0.299532
0.0112929
0.0112929
0.0112929
0.0112929
0.0112929
0.0112929
0.0112929
0.011293
0.0112934
0.0112976
0.0113364
0.0116896
0.0141222
0.034268
0.316885
0.0112631
0.011263
0.011263
0.011263
0.011263
0.0112631
0.0112631
0.0112632
0.0112638
0.0112706
0.0113272
0.0117807
0.0146841
0.037139
0.334729
0.0112333
0.0112333
0.0112333
0.0112333
0.0112333
0.0112333
0.0112334
0.0112335
0.0112346
0.0112446
0.0113237
0.0118839
0.0152575
0.0400303
0.353061
0.0112037
0.0112037
0.0112037
0.0112037
0.0112037
0.0112037
0.0112038
0.011204
0.0112057
0.0112198
0.0113249
0.0119982
0.01584
0.0429303
0.371866
0.0111742
0.0111742
0.0111742
0.0111742
0.0111742
0.0111742
0.0111743
0.0111746
0.0111771
0.0111964
0.0113297
0.0121227
0.01643
0.0458321
0.391136
0.0111449
0.0111449
0.0111449
0.0111449
0.0111449
0.0111449
0.011145
0.0111454
0.0111489
0.0111743
0.0113388
0.0122564
0.017026
0.0487357
0.410851
0.0111156
0.0111156
0.0111156
0.0111156
0.0111156
0.0111157
0.0111158
0.0111164
0.0111212
0.0111538
0.0113531
0.0123983
0.0176268
0.0516385
0.430999
0.0110865
0.0110865
0.0110865
0.0110865
0.0110865
0.0110866
0.0110867
0.0110876
0.011094
0.0111349
0.0113718
0.0125478
0.0182321
0.0545442
0.451555
0.0110575
0.0110575
0.0110575
0.0110575
0.0110576
0.0110576
0.0110578
0.011059
0.0110673
0.0111177
0.0113946
0.0127039
0.0188408
0.0574514
0.472502
0.0110287
0.0110287
0.0110287
0.0110287
0.0110287
0.0110288
0.0110291
0.0110306
0.0110412
0.0111023
0.0114215
0.012866
0.019453
0.0603661
0.493812
0.0109999
0.0109999
0.0109999
0.011
0.011
0.0110001
0.0110004
0.0110025
0.0110156
0.0110887
0.0114523
0.0130334
0.0200678
0.063286
0.515466
0.0109713
0.0109713
0.0109713
0.0109714
0.0109714
0.0109715
0.010972
0.0109746
0.0109908
0.0110769
0.0114867
0.0132056
0.0206856
0.0662187
0.537431
0.0109429
0.0109429
0.0109429
0.0109429
0.0109429
0.010943
0.0109436
0.010947
0.0109666
0.0110668
0.0115246
0.0133821
0.0213054
0.0691599
0.559686
0.0109145
0.0109145
0.0109145
0.0109145
0.0109146
0.0109147
0.0109155
0.0109196
0.0109432
0.0110587
0.0115659
0.0135624
0.0219278
0.0721185
0.582193
0.0108863
0.0108863
0.0108863
0.0108863
0.0108864
0.0108865
0.0108875
0.0108926
0.0109205
0.0110523
0.0116103
0.013746
0.0225517
0.0750873
0.604932
0.0108582
0.0108582
0.0108582
0.0108582
0.0108583
0.0108585
0.0108597
0.0108659
0.0108986
0.0110479
0.0116577
0.0139327
0.0231779
0.0780772
0.627861
0.0108302
0.0108302
0.0108302
0.0108302
0.0108303
0.0108306
0.010832
0.0108395
0.0108775
0.0110449
0.0117078
0.014122
0.0238051
0.0810776
0.65096
0.0108023
0.0108023
0.0108023
0.0108024
0.0108024
0.0108028
0.0108045
0.0108135
0.0108573
0.0110444
0.0117605
0.0143138
0.0244344
0.0841014
0.674183
0.0107746
0.0107746
0.0107746
0.0107746
0.0107747
0.0107751
0.0107773
0.0107878
0.0108379
0.0110451
0.0118156
0.0145075
0.0250641
0.0871343
0.697512
0.0107469
0.0107469
0.0107469
0.010747
0.0107471
0.0107476
0.0107502
0.0107626
0.0108193
0.0110471
0.011873
0.0147031
0.0256957
0.090192
0.720897
0.0107194
0.0107194
0.0107194
0.0107195
0.0107196
0.0107202
0.0107233
0.0107377
0.0108017
0.0110511
0.0119324
0.0149002
0.026327
0.0932557
0.744321
0.010692
0.010692
0.0106921
0.0106921
0.0106923
0.010693
0.0106966
0.0107133
0.0107849
0.0110566
0.0119938
0.0150988
0.0269601
0.0963446
0.767733
0.0106648
0.0106648
0.0106648
0.0106648
0.010665
0.0106659
0.0106701
0.0106892
0.0107689
0.0110637
0.012057
0.0152984
0.0275921
0.0994352
0.791118
0.0106376
0.0106376
0.0106376
0.0106377
0.0106379
0.010639
0.0106439
0.0106656
0.0107539
0.0110722
0.0121218
0.0154991
0.0282256
0.102551
0.814422
0.0106106
0.0106106
0.0106106
0.0106107
0.0106109
0.0106122
0.0106179
0.0106425
0.0107397
0.0110821
0.0121882
0.0157005
0.0288572
0.105662
0.837635
0.0105836
0.0105836
0.0105837
0.0105837
0.0105841
0.0105855
0.0105921
0.0106198
0.0107264
0.0110934
0.0122559
0.0159026
0.0294899
0.108797
0.8607
0.0105568
0.0105568
0.0105568
0.0105569
0.0105573
0.010559
0.0105666
0.0105975
0.010714
0.0111059
0.012325
0.016105
0.0301199
0.111922
0.883612
0.0105301
0.0105301
0.0105301
0.0105303
0.0105307
0.0105327
0.0105413
0.0105758
0.0107025
0.0111197
0.0123952
0.0163079
0.0307507
0.11507
0.90631
0.0105035
0.0105035
0.0105036
0.0105037
0.0105042
0.0105065
0.0105162
0.0105545
0.0106917
0.0111346
0.0124664
0.0165107
0.0313778
0.118199
0.928798
0.0104771
0.0104771
0.0104771
0.0104772
0.0104779
0.0104805
0.0104915
0.0105337
0.0106818
0.0111507
0.0125386
0.0167138
0.0320054
0.12135
0.95101
0.0104507
0.0104507
0.0104507
0.0104509
0.0104516
0.0104546
0.010467
0.0105134
0.0106728
0.0111678
0.0126116
0.0169165
0.0326281
0.124475
0.972959
0.0104244
0.0104244
0.0104245
0.0104247
0.0104255
0.0104289
0.0104427
0.0104936
0.0106645
0.0111859
0.0126854
0.0171192
0.033251
0.127619
0.994574
0.0103983
0.0103983
0.0103983
0.0103986
0.0103995
0.0104034
0.0104188
0.0104742
0.010657
0.0112049
0.0127598
0.0173212
0.033868
0.130729
1.01588
0.0103723
0.0103723
0.0103723
0.0103726
0.0103737
0.0103781
0.0103951
0.0104554
0.0106502
0.0112249
0.0128348
0.0175229
0.0344846
0.133856
1.03679
0.0103463
0.0103463
0.0103464
0.0103467
0.0103479
0.0103529
0.0103717
0.010437
0.0106443
0.0112457
0.0129103
0.0177238
0.0350944
0.136942
1.05736
0.0103205
0.0103205
0.0103206
0.0103209
0.0103224
0.0103279
0.0103486
0.0104192
0.010639
0.0112673
0.0129862
0.0179241
0.0357034
0.140044
1.07749
0.0102948
0.0102948
0.0102949
0.0102953
0.0102969
0.0103031
0.0103258
0.0104018
0.0106344
0.0112896
0.0130625
0.0181233
0.0363044
0.143095
1.09723
0.0102692
0.0102692
0.0102693
0.0102698
0.0102716
0.0102785
0.0103033
0.0103849
0.0106305
0.0113126
0.013139
0.0183218
0.0369041
0.146162
1.11649
0.0102437
0.0102437
0.0102438
0.0102443
0.0102464
0.0102541
0.0102811
0.0103685
0.0106273
0.0113362
0.0132157
0.0185189
0.0374951
0.14917
1.13534
0.0102183
0.0102183
0.0102184
0.010219
0.0102213
0.0102298
0.0102592
0.0103525
0.0106247
0.0113605
0.0132925
0.0187149
0.0380841
0.152192
1.15367
0.010193
0.010193
0.0101932
0.0101938
0.0101964
0.0102058
0.0102376
0.0103371
0.0106227
0.0113853
0.0133693
0.0189094
0.0386635
0.155149
1.17156
0.0101678
0.0101678
0.010168
0.0101688
0.0101716
0.0101819
0.0102163
0.0103221
0.0106214
0.0114106
0.0134461
0.0191027
0.0392402
0.158118
1.18891
0.0101427
0.0101427
0.0101429
0.0101438
0.010147
0.0101583
0.0101953
0.0103075
0.0106204
0.0114363
0.0135229
0.0192942
0.0398069
0.161018
1.20581
0.0101177
0.0101177
0.010118
0.010119
0.0101225
0.0101348
0.0101746
0.0102934
0.0106203
0.0114625
0.0135995
0.0194843
0.04037
0.163926
1.22213
0.0100928
0.0100929
0.0100931
0.0100942
0.0100982
0.0101115
0.0101542
0.0102798
0.0106206
0.0114891
0.013676
0.0196724
0.0409228
0.166763
1.238
0.010068
0.0100681
0.0100684
0.0100696
0.010074
0.0100885
0.0101342
0.0102665
0.0106212
0.011516
0.0137521
0.0198589
0.0414709
0.169603
1.25326
0.0100434
0.0100434
0.0100438
0.0100451
0.0100499
0.0100657
0.0101144
0.0102537
0.0106224
0.0115432
0.013828
0.0200432
0.0420088
0.172372
1.26808
0.0100188
0.0100189
0.0100193
0.0100208
0.010026
0.010043
0.0100949
0.0102414
0.0106241
0.0115707
0.0139036
0.0202257
0.0425408
0.175139
1.28228
0.00999429
0.00999439
0.00999483
0.00999651
0.0100022
0.0100206
0.0100758
0.0102294
0.0106262
0.0115984
0.0139787
0.0204059
0.0430629
0.177838
1.29603
0.00996991
0.00997002
0.00997052
0.00997238
0.0099786
0.00999835
0.0100569
0.0102178
0.0106287
0.0116263
0.0140534
0.020584
0.0435776
0.180526
1.30915
0.00994562
0.00994575
0.00994631
0.00994836
0.00995513
0.00997634
0.0100384
0.0102067
0.0106316
0.0116544
0.0141276
0.0207599
0.0440833
0.183155
1.32185
0.00992144
0.00992158
0.00992221
0.00992446
0.00993181
0.00995454
0.0100201
0.0101959
0.0106349
0.0116826
0.0142012
0.0209333
0.0445797
0.185758
1.33389
0.00989735
0.00989751
0.00989821
0.00990069
0.00990865
0.00993294
0.0100022
0.0101854
0.0106385
0.0117109
0.0142743
0.0211044
0.0450686
0.188318
1.34554
0.00987336
0.00987354
0.00987432
0.00987703
0.00988563
0.00991156
0.00998453
0.0101754
0.0106425
0.0117393
0.0143467
0.0212728
0.0455458
0.190832
1.35651
0.00984946
0.00984968
0.00985054
0.00985349
0.00986278
0.00989039
0.00996715
0.0101657
0.0106468
0.0117677
0.0144185
0.021439
0.0460175
0.193327
1.36713
0.00982567
0.00982591
0.00982686
0.00983008
0.00984007
0.00986943
0.00995007
0.0101563
0.0106513
0.0117961
0.0144896
0.0216022
0.046475
0.195747
1.37706
0.00980197
0.00980223
0.00980329
0.00980679
0.00981752
0.00984869
0.00993326
0.0101472
0.0106561
0.0118246
0.01456
0.0217632
0.0469295
0.198183
1.38667
0.00977836
0.00977866
0.00977982
0.00978362
0.00979513
0.00982815
0.00991674
0.0101385
0.0106612
0.0118529
0.0146295
0.021921
0.0473668
0.200504
1.39558
0.00975485
0.00975519
0.00975646
0.00976057
0.00977289
0.00980783
0.0099005
0.0101301
0.0106665
0.0118812
0.0146983
0.0220765
0.0478039
0.202889
1.40422
0.00973144
0.00973181
0.0097332
0.00973764
0.00975081
0.00978771
0.00988452
0.010122
0.010672
0.0119095
0.0147663
0.0222288
0.048221
0.205106
1.41214
0.00970812
0.00970853
0.00971005
0.00971484
0.00972889
0.00976781
0.00986881
0.0101142
0.0106778
0.0119376
0.0148333
0.0223786
0.0486408
0.207452
1.41985
0.0096849
0.00968534
0.009687
0.00969217
0.00970713
0.00974812
0.00985337
0.0101066
0.0106837
0.0119655
0.0148996
0.0225254
0.0490378
0.209559
1.42681
0.00966176
0.00966226
0.00966406
0.00966961
0.00968552
0.00972863
0.00983818
0.0100993
0.0106897
0.0119933
0.0149648
0.0226692
0.0494406
0.211882
1.43363
0.00963873
0.00963927
0.00964123
0.00964719
0.00966407
0.00970935
0.00982325
0.0100923
0.0106959
0.012021
0.0150293
0.0228105
0.0498182
0.213871
1.43967
0.00961578
0.00961637
0.0096185
0.00962488
0.00964278
0.00969027
0.00980857
0.0100855
0.0107022
0.0120484
0.0150925
0.0229482
0.050204
0.216195
1.44564
0.00959293
0.00959358
0.00959587
0.0096027
0.00962165
0.0096714
0.00979413
0.010079
0.0107087
0.0120756
0.0151552
0.0230841
0.0505638
0.218061
1.45081
0.00957017
0.00957087
0.00957335
0.00958065
0.00960067
0.00965273
0.00977992
0.0100726
0.0107152
0.0121025
0.0152163
0.0232154
0.0509326
0.220415
1.45597
0.00954749
0.00954826
0.00955093
0.00955871
0.00957985
0.00963425
0.00976596
0.0100665
0.0107219
0.0121294
0.0152772
0.0233463
0.0512771
0.222157
1.46032
0.00952491
0.00952575
0.00952862
0.0095369
0.00955919
0.00961598
0.00975221
0.0100606
0.0107285
0.0121556
0.015336
0.0234709
0.051629
0.224581
1.46467
0.00950242
0.00950332
0.00950641
0.00951521
0.00953868
0.00959789
0.0097387
0.010055
0.0107354
0.0121821
0.0153952
0.0235975
0.0519631
0.226232
1.4683
0.00948002
0.009481
0.00948431
0.00949365
0.00951832
0.00958
0.00972538
0.0100494
0.010742
0.0122076
0.0154515
0.0237149
0.0522961
0.228679
1.47199
0.00945769
0.00945875
0.00946229
0.0094722
0.00949811
0.0095623
0.0097123
0.0100441
0.0107491
0.0122337
0.0155093
0.0238383
0.052633
0.230866
1.47422
0.00943547
0.00943661
0.0094404
0.00945089
0.00947806
0.00954478
0.00969937
0.0100388
0.0107556
0.0122581
0.0155625
0.0239475
0.0529369
0.233788
1.479
0.0094133
0.00941452
0.00941857
0.00942966
0.00945814
0.00952743
0.00968671
0.0100339
0.0107629
0.0122841
0.0156195
0.024071
0.0533382
0.236078
1.48344
0.00934783
0.00934934
0.00935417
0.00936711
0.00939949
0.00947644
0.00964928
0.0100186
0.010781
0.0123522
0.0157669
0.0243658
0.0539436
0.238525
2.022
0.00924066
0.00924272
0.00924912
0.00926559
0.00930517
0.00939567
0.00959177
0.00999803
0.0108158
0.012469
0.0160135
0.0248806
0.0564503
0.312913
3.41755
0.0091358
0.00913852
0.00914679
0.00916719
0.00921444
0.0093185
0.00953663
0.00997555
0.0108382
0.0125493
0.0161666
0.0251678
0.0586707
0.374326
3.77843
0.00903256
0.00903605
0.00904639
0.00907107
0.00912637
0.00924423
0.00948423
0.00995508
0.0108623
0.012635
0.0163522
0.0257368
0.0649751
0.511714
4.25738
0.00893189
0.00893627
0.00894896
0.00897831
0.00904195
0.00917345
0.0094339
0.00993272
0.0108747
0.0126874
0.0164645
0.0262398
0.0727593
0.666836
4.40689
0.00883298
0.00883832
0.00885353
0.00888773
0.00895983
0.0091048
0.00938493
0.00991053
0.0108876
0.0127513
0.0166563
0.0273533
0.0888947
0.873991
4.37402
0.0087367
0.00874314
0.00876111
0.00880049
0.00888118
0.00903929
0.00933776
0.00988693
0.0108921
0.0127923
0.0168153
0.0287156
0.112762
1.10649
4.23364
0.00864218
0.00864975
0.00867057
0.00871515
0.00880431
0.00897505
0.00929081
0.00986215
0.0108965
0.0128557
0.017162
0.0316504
0.15226
1.33285
3.96309
0.00855029
0.00855912
0.00858301
0.008633
0.00873067
0.00891359
0.00924547
0.00983705
0.0108993
0.012923
0.0175456
0.035314
0.205586
1.55053
3.66591
0.00846009
0.00847019
0.00849711
0.0085524
0.00865821
0.00885262
0.0091996
0.00981083
0.0109053
0.013022
0.018263
0.0422301
0.283104
1.73751
3.37766
0.00837254
0.008384
0.00841415
0.00847489
0.00858885
0.00879437
0.00915571
0.00978641
0.010918
0.0131814
0.0192766
0.0517075
0.378259
1.87611
3.12208
0.00828656
0.00829935
0.0083326
0.00839851
0.00852006
0.00873594
0.00911106
0.00976251
0.010942
0.0133992
0.0208209
0.067214
0.49521
1.96052
2.90404
0.00820324
0.00821743
0.00825395
0.00832518
0.00845441
0.00868056
0.00906954
0.00974424
0.01099
0.0137558
0.0232153
0.0895106
0.62079
1.99112
2.71733
0.00812132
0.00813685
0.00817641
0.00825255
0.00838879
0.00862451
0.00902766
0.00973138
0.0110691
0.0142506
0.0266288
0.121364
0.749483
1.9835
2.55568
0.00804204
0.00805897
0.00810173
0.00818297
0.00832649
0.00857234
0.00899165
0.00973317
0.0111914
0.0149958
0.0318519
0.164935
0.874115
1.95704
2.41503
0.00796397
0.0079822
0.00802788
0.00811375
0.00826388
0.00851957
0.00895754
0.00974894
0.0113862
0.0160633
0.0394026
0.220915
0.984679
1.90763
2.28721
0.0078885
0.00790809
0.00795684
0.00804762
0.00820501
0.00847225
0.00893241
0.00977913
0.0116556
0.0175964
0.050586
0.28865
1.07412
1.85388
2.17099
0.00781404
0.00783487
0.00788641
0.00798167
0.00814588
0.00842453
0.0089103
0.00984635
0.0120627
0.0198191
0.0664536
0.365392
1.14125
1.79955
2.06542
0.00774212
0.00776427
0.00781881
0.00791894
0.0080909
0.00838422
0.00890866
0.00994946
0.0126205
0.0229774
0.0885213
0.446483
1.18791
1.7467
1.96977
0.00767105
0.00769437
0.00775161
0.0078563
0.00803631
0.00834718
0.00891811
0.0101139
0.0134273
0.0275371
0.117867
0.528314
1.21585
1.69488
1.88274
0.00760245
0.00762707
0.00768734
0.0077974
0.00798737
0.00831946
0.00894304
0.0103414
0.0145312
0.0340027
0.155416
0.606375
1.2307
1.64438
1.80332
0.00753457
0.00756036
0.00762345
0.00773879
0.00793915
0.00829594
0.0089998
0.0106733
0.0161034
0.0432018
0.200588
0.676075
1.23546
1.59506
1.73038
0.00746911
0.00749629
0.0075627
0.00768442
0.00789832
0.00829149
0.00909147
0.0111269
0.0182832
0.0559197
0.252305
0.735668
1.23394
1.54722
1.66302
0.00740434
0.00743275
0.00750234
0.00763097
0.00786158
0.00829862
0.00923336
0.0117637
0.021362
0.0731405
0.307914
0.7849
1.22909
1.50183
1.6008
0.00734195
0.00737194
0.00744573
0.00758346
0.00783471
0.00832374
0.00943199
0.0126295
0.0256445
0.0955805
0.365428
0.823584
1.21946
1.45829
1.54306
0.00728037
0.00731188
0.00738985
0.00753714
0.00781209
0.00837291
0.00971622
0.0138317
0.031644
0.123716
0.421922
0.853468
1.20697
1.41667
1.48932
0.00722117
0.00725469
0.0073382
0.00749858
0.00780859
0.00845639
0.0101002
0.0154756
0.0398842
0.157239
0.47499
0.876212
1.19232
1.37694
1.43917
0.00716306
0.00719863
0.00728818
0.00746446
0.0078161
0.00858633
0.010635
0.0177568
0.0510588
0.195344
0.52315
0.893136
1.17604
1.33898
1.39223
0.00710742
0.00714586
0.00724396
0.00744054
0.00784078
0.00876471
0.011351
0.020881
0.0657315
0.236586
0.565598
0.905356
1.1587
1.30275
1.34821
0.00705353
0.00709513
0.00720201
0.00742066
0.00788905
0.00901984
0.012338
0.0252018
0.0844769
0.279563
0.602084
0.913399
1.14056
1.26811
1.3068
0.00700239
0.00704779
0.00716722
0.00742229
0.00796989
0.00936034
0.0136637
0.0310733
0.107381
0.322453
0.633204
0.918168
1.12202
1.23505
1.2678
0.00695344
0.00700426
0.00713953
0.00743068
0.00809331
0.00983261
0.0154899
0.039022
0.134335
0.363806
0.65939
0.919626
1.10309
1.20342
1.23098
0.00690894
0.00696558
0.00711857
0.00746081
0.00826327
0.0104599
0.0179556
0.0494587
0.164492
0.402582
0.681265
0.918898
1.08397
1.17311
1.19613
0.00686656
0.00693115
0.00710976
0.00751225
0.00850224
0.0113172
0.0213372
0.0629164
0.19719
0.438043
0.699482
0.91668
1.06508
1.14415
1.16312
0.00683106
0.00690577
0.00711489
0.00759706
0.00882308
0.012462
0.0258922
0.0795923
0.231181
0.470003
0.714206
0.912302
1.04616
1.11639
1.13179
0.006799
0.00688557
0.00713072
0.00772138
0.00926159
0.0140225
0.0320265
0.0996078
0.265371
0.49851
0.725879
0.906623
1.02739
1.08975
1.10199
0.00677604
0.00687827
0.00716919
0.00789435
0.00984662
0.0161203
0.0400764
0.122566
0.298777
0.523747
0.734887
0.899834
1.00883
1.06416
1.0736
0.00675905
0.00688278
0.00723433
0.00813279
0.0106363
0.0189695
0.050474
0.148072
0.330626
0.545893
0.741571
0.892119
0.990518
1.03956
1.04651
0.0067578
0.00690079
0.00733313
0.00845646
0.0116936
0.0227912
0.0634532
0.175349
0.360468
0.56515
0.746227
0.883647
0.972499
1.0159
1.02063
0.00676392
0.00693645
0.00747124
0.00889145
0.0131206
0.0279022
0.0791908
0.203599
0.388079
0.581709
0.749099
0.874538
0.954771
0.993106
0.995864
0.00678517
0.00700181
0.00766605
0.0094764
0.0150391
0.0346028
0.0975195
0.232027
0.413408
0.595848
0.750406
0.864954
0.937387
0.97115
0.972138
0.00682638
0.00709508
0.00792792
0.010258
0.0176242
0.0432402
0.118209
0.259936
0.4364
0.607654
0.750183
0.854842
0.920276
0.949952
0.949393
0.00689811
0.00723211
0.00828582
0.0113108
0.0210872
0.0540561
0.140755
0.286837
0.457132
0.617547
0.749162
0.844541
0.903529
0.929486
0.927561
0.00699891
0.00741759
0.00876133
0.012721
0.0256882
0.0672216
0.164565
0.312405
0.475668
0.625603
0.746936
0.833973
0.887125
0.909717
0.906571
0.007145
0.00767497
0.00940473
0.014625
0.0317167
0.0826789
0.189013
0.336446
0.492123
0.631986
0.74373
0.823175
0.871045
0.8906
0.886363
0.00734162
0.00801723
0.0102619
0.0171758
0.0394512
0.100284
0.213514
0.358816
0.506586
0.636846
0.739733
0.812207
0.855276
0.872087
0.86688
0.00761268
0.00848223
0.0114215
0.0205969
0.0491461
0.119673
0.237614
0.379474
0.519242
0.640402
0.735087
0.801154
0.839836
0.854154
0.84808
0.00797306
0.00910118
0.0129769
0.0251196
0.0609147
0.140387
0.260967
0.398365
0.530124
0.642668
0.729776
0.789989
0.824687
0.836756
0.829915
0.00846138
0.00993905
0.0150816
0.0310315
0.0747867
0.161924
0.283327
0.415569
0.539508
0.64399
0.72404
0.778833
0.809865
0.819879
0.812353
0.00911288
0.0110639
0.017906
0.0385814
0.0906034
0.183798
0.304501
0.431066
0.547284
0.643994
0.717685
0.767596
0.795318
0.803481
0.795352
0.00999605
0.0125927
0.0216897
0.0479928
0.108091
0.205612
0.324364
0.444947
0.553776
0.643467
0.711023
0.75637
0.781052
0.787536
0.778876
0.0111885
0.0146615
0.0266809
0.0593674
0.126852
0.227029
0.342856
0.457314
0.559069
0.642126
0.704061
0.745194
0.767076
0.772026
0.762897
0.0128201
0.0174744
0.0331684
0.0727097
0.146473
0.247777
0.359923
0.468191
0.563143
0.639895
0.696726
0.734026
0.753361
0.756923
0.747385
0.0150533
0.0212683
0.0413857
0.0878523
0.166539
0.267656
0.375578
0.477697
0.56617
0.637056
0.689126
0.722897
0.739901
0.742205
0.732313
0.0181325
0.0263461
0.0515227
0.104522
0.186687
0.286502
0.389793
0.48584
0.568154
0.633581
0.681255
0.71179
0.726671
0.72784
0.717642
0.022361
0.0330176
0.0636331
0.122362
0.206594
0.304218
0.402649
0.492814
0.569332
0.629639
0.673213
0.70075
0.713679
0.713817
0.703359
0.0281349
0.0415931
0.0776467
0.140994
0.225996
0.320716
0.414114
0.498504
0.569413
0.625078
0.664931
0.689742
0.700899
0.700129
0.68943
0.0358745
0.0522925
0.0933477
0.160037
0.244672
0.335947
0.424262
0.503151
0.568972
0.620132
0.656488
0.678781
0.688321
0.686742
0.675842
0.0459905
0.0652342
0.110441
0.179149
0.26245
0.34989
0.433159
0.506804
0.567816
0.614814
0.647919
0.667883
0.675943
0.673635
0.662575
0.0587463
0.0803604
0.128567
0.198017
0.279192
0.36253
0.440816
0.509425
0.565838
0.609058
0.639199
0.657038
0.663752
0.660793
0.649611
0.0741849
0.0974649
0.14736
0.216377
0.294785
0.373848
0.44727
0.511103
0.563237
0.602924
0.630335
0.646232
0.651728
0.648194
0.636928
0.0920627
0.116187
0.166459
0.234012
0.309159
0.383869
0.452576
0.511861
0.560038
0.596455
0.62135
0.63547
0.639863
0.635822
0.624507
0.111891
0.136065
0.185529
0.250744
0.322235
0.392548
0.456688
0.511683
0.556193
0.589619
0.612226
0.624737
0.628142
0.623662
0.612333
0.133011
0.156567
0.204252
0.266436
0.333997
0.399963
0.459801
0.510903
0.551888
0.582499
0.602988
0.614031
0.616551
0.611694
0.600386
0.154713
0.177153
0.222343
0.280979
0.344417
0.406104
0.461835
0.50921
0.547024
0.575072
0.593633
0.603348
0.605079
0.599905
0.588649
0.176307
0.197308
0.239533
0.294293
0.353513
0.411013
0.462806
0.506709
0.54162
0.567336
0.584149
0.59267
0.593708
0.588276
0.577104
0.197208
0.216598
0.255608
0.306308
0.361253
0.414626
0.462641
0.503371
0.535644
0.559264
0.574515
0.581982
0.582419
0.576785
0.565737
0.216931
0.234643
0.27035
0.316949
0.367681
0.417147
0.461785
0.499408
0.529191
0.550886
0.564733
0.571269
0.571199
0.565415
0.554526
0.235137
0.251196
0.283666
0.326271
0.372936
0.418645
0.459935
0.494762
0.522268
0.542211
0.554799
0.56052
0.560033
0.554148
0.54345
0.251595
0.266069
0.295424
0.334147
0.376806
0.418769
0.457023
0.489343
0.514821
0.53321
0.544691
0.549713
0.548893
0.542963
0.53249
0.266157
0.279142
0.305568
0.340637
0.37957
0.418199
0.453406
0.483307
0.506907
0.523897
0.534408
0.538839
0.537764
0.531846
0.52163
0.27878
0.290406
0.314147
0.345851
0.38131
0.416724
0.449098
0.476716
0.498567
0.514285
0.523942
0.527879
0.526623
0.520772
0.510846
0.289507
0.299886
0.321143
0.349671
0.381761
0.414168
0.444018
0.469566
0.489825
0.504397
0.513304
0.516833
0.515461
0.509726
0.500122
0.298291
0.307542
0.326552
0.352217
0.381334
0.410852
0.438281
0.461898
0.480697
0.49424
0.502494
0.505694
0.504266
0.498694
0.489441
0.305398
0.313656
0.330674
0.353771
0.380129
0.406931
0.432045
0.453823
0.471252
0.48385
0.491527
0.494464
0.493032
0.487663
0.478789
0.310732
0.318071
0.333229
0.353872
0.377759
0.402228
0.425268
0.445361
0.461527
0.473261
0.480429
0.483155
0.481761
0.47663
0.468157
0.314598
0.321147
0.33471
0.353281
0.37474
0.396957
0.418044
0.436563
0.451556
0.462499
0.469215
0.471777
0.470456
0.46559
0.457536
0.31699
0.322803
0.334859
0.351681
0.371025
0.391183
0.410457
0.427505
0.441401
0.45161
0.457917
0.46035
0.459127
0.454546
0.446925
0.318064
0.323248
0.334192
0.349161
0.366625
0.384924
0.402535
0.418222
0.431099
0.440627
0.446562
0.448892
0.447788
0.443505
0.436325
0.318005
0.322764
0.332536
0.345935
0.361674
0.378269
0.394348
0.40877
0.420695
0.429588
0.435183
0.437429
0.436454
0.432477
0.425741
0.317242
0.3214
0.330013
0.342033
0.356219
0.371267
0.38594
0.399191
0.41023
0.41853
0.423809
0.425984
0.425144
0.421475
0.41518
0.31537
0.319027
0.326748
0.337543
0.350336
0.363977
0.377361
0.38953
0.399743
0.407488
0.41247
0.414584
0.413881
0.410514
0.404655
0.312594
0.315896
0.322827
0.332533
0.344078
0.356448
0.368653
0.379824
0.389269
0.396492
0.401196
0.403253
0.402684
0.399613
0.394179
0.309169
0.312133
0.318355
0.327086
0.337508
0.348726
0.359856
0.370109
0.378838
0.385572
0.390013
0.392016
0.391575
0.388789
0.383766
0.305164
0.307822
0.313409
0.321268
0.330681
0.340857
0.351008
0.360414
0.36848
0.374756
0.378946
0.380896
0.380575
0.37806
0.373431
0.300657
0.303044
0.308065
0.315145
0.32365
0.332884
0.342141
0.35077
0.358219
0.364066
0.368018
0.369914
0.369704
0.367444
0.363191
0.295729
0.297873
0.30239
0.30877
0.316461
0.324843
0.333287
0.341201
0.34808
0.353523
0.357249
0.359089
0.35898
0.356959
0.353062
0.290453
0.29238
0.296444
0.302199
0.309157
0.316769
0.324472
0.331731
0.33808
0.343146
0.346656
0.34844
0.34842
0.346622
0.343059
0.284887
0.28662
0.290281
0.295477
0.301775
0.308691
0.31572
0.322378
0.328238
0.33295
0.336254
0.337979
0.338039
0.336445
0.333196
0.279087
0.280649
0.283951
0.288645
0.294351
0.300638
0.307053
0.31316
0.318568
0.322949
0.326057
0.327722
0.327852
0.326444
0.323487
0.273106
0.274515
0.277495
0.281741
0.286914
0.292632
0.29849
0.304092
0.309081
0.313154
0.316075
0.317678
0.317869
0.31663
0.313945
0.266989
0.268262
0.270955
0.274799
0.279492
0.284696
0.290046
0.295187
0.29979
0.303574
0.306317
0.307858
0.3081
0.307014
0.30458
0.260778
0.261928
0.264365
0.267847
0.272109
0.276847
0.281736
0.286454
0.2907
0.294215
0.29679
0.298268
0.298552
0.297605
0.295402
0.254507
0.255548
0.257754
0.260912
0.264784
0.269102
0.273571
0.277902
0.28182
0.285084
0.287499
0.288915
0.289232
0.28841
0.286418
0.248208
0.24915
0.25115
0.254016
0.257538
0.261474
0.265562
0.269538
0.273153
0.276184
0.278448
0.2798
0.280145
0.279434
0.277637
0.241907
0.242761
0.244575
0.247179
0.250384
0.253975
0.257716
0.261368
0.264704
0.267518
0.269639
0.270929
0.271294
0.270683
0.269063
0.235628
0.236403
0.23805
0.240417
0.243337
0.246615
0.25004
0.253396
0.256475
0.259087
0.261072
0.262302
0.262682
0.26216
0.2607
0.229391
0.230095
0.231593
0.233747
0.236408
0.239403
0.24254
0.245625
0.248466
0.250891
0.252749
0.253919
0.254309
0.253865
0.252552
0.223214
0.223854
0.225216
0.227178
0.229606
0.232343
0.235219
0.238055
0.240679
0.24293
0.244668
0.245779
0.246175
0.245801
0.244621
0.217111
0.217694
0.218934
0.220723
0.222939
0.225443
0.228081
0.23069
0.233112
0.235202
0.236827
0.237881
0.238279
0.237967
0.236907
0.211095
0.211626
0.212757
0.214389
0.216414
0.218706
0.221126
0.223527
0.225765
0.227704
0.229224
0.230223
0.23062
0.230362
0.22941
0.205177
0.205662
0.206693
0.208183
0.210035
0.212134
0.214356
0.216567
0.218634
0.220435
0.221855
0.222801
0.223195
0.222984
0.222131
0.199365
0.199808
0.200749
0.202111
0.203805
0.20573
0.207771
0.209807
0.211718
0.21339
0.214718
0.215612
0.216001
0.215831
0.215066
0.193667
0.194071
0.194932
0.196177
0.197729
0.199495
0.20137
0.203247
0.205014
0.206566
0.207807
0.208653
0.209034
0.2089
0.208215
0.188088
0.188457
0.189244
0.190385
0.191807
0.193428
0.195153
0.196883
0.198518
0.199959
0.201119
0.201917
0.20229
0.202187
0.201575
0.182632
0.18297
0.183691
0.184736
0.18604
0.187529
0.189117
0.190713
0.192225
0.193565
0.194648
0.195402
0.195765
0.19569
0.195142
0.177304
0.177613
0.178274
0.179232
0.180429
0.181798
0.18326
0.184733
0.186133
0.187378
0.18839
0.189102
0.189454
0.189402
0.188912
0.172105
0.172389
0.172994
0.173873
0.174973
0.176232
0.17758
0.17894
0.180237
0.181394
0.18234
0.183011
0.183353
0.18332
0.182883
0.167036
0.167297
0.167853
0.16866
0.169671
0.17083
0.172073
0.17333
0.174532
0.175607
0.176491
0.177124
0.177455
0.17744
0.17705
0.1621
0.162339
0.16285
0.163592
0.164523
0.16559
0.166737
0.167899
0.169013
0.170014
0.17084
0.171437
0.171756
0.171756
0.171408
0.157296
0.157516
0.157985
0.158668
0.159525
0.160509
0.161568
0.162643
0.163676
0.164607
0.16538
0.165943
0.16625
0.166262
0.165953
0.152624
0.152826
0.153258
0.153887
0.154676
0.155584
0.156563
0.157558
0.158517
0.159384
0.160106
0.160637
0.160932
0.160956
0.160681
0.148082
0.148268
0.148666
0.149246
0.149974
0.150812
0.151717
0.152639
0.153529
0.154337
0.155013
0.155513
0.155797
0.15583
0.155586
0.143671
0.143842
0.144209
0.144744
0.145416
0.146191
0.147028
0.147883
0.14871
0.149462
0.150095
0.150567
0.150839
0.15088
0.150664
0.139387
0.139546
0.139884
0.140378
0.140999
0.141715
0.14249
0.143284
0.144052
0.144754
0.145347
0.145792
0.146053
0.146101
0.14591
0.135231
0.135377
0.13569
0.136146
0.13672
0.137383
0.138101
0.138838
0.139553
0.140208
0.140763
0.141183
0.141434
0.141487
0.141318
0.131199
0.131334
0.131623
0.132045
0.132576
0.13319
0.133857
0.134541
0.135207
0.135818
0.136339
0.136735
0.136976
0.137033
0.136885
0.127289
0.127414
0.127682
0.128072
0.128564
0.129134
0.129752
0.130388
0.131009
0.13158
0.132068
0.132443
0.132673
0.132735
0.132605
0.1235
0.123616
0.123863
0.124225
0.124681
0.125209
0.125784
0.126376
0.126955
0.127489
0.127947
0.128301
0.128522
0.128586
0.128474
0.119828
0.119935
0.120165
0.1205
0.120923
0.121414
0.121948
0.1225
0.12304
0.123539
0.12397
0.124304
0.124517
0.124584
0.124487
0.11627
0.11637
0.116583
0.116894
0.117287
0.117744
0.118241
0.118755
0.119259
0.119727
0.120132
0.120449
0.120652
0.120722
0.120638
0.112826
0.112918
0.113116
0.113405
0.113771
0.114195
0.114658
0.115138
0.115609
0.116048
0.116429
0.116729
0.116925
0.116996
0.116925
0.10949
0.109576
0.10976
0.110029
0.110369
0.110765
0.111197
0.111644
0.112085
0.112497
0.112856
0.11314
0.113328
0.113401
0.113341
0.106261
0.106341
0.106512
0.106763
0.10708
0.107449
0.107852
0.10827
0.108684
0.10907
0.109409
0.109678
0.109859
0.109933
0.109884
0.103136
0.103211
0.10337
0.103604
0.103899
0.104244
0.10462
0.105012
0.1054
0.105763
0.106082
0.106339
0.106512
0.106587
0.106548
0.100113
0.100182
0.100331
0.100549
0.100825
0.101146
0.101499
0.101866
0.102229
0.102571