/*--------------------------------*- C++ -*----------------------------------*\
  =========                 |
  \\      /  F ield         | OpenFOAM: The Open Source CFD Toolbox
   \\    /   O peration     | Website:  https://openfoam.org
    \\  /    A nd           | Version:  7
     \\/     M anipulation  |
\*---------------------------------------------------------------------------*/
FoamFile
{
    version     2.0;
    format      ascii;
    class       volScalarField;
    location    "500";
    object      k;
}
// * * * * * * * * * * * * * * * * * * * * * * * * * * * * * * * * * * * * * //

dimensions      [0 2 -2 0 0 0 0];

internalField   nonuniform List<scalar> 
32100
(
0.00579596
0.00579596
0.00579596
0.00579596
0.00579596
0.00579596
0.00579596
0.00579596
0.00579596
0.00579597
0.00579598
0.0057959
0.0058002
0.00584998
0.00590062
0.00578791
0.00578791
0.00578791
0.00578791
0.00578791
0.00578791
0.00578791
0.00578791
0.00578791
0.00578792
0.00578798
0.00579005
0.0058088
0.00595213
0.00616092
0.00577988
0.00577988
0.00577988
0.00577988
0.00577988
0.00577988
0.00577988
0.00577988
0.00577989
0.00577994
0.00578047
0.00578982
0.0058205
0.00600937
0.00642486
0.00577187
0.00577187
0.00577187
0.00577187
0.00577187
0.00577187
0.00577187
0.00577187
0.00577189
0.00577206
0.00577344
0.00579043
0.00583647
0.00604149
0.0066926
0.00576388
0.00576388
0.00576388
0.00576388
0.00576388
0.00576388
0.00576388
0.00576389
0.00576394
0.00576432
0.00576702
0.00579166
0.00585204
0.00605974
0.00696291
0.00575591
0.00575591
0.00575591
0.00575591
0.00575591
0.00575591
0.00575592
0.00575593
0.00575602
0.00575672
0.00576111
0.00579173
0.0058649
0.00607033
0.00723706
0.00574797
0.00574797
0.00574797
0.00574797
0.00574797
0.00574797
0.00574798
0.005748
0.00574815
0.00574927
0.00575561
0.0057913
0.0058736
0.00607716
0.00751395
0.00574005
0.00574005
0.00574005
0.00574005
0.00574005
0.00574005
0.00574006
0.0057401
0.00574033
0.00574196
0.00575041
0.00579019
0.00587913
0.00608191
0.00779343
0.00573215
0.00573215
0.00573215
0.00573215
0.00573215
0.00573216
0.00573217
0.00573224
0.00573258
0.00573477
0.00574537
0.00578801
0.00588037
0.00608522
0.00807544
0.00572428
0.00572428
0.00572428
0.00572428
0.00572428
0.00572429
0.00572431
0.0057244
0.00572489
0.00572771
0.00574036
0.00578501
0.00587945
0.00608756
0.0083597
0.00571643
0.00571643
0.00571643
0.00571643
0.00571643
0.00571644
0.00571647
0.0057166
0.00571727
0.00572074
0.00573532
0.00578133
0.00587693
0.00608929
0.00864606
0.00570861
0.00570861
0.00570861
0.00570861
0.00570861
0.00570862
0.00570866
0.00570883
0.00570971
0.00571387
0.00573019
0.00577696
0.00587212
0.00609071
0.00893421
0.00570081
0.00570081
0.00570081
0.00570081
0.00570081
0.00570083
0.00570088
0.0057011
0.00570221
0.00570707
0.00572493
0.00577197
0.00586599
0.00609198
0.00922396
0.00569303
0.00569303
0.00569303
0.00569303
0.00569304
0.00569306
0.00569313
0.00569341
0.00569478
0.00570033
0.0057195
0.00576644
0.00585887
0.00609337
0.00951496
0.00568528
0.00568528
0.00568528
0.00568529
0.00568529
0.00568532
0.0056854
0.00568575
0.0056874
0.00569363
0.00571391
0.00576043
0.00585101
0.00609493
0.009807
0.00567755
0.00567755
0.00567756
0.00567756
0.00567757
0.0056776
0.00567771
0.00567814
0.00568007
0.00568696
0.00570813
0.00575399
0.00584265
0.00609693
0.0100997
0.00566985
0.00566985
0.00566986
0.00566986
0.00566988
0.00566991
0.00567004
0.00567056
0.00567279
0.0056803
0.00570216
0.00574718
0.00583391
0.0060993
0.0103928
0.00566218
0.00566218
0.00566218
0.00566219
0.0056622
0.00566224
0.00566241
0.00566303
0.00566555
0.00567365
0.00569602
0.00574004
0.00582495
0.00610235
0.010686
0.00565453
0.00565453
0.00565453
0.00565454
0.00565456
0.00565461
0.0056548
0.00565553
0.00565836
0.005667
0.00568969
0.00573261
0.00581582
0.00610588
0.010979
0.0056469
0.0056469
0.00564691
0.00564691
0.00564694
0.005647
0.00564723
0.00564807
0.0056512
0.00566032
0.0056832
0.00572494
0.0058066
0.00611027
0.0112714
0.0056393
0.0056393
0.0056393
0.00563932
0.00563934
0.00563941
0.00563968
0.00564065
0.00564407
0.00565363
0.00567654
0.00571704
0.00579732
0.00611519
0.011563
0.00563172
0.00563172
0.00563173
0.00563174
0.00563177
0.00563185
0.00563217
0.00563326
0.00563697
0.00564691
0.00566973
0.00570896
0.00578803
0.00612109
0.0118534
0.00562417
0.00562417
0.00562418
0.00562419
0.00562422
0.00562432
0.00562469
0.00562591
0.0056299
0.00564015
0.00566276
0.00570069
0.00577871
0.0061275
0.0121424
0.00561664
0.00561664
0.00561665
0.00561666
0.0056167
0.00561682
0.00561723
0.00561859
0.00562284
0.00563335
0.00565566
0.00569228
0.00576943
0.00613499
0.0124295
0.00560914
0.00560914
0.00560914
0.00560916
0.00560921
0.00560934
0.00560981
0.0056113
0.0056158
0.00562651
0.00564843
0.00568372
0.00576011
0.00614292
0.0127146
0.00560166
0.00560166
0.00560166
0.00560168
0.00560173
0.00560188
0.00560241
0.00560405
0.00560877
0.00561963
0.00564107
0.00567504
0.00575083
0.00615204
0.0129972
0.0055942
0.0055942
0.00559421
0.00559423
0.00559429
0.00559446
0.00559505
0.00559682
0.00560174
0.0056127
0.00563359
0.00566624
0.00574149
0.00616148
0.0132772
0.00558677
0.00558677
0.00558677
0.0055868
0.00558686
0.00558706
0.00558771
0.00558962
0.00559473
0.00560571
0.005626
0.00565733
0.0057322
0.0061722
0.0135542
0.00557936
0.00557936
0.00557936
0.00557939
0.00557946
0.00557969
0.0055804
0.00558244
0.00558771
0.00559868
0.00561831
0.00564832
0.00572281
0.00618309
0.013828
0.00557197
0.00557197
0.00557198
0.00557201
0.00557209
0.00557234
0.00557312
0.00557528
0.0055807
0.0055916
0.00561051
0.00563921
0.00571346
0.00619536
0.0140983
0.00556461
0.00556461
0.00556462
0.00556465
0.00556474
0.00556502
0.00556586
0.00556815
0.00557368
0.00558446
0.00560262
0.00563
0.00570399
0.00620761
0.0143649
0.00555726
0.00555727
0.00555728
0.00555731
0.00555741
0.00555772
0.00555863
0.00556103
0.00556665
0.00557728
0.00559464
0.00562071
0.00569453
0.00622136
0.0146274
0.00554995
0.00554995
0.00554996
0.00555
0.00555011
0.00555045
0.00555143
0.00555393
0.00555962
0.00557004
0.00558657
0.00561132
0.00568491
0.00623488
0.0148859
0.00554265
0.00554265
0.00554266
0.00554271
0.00554283
0.0055432
0.00554425
0.00554685
0.00555258
0.00556275
0.00557842
0.00560185
0.00567531
0.00625002
0.0151397
0.00553538
0.00553538
0.00553539
0.00553544
0.00553558
0.00553598
0.00553709
0.00553979
0.00554552
0.00555541
0.00557019
0.00559229
0.0056655
0.00626468
0.0153891
0.00552812
0.00552813
0.00552814
0.0055282
0.00552835
0.00552878
0.00552996
0.00553273
0.00553846
0.00554801
0.00556187
0.00558264
0.0056557
0.00628113
0.0156335
0.00552089
0.0055209
0.00552091
0.00552097
0.00552114
0.00552161
0.00552284
0.00552569
0.00553138
0.00554057
0.00555349
0.0055729
0.00564564
0.00629683
0.0158731
0.00551369
0.00551369
0.00551371
0.00551377
0.00551396
0.00551446
0.00551575
0.00551865
0.00552428
0.00553307
0.00554502
0.00556308
0.00563561
0.0063145
0.0161074
0.0055065
0.00550651
0.00550652
0.0055066
0.0055068
0.00550733
0.00550868
0.00551163
0.00551716
0.00552553
0.00553649
0.00555316
0.00562527
0.0063311
0.0163366
0.00549934
0.00549934
0.00549936
0.00549944
0.00549966
0.00550023
0.00550163
0.00550461
0.00551003
0.00551794
0.00552789
0.00554316
0.00561496
0.00634991
0.0165601
0.00549219
0.0054922
0.00549222
0.00549231
0.00549254
0.00549315
0.0054946
0.00549759
0.00550288
0.0055103
0.00551921
0.00553305
0.00560431
0.00636731
0.0167783
0.00548507
0.00548508
0.00548511
0.0054852
0.00548545
0.00548609
0.00548758
0.00549058
0.00549571
0.00550261
0.00551047
0.00552287
0.0055937
0.00638716
0.0169906
0.00547797
0.00547798
0.00547801
0.00547811
0.00547838
0.00547905
0.00548058
0.00548358
0.00548852
0.00549487
0.00550166
0.00551258
0.0055827
0.00640525
0.0171975
0.0054709
0.0054709
0.00547094
0.00547105
0.00547133
0.00547204
0.0054736
0.00547657
0.00548131
0.00548709
0.00549278
0.00550221
0.00557177
0.00642609
0.0173982
0.00546384
0.00546385
0.00546388
0.005464
0.00546431
0.00546504
0.00546663
0.00546957
0.00547407
0.00547926
0.00548384
0.00549172
0.0055604
0.00644476
0.0175934
0.0054568
0.00545681
0.00545685
0.00545698
0.0054573
0.00545806
0.00545967
0.00546256
0.00546682
0.00547139
0.00547484
0.00548116
0.00554913
0.00646652
0.0177823
0.00544978
0.0054498
0.00544984
0.00544998
0.00545032
0.0054511
0.00545273
0.00545555
0.00545954
0.00546347
0.00546576
0.00547047
0.00553737
0.00648568
0.0179657
0.00544279
0.0054428
0.00544285
0.005443
0.00544336
0.00544417
0.00544579
0.00544854
0.00545224
0.00545551
0.00545663
0.00545971
0.00552576
0.0065083
0.0181426
0.00543582
0.00543583
0.00543588
0.00543604
0.00543641
0.00543725
0.00543887
0.00544153
0.00544491
0.0054475
0.00544743
0.00544882
0.00551361
0.00652787
0.0183141
0.00542886
0.00542888
0.00542893
0.0054291
0.00542949
0.00543034
0.00543196
0.00543452
0.00543756
0.00543944
0.00543817
0.00543786
0.00550164
0.0065513
0.018479
0.00542193
0.00542194
0.00542201
0.00542218
0.00542259
0.00542346
0.00542506
0.0054275
0.00543019
0.00543135
0.00542885
0.00542677
0.00548909
0.00657122
0.0186386
0.00541501
0.00541503
0.0054151
0.00541529
0.00541571
0.00541659
0.00541817
0.00542047
0.0054228
0.00542321
0.00541946
0.00541561
0.00547677
0.00659544
0.0187915
0.00540812
0.00540814
0.00540821
0.00540841
0.00540885
0.00540973
0.00541129
0.00541344
0.00541537
0.00541503
0.00541
0.00540432
0.00546384
0.00661564
0.0189393
0.00540125
0.00540127
0.00540135
0.00540155
0.005402
0.0054029
0.00540441
0.0054064
0.00540793
0.0054068
0.00540049
0.00539296
0.00545117
0.00664061
0.0190804
0.00539439
0.00539442
0.0053945
0.00539471
0.00539518
0.00539607
0.00539754
0.00539936
0.00540046
0.00539854
0.00539091
0.00538146
0.00543786
0.00666104
0.0192166
0.00538756
0.00538759
0.00538767
0.0053879
0.00538837
0.00538926
0.00539067
0.0053923
0.00539296
0.00539023
0.00538127
0.00536989
0.00542486
0.00668675
0.0193461
0.00538075
0.00538077
0.00538087
0.0053811
0.00538158
0.00538247
0.00538381
0.00538524
0.00538545
0.00538188
0.00537157
0.00535819
0.0054112
0.0067074
0.019471
0.00537395
0.00537398
0.00537408
0.00537432
0.00537481
0.00537569
0.00537696
0.00537817
0.0053779
0.00537349
0.0053618
0.00534643
0.00539787
0.00673383
0.019589
0.00536718
0.00536721
0.00536731
0.00536756
0.00536806
0.00536892
0.00537011
0.00537109
0.00537033
0.00536506
0.00535198
0.00533453
0.00538388
0.00675466
0.0197029
0.00536042
0.00536046
0.00536056
0.00536082
0.00536132
0.00536216
0.00536326
0.005364
0.00536274
0.00535658
0.00534209
0.00532256
0.00537024
0.0067818
0.0198099
0.00535369
0.00535372
0.00535383
0.0053541
0.0053546
0.00535541
0.00535642
0.0053569
0.00535513
0.00534807
0.00533215
0.00531047
0.00535596
0.00680284
0.0199131
0.00534697
0.00534701
0.00534712
0.00534739
0.00534789
0.00534868
0.00534957
0.00534978
0.00534748
0.00533952
0.00532214
0.00529829
0.00534203
0.00683067
0.0200095
0.00534027
0.00534031
0.00534043
0.00534071
0.0053412
0.00534195
0.00534273
0.00534266
0.00533982
0.00533093
0.00531208
0.00528602
0.00532749
0.00685194
0.0201025
0.00533359
0.00533363
0.00533376
0.00533404
0.00533453
0.00533524
0.00533589
0.00533553
0.00533213
0.0053223
0.00530195
0.00527364
0.00531329
0.00688044
0.0201885
0.00532693
0.00532697
0.0053271
0.00532738
0.00532787
0.00532853
0.00532905
0.00532839
0.00532441
0.00531363
0.00529177
0.0052612
0.00529855
0.00690199
0.0202717
0.00532029
0.00532033
0.00532047
0.00532075
0.00532122
0.00532184
0.00532221
0.00532123
0.00531667
0.00530492
0.00528152
0.00524862
0.00528408
0.00693113
0.0203479
0.00531366
0.00531371
0.00531385
0.00531413
0.00531459
0.00531515
0.00531537
0.00531407
0.00530891
0.00529617
0.00527124
0.00523602
0.0052692
0.00695307
0.0204218
0.00530706
0.00530711
0.00530725
0.00530753
0.00530797
0.00530847
0.00530853
0.00530689
0.00530112
0.00528739
0.00526087
0.00522322
0.00525448
0.0069828
0.0204886
0.00530047
0.00530052
0.00530066
0.00530094
0.00530137
0.0053018
0.00530168
0.0052997
0.00529331
0.00527857
0.00525048
0.00521049
0.00523953
0.00700527
0.0205537
0.0052939
0.00529395
0.00529409
0.00529437
0.00529478
0.00529513
0.00529484
0.00529249
0.00528547
0.00526971
0.00523999
0.00519748
0.00522457
0.00703554
0.0206115
0.00528735
0.0052874
0.00528754
0.00528782
0.0052882
0.00528847
0.005288
0.00528528
0.00527761
0.00526082
0.00522951
0.00518465
0.00520961
0.00705875
0.0206684
0.00528081
0.00528086
0.00528101
0.00528128
0.00528163
0.00528182
0.00528115
0.00527805
0.00526973
0.00525188
0.00521889
0.00517139
0.00519444
0.00708952
0.0207176
0.00527429
0.00527435
0.00527449
0.00527476
0.00527507
0.00527517
0.0052743
0.00527081
0.00526183
0.00524293
0.00520834
0.00515851
0.00517955
0.00711379
0.0207667
0.00526779
0.00526784
0.00526799
0.00526824
0.00526852
0.00526853
0.00526744
0.00526356
0.00525389
0.00523391
0.00519757
0.00514498
0.00516418
0.00714505
0.0208081
0.0052613
0.00526136
0.0052615
0.00526175
0.00526199
0.00526189
0.00526059
0.0052563
0.00524595
0.00522492
0.00518698
0.00513211
0.00514943
0.00717088
0.0208497
0.00525483
0.00525489
0.00525503
0.00525526
0.00525546
0.00525526
0.00525373
0.00524902
0.00523796
0.0052158
0.00517604
0.00511824
0.00513391
0.00720277
0.0208828
0.00524837
0.00524843
0.00524857
0.00524879
0.00524894
0.00524863
0.00524686
0.00524173
0.00522999
0.00520678
0.00516547
0.00510551
0.00511941
0.00723123
0.0209203
0.00524193
0.00524199
0.00524213
0.00524233
0.00524243
0.005242
0.00523999
0.00523442
0.00522195
0.00519755
0.00515429
0.00509121
0.0051038
0.00726361
0.0209403
0.0052355
0.00523556
0.00523569
0.00523587
0.00523593
0.00523537
0.00523312
0.00522712
0.00521396
0.00518856
0.00514385
0.00507877
0.0050897
0.00729942
0.0209775
0.00522908
0.00522914
0.00522927
0.00522943
0.00522943
0.00522875
0.00522623
0.00521976
0.00520583
0.00517915
0.00513232
0.0050639
0.00507389
0.00731808
0.0210004
0.00521006
0.00521012
0.00521022
0.00521031
0.00521012
0.00520903
0.00520576
0.00519804
0.0051822
0.00515287
0.00510236
0.00502888
0.00503506
0.00757566
0.0261035
0.00517873
0.00517878
0.00517883
0.00517877
0.0051782
0.00517633
0.00517155
0.00516127
0.00514123
0.00510511
0.00504345
0.00495192
0.00495868
0.00842721
0.0433271
0.00514765
0.00514767
0.00514761
0.0051473
0.0051462
0.00514334
0.00513693
0.00512412
0.00510052
0.00505959
0.00499191
0.00489443
0.00495475
0.00972401
0.0498388
0.00511683
0.0051168
0.00511663
0.00511602
0.00511436
0.00511045
0.00510231
0.0050867
0.0050588
0.00501095
0.00493198
0.0048208
0.00498742
0.0123053
0.0621292
0.00508631
0.00508621
0.00508584
0.00508484
0.00508245
0.00507731
0.00506722
0.00504877
0.0050169
0.00496399
0.00488038
0.00477905
0.00517929
0.0156447
0.0696851
0.00505606
0.00505587
0.0050553
0.00505388
0.00505074
0.00504436
0.00503233
0.00501098
0.00497483
0.00491569
0.00482354
0.00472359
0.00549605
0.0208112
0.0761183
0.00502607
0.00502578
0.00502493
0.00502299
0.00501894
0.0050111
0.00499688
0.00497246
0.00493222
0.00486829
0.00477482
0.00472534
0.00612797
0.0268064
0.0792001
0.00499633
0.00499592
0.00499476
0.00499226
0.0049873
0.00497806
0.0049618
0.00493446
0.00489021
0.00482158
0.00472901
0.00474652
0.00733735
0.033314
0.0807907
0.00496681
0.00496625
0.00496474
0.0049616
0.00495557
0.0049447
0.00492608
0.00489558
0.00484761
0.00477669
0.00469553
0.00485795
0.00903732
0.0401701
0.0812721
0.00493748
0.00493676
0.00493486
0.00493103
0.00492395
0.00491156
0.00489086
0.00485769
0.00480673
0.00473466
0.00467095
0.00504442
0.0117163
0.0466591
0.0812644
0.00490834
0.00490744
0.00490511
0.00490054
0.00489228
0.00487816
0.00485507
0.0048189
0.00476519
0.00469586
0.00467404
0.00537903
0.0150657
0.0523311
0.081268
0.00487935
0.00487825
0.00487545
0.00487008
0.00486065
0.00484494
0.00481986
0.00478161
0.00472728
0.00466628
0.00470612
0.00601534
0.0194221
0.0569391
0.0813203
0.00485051
0.00484921
0.00484592
0.00483974
0.00482908
0.00481163
0.00478432
0.00474384
0.0046895
0.00464033
0.0047707
0.00696395
0.024118
0.0605162
0.0814279
0.0048218
0.00482025
0.00481642
0.00480936
0.00479745
0.00477843
0.0047495
0.00470814
0.00465676
0.00463136
0.00490556
0.00838931
0.0293374
0.0633194
0.0816204
0.00479319
0.00479142
0.00478706
0.00477915
0.00476604
0.00474544
0.00471472
0.00467253
0.00462696
0.00464043
0.00515603
0.0104168
0.0344874
0.0653431
0.0817357
0.00476469
0.00476266
0.00475771
0.00474886
0.00473447
0.00471243
0.00468079
0.00464039
0.00460588
0.00466621
0.00554332
0.0130496
0.0393563
0.0670267
0.0818048
0.00473625
0.00473397
0.00472847
0.00471879
0.00470332
0.00468015
0.0046479
0.00460931
0.0045879
0.00472981
0.00615832
0.0163128
0.0436955
0.0684798
0.0818477
0.00470792
0.00470537
0.00469927
0.00468866
0.00467203
0.00464774
0.00461557
0.0045824
0.00458895
0.00484686
0.00705671
0.0200099
0.0475156
0.0697795
0.0818927
0.00467961
0.0046768
0.00467015
0.00465877
0.0046413
0.0046166
0.00458597
0.00456136
0.00460112
0.00503328
0.00833491
0.0240539
0.0507706
0.070943
0.0819507
0.00465143
0.00464837
0.00464115
0.00462894
0.0046106
0.00458565
0.00455741
0.00454388
0.00463003
0.00532911
0.0100677
0.0282044
0.0535538
0.0719626
0.0820124
0.00462324
0.00461992
0.00461218
0.00459936
0.00458065
0.00455646
0.00453258
0.00453667
0.00469099
0.00576331
0.0122893
0.0322859
0.0559922
0.0728648
0.0820804
0.0045952
0.00459165
0.00458346
0.00457006
0.00455099
0.00452786
0.00451063
0.00454067
0.0047961
0.00640816
0.0149788
0.0361112
0.0581533
0.0736563
0.0821417
0.00456716
0.00456338
0.00455475
0.00454097
0.00452232
0.0045023
0.00449536
0.00455701
0.00495669
0.00730641
0.0180424
0.0396709
0.060115
0.0743766
0.0822064
0.00453926
0.00453533
0.00452643
0.00451259
0.00449471
0.00447786
0.00448228
0.00458954
0.0051968
0.00853853
0.0213942
0.042876
0.0618757
0.0750308
0.0822712
0.00451145
0.00450736
0.00449823
0.00448442
0.00446789
0.00445709
0.00448307
0.00465324
0.00554681
0.0101443
0.0248778
0.0457731
0.0634664
0.0756264
0.0823351
0.0044838
0.00447963
0.0044705
0.00445733
0.00444356
0.00444118
0.00449033
0.00475116
0.00604779
0.0121517
0.0283582
0.0484121
0.0649062
0.0761723
0.0823984
0.00445632
0.00445213
0.00444317
0.00443098
0.00442053
0.00442809
0.00451036
0.00489837
0.00674651
0.0145228
0.0317334
0.0508265
0.066212
0.0766723
0.0824595
0.00442908
0.00442496
0.00441644
0.00440588
0.00440049
0.00442369
0.00454956
0.00511001
0.00769211
0.0172094
0.0349441
0.0530485
0.0674053
0.0771334
0.0825192
0.00440211
0.0043982
0.00439042
0.00438223
0.00438396
0.00442711
0.00461503
0.00541326
0.00893483
0.0201219
0.0379486
0.0550904
0.0684989
0.0775592
0.0825766
0.00437556
0.00437193
0.00436533
0.00436071
0.00437174
0.0044397
0.00471231
0.00583661
0.0105053
0.0231606
0.0407587
0.0569699
0.0695047
0.0779535
0.0826315
0.00434936
0.00434636
0.00434155
0.00434122
0.00436371
0.0044648
0.0048529
0.0064201
0.0124074
0.0262246
0.0433828
0.0586994
0.0704317
0.07832
0.0826843
0.00432405
0.0043216
0.0043188
0.00432475
0.00436522
0.00451113
0.00505304
0.00720391
0.0146114
0.0292464
0.0458364
0.0602961
0.0712859
0.0786591
0.0827333
0.0042989
0.0042977
0.00429863
0.00431318
0.00437277
0.00458068
0.00533133
0.00822885
0.0170712
0.0321698
0.0481346
0.0617771
0.0720792
0.0789758
0.0827797
0.00427565
0.00427566
0.00428004
0.00430363
0.0043904
0.00468143
0.0057159
0.00953374
0.0197175
0.0349713
0.0502766
0.0631462
0.072814
0.0792705
0.0828229
0.00425228
0.00425409
0.0042644
0.00430403
0.00442489
0.00482367
0.00623644
0.0111275
0.0224634
0.0376405
0.0522757
0.0644182
0.0734952
0.0795437
0.0828617
0.00423179
0.00423621
0.00425368
0.00430918
0.00447846
0.00502277
0.00693129
0.0130064
0.025251
0.0401812
0.0541445
0.0656021
0.0741292
0.0797983
0.0828967
0.00421191
0.00421903
0.00424487
0.00432319
0.00455573
0.00529484
0.00783367
0.0151379
0.028013
0.04259
0.0558906
0.0667033
0.0747185
0.0800341
0.0829268
0.00419515
0.00420654
0.0042452
0.00435072
0.00466547
0.00566541
0.00898144
0.0174783
0.0307214
0.0448726
0.0575259
0.0677311
0.0752682
0.0802536
0.0829529
0.00418083
0.00419717
0.00425047
0.00439523
0.00481783
0.00616132
0.0103878
0.0199584
0.0333491
0.0470276
0.0590551
0.0686887
0.0757792
0.080456
0.0829734
0.00417032
0.00419323
0.00426314
0.0044598
0.00502687
0.00681635
0.0120584
0.0225281
0.0358909
0.0490654
0.0604895
0.0695843
0.0762562
0.0806434
0.0829892
0.00416435
0.00419586
0.00428998
0.00455155
0.00530957
0.00766232
0.0139738
0.025125
0.0383317
0.0509857
0.0618315
0.0704193
0.0766994
0.0808154
0.0829997
0.00416467
0.00420382
0.00433122
0.00467847
0.00568953
0.0087325
0.0161005
0.0277166
0.040674
0.0528021
0.0630933
0.0712015
0.0771128
0.0809733
0.0830045
0.00417104
0.00422336
0.00439213
0.00485257
0.00619359
0.0100426
0.0183883
0.030272
0.0429105
0.0545131
0.0642746
0.0719321
0.0774968
0.0811168
0.0830031
0.00418338
0.00425506
0.00447735
0.00508717
0.00685227
0.0116021
0.0207896
0.0327751
0.0450438
0.0561276
0.0653836
0.0726151
0.0778539
0.0812476
0.0829974
0.00420987
0.00430374
0.00459608
0.00540288
0.00769872
0.0133974
0.023252
0.0352081
0.0470734
0.0576496
0.066424
0.0732529
0.0781845
0.0813649
0.0829849
0.00425001
0.0043725
0.00475668
0.00582168
0.00875982
0.0154013
0.0257422
0.037566
0.049006
0.059087
0.0674018
0.0738495
0.078491
0.0814692
0.0829658
0.00430929
0.00446936
0.00497485
0.00637404
0.0100561
0.0175739
0.0282267
0.0398379
0.0508402
0.060441
0.0683183
0.0744058
0.0787733
0.0815606
0.0829402
0.00439152
0.00460076
0.00526571
0.00708855
0.0115915
0.0198705
0.0306862
0.0420255
0.0525843
0.0617198
0.0691796
0.0749254
0.0790335
0.08164
0.0829084
0.00450549
0.00477985
0.00565465
0.00800018
0.013359
0.0222507
0.0331013
0.0441223
0.0542364
0.0629232
0.0699865
0.075409
0.079272
0.0817073
0.08287
0.00465943
0.0050197
0.00616654
0.00913173
0.0153292
0.0246758
0.0354588
0.0461312
0.0558051
0.0640592
0.070743
0.0758587
0.0794893
0.0817622
0.0828244
0.00486812
0.005342
0.0068363
0.010504
0.0174707
0.0271199
0.0377527
0.0480532
0.0572918
0.0651292
0.0714526
0.0762769
0.0796871
0.0818058
0.0827721
0.00514801
0.00577069
0.00769547
0.0121162
0.0197405
0.0295546
0.0399717
0.0498853
0.058697
0.0661346
0.0721151
0.0766631
0.0798645
0.0818368
0.082712
0.00552505
0.00633976
0.00877863
0.0139586
0.0221043
0.0319641
0.0421151
0.0516332
0.0600279
0.0670813
0.0727344
0.07702
0.0800233
0.0818567
0.082645
0.00602984
0.0070857
0.0101081
0.0160021
0.0245237
0.0343294
0.0441763
0.0532955
0.0612848
0.0679699
0.0733109
0.077347
0.0801616
0.0818623
0.0825689
0.00670612
0.00805212
0.0116971
0.0182148
0.0269724
0.0366429
0.046158
0.0548781
0.0624729
0.0688039
0.0738472
0.0776458
0.0802816
0.0818573
0.082485
0.00760235
0.00927726
0.0135402
0.0205577
0.029423
0.0388921
0.0480547
0.0563782
0.0635914
0.0695843
0.0743445
0.0779181
0.0803847
0.0818421
0.0823941
0.008777
0.0107961
0.0156199
0.0229955
0.0318565
0.0410728
0.0498699
0.0578026
0.0646462
0.070314
0.074804
0.0781633
0.0804684
0.081812
0.0822934
0.0102813
0.0126245
0.0179046
0.0254937
0.0342561
0.0431793
0.0516024
0.0591504
0.0656372
0.0709947
0.0752271
0.0783823
0.080534
0.0817698
0.0821837
0.0121554
0.0147639
0.0203616
0.0280256
0.0366092
0.0452073
0.0532512
0.0604225
0.0665656
0.0716264
0.0756135
0.0785748
0.0805808
0.0817145
0.0820643
0.0144067
0.0171912
0.0229512
0.0305638
0.0389027
0.0471526
0.0548169
0.0616214
0.0674338
0.0722108
0.0759647
0.0787421
0.0806101
0.0816466
0.0819355
0.0170103
0.0198694
0.0256396
0.0330905
0.0411308
0.0490153
0.0563016
0.0627492
0.0682434
0.0727489
0.07628
0.0788816
0.0806171
0.0815631
0.0817951
0.0199059
0.0227435
0.0283894
0.0355854
0.0432834
0.0507903
0.0577028
0.0638043
0.0689933
0.0732401
0.0765598
0.0789957
0.0806079
0.0814662
0.0816438
0.0230122
0.0257516
0.0311679
0.038036
0.0453583
0.0524802
0.0590245
0.064791
0.0696871
0.0736875
0.0768069
0.0790861
0.0805817
0.0813567
0.0814825
0.02624
0.028828
0.0339401
0.0404266
0.0473477
0.0540795
0.060262
0.0657053
0.0703224
0.0740883
0.0770173
0.0791475
0.0805315
0.0812299
0.0813081
0.0295033
0.0319094
0.0366729
0.0427438
0.0492477
0.0555885
0.0614177
0.0665503
0.0709011
0.0744449
0.0771943
0.0791841
0.080463
0.0810885
0.0811216
0.0327292
0.0349396
0.0393341
0.0449727
0.0510519
0.0570046
0.0624896
0.0673233
0.0714196
0.0747518
0.0773297
0.0791849
0.0803684
0.0809276
0.0809203
0.0358558
0.0378701
0.0418951
0.0471007
0.0527574
0.0583281
0.0634785
0.0680245
0.0718789
0.0750122
0.0774313
0.0791653
0.0802546
0.08075
0.0807051
0.038841
0.0406667
0.044334
0.0491165
0.0543578
0.0595548
0.0643822
0.0686548
0.0722808
0.0752272
0.0774972
0.0791157
0.0801188
0.080555
0.0804755
0.0416521
0.0433004
0.046629
0.0510061
0.0558465
0.060683
0.0652001
0.069211
0.0726194
0.0753879
0.0775152
0.0790276
0.0799541
0.0803381
0.0802284
0.0442675
0.0457529
0.0487675
0.0527637
0.0572223
0.0617119
0.06593
0.0696909
0.0728941
0.0754976
0.077496
0.0789074
0.0797619
0.0800983
0.0799623
0.0466786
0.048016
0.0507427
0.0543844
0.0584824
0.0626427
0.0665774
0.0701017
0.073112
0.075561
0.0774399
0.0787571
0.0795443
0.0798368
0.0796773
0.0488798
0.0500831
0.0525467
0.0558604
0.0596207
0.0634694
0.0671338
0.0704318
0.0732571
0.0755577
0.0773266
0.0785633
0.0792929
0.0795483
0.0793702
0.050869
0.0519524
0.0541793
0.0571941
0.0606416
0.0641976
0.0676074
0.0706937
0.0733487
0.0755165
0.0771762
0.0783344
0.0790103
0.079233
0.0790398
0.0526578
0.0536335
0.0556463
0.0583874
0.0615448
0.0648263
0.0679943
0.0708778
0.0733681
0.0754141
0.076978
0.0780661
0.0786946
0.0788893
0.0786848
0.0542436
0.0551233
0.0569438
0.059437
0.0623292
0.0653571
0.0683002
0.0709954
0.0733351
0.0752566
0.0767317
0.0777566
0.0783435
0.0785151
0.0783033
0.0556452
0.0564394
0.0580876
0.060356
0.0630036
0.0657949
0.0685265
0.0710427
0.073243
0.0750509
0.0764419
0.0774081
0.0779578
0.0781102
0.0778944
0.0568645
0.0575821
0.0590756
0.0611406
0.0635652
0.0661378
0.0686719
0.0710207
0.0730829
0.0747885
0.0761038
0.0770177
0.0775354
0.077673
0.0774568
0.0579194
0.058569
0.059924
0.0618057
0.0640278
0.0664001
0.0687518
0.0709467
0.0728765
0.0744814
0.0757239
0.0765889
0.077078
0.0772039
0.0769901
0.0588142
0.0594024
0.0606324
0.0623475
0.0643826
0.0665673
0.0687452
0.0707953
0.0726092
0.0741235
0.0752997
0.0761207
0.076585
0.0767025
0.0764937
0.0595657
0.0600994
0.0612184
0.0627846
0.0646519
0.0666681
0.0686908
0.0705965
0.0722956
0.0737221
0.0748355
0.0756155
0.0760578
0.0761694
0.0759678
0.0601766
0.0606619
0.0616806
0.0631105
0.0648221
0.0666789
0.068561
0.0703399
0.0719335
0.0732781
0.0743326
0.0750747
0.0754976
0.0756053
0.0754128
0.0606663
0.0611084
0.0620379
0.0633467
0.06492
0.0666357
0.0683745
0.070033
0.0715272
0.0727946
0.0737936
0.0745005
0.0749059
0.0750115
0.0748295
0.061038
0.0614405
0.0622881
0.0634846
0.0649278
0.0665192
0.0681323
0.0696789
0.0710796
0.0722742
0.073221
0.0738949
0.0742845
0.0743892
0.0742188
0.0613053
0.0616728
0.062448
0.0635453
0.0648788
0.0663412
0.0678381
0.0692806
0.0705938
0.0717198
0.0726173
0.0732601
0.0736354
0.0737402
0.0735822
0.0614757
0.0618111
0.0625193
0.0635267
0.0647563
0.0661071
0.0674964
0.0688418
0.070073
0.0711343
0.0719851
0.0725986
0.0729605
0.0730662
0.0729209
0.0615513
0.0618579
0.0625102
0.063445
0.0645719
0.0658208
0.0671108
0.0683658
0.0695201
0.0705204
0.071327
0.0719128
0.0722622
0.0723692
0.0722368
0.0615495
0.061837
0.062442
0.0632919
0.0643308
0.0654863
0.0666846
0.0678557
0.068938
0.0698808
0.0706455
0.0712049
0.0715426
0.071651
0.0715315
0.0614971
0.0617565
0.0623013
0.0630817
0.0640393
0.0651086
0.0662219
0.0673148
0.0683296
0.0692182
0.0699431
0.0704774
0.0708039
0.0709139
0.070807
0.0613617
0.0615961
0.0620975
0.0628165
0.0637007
0.0646909
0.0657259
0.066746
0.0676976
0.068535
0.0692222
0.0697325
0.0700482
0.0701596
0.070065
0.0611585
0.061376
0.0618384
0.0625018
0.063319
0.064237
0.0651995
0.0661521
0.0670445
0.0678338
0.0684852
0.0689725
0.0692777
0.0693905
0.0693076
0.0609031
0.0611037
0.0615301
0.0621426
0.0628986
0.0637501
0.0646459
0.0655356
0.0663728
0.0671167
0.0677341
0.0681994
0.0684945
0.0686083
0.0685366
0.0605992
0.0607841
0.0611775
0.0617434
0.0624434
0.0632338
0.0640678
0.0648992
0.0656847
0.0663859
0.066971
0.0674152
0.0677004
0.067815
0.0677539
0.0602511
0.0604218
0.0607851
0.0613084
0.061957
0.0626911
0.0634681
0.0642453
0.0649823
0.0656433
0.0661978
0.0666218
0.0668973
0.0670124
0.0669612
0.0598635
0.0600212
0.060357
0.0608413
0.0614427
0.062125
0.0628492
0.063576
0.0642678
0.0648909
0.0654164
0.065821
0.0660871
0.0662024
0.0661604
0.0594405
0.0595863
0.0598969
0.0603456
0.0609037
0.0615383
0.0622136
0.0628935
0.063543
0.0641305
0.0646284
0.0650145
0.0652712
0.0653864
0.0653529
0.058986
0.0591208
0.0594085
0.0598245
0.0603428
0.0609334
0.0615636
0.0621998
0.0628097
0.0633637
0.0638355
0.0642038
0.0644514
0.0645662
0.0645405
0.0585034
0.0586284
0.058895
0.059281
0.0597627
0.0603127
0.060901
0.0614967
0.0620696
0.062592
0.0630391
0.0633903
0.0636291
0.0637431
0.0637245
0.0579962
0.058112
0.0583594
0.0587179
0.0591659
0.0596785
0.060228
0.0607859
0.0613242
0.0618169
0.0622406
0.0625755
0.0628055
0.0629186
0.0629065
0.0574673
0.0575748
0.0578045
0.0581377
0.0585547
0.0590326
0.0595462
0.0600689
0.060575
0.0610397
0.0614412
0.0617604
0.061982
0.0620938
0.0620876
0.0569194
0.0570193
0.0572328
0.0575427
0.0579312
0.0583771
0.0588573
0.0593474
0.0598231
0.0602616
0.0606421
0.0609464
0.0611597
0.06127
0.0612691
0.0563552
0.056448
0.0566466
0.0569351
0.0572973
0.0577137
0.0581629
0.0586225
0.05907
0.0594838
0.0598443
0.0601344
0.0603395
0.0604483
0.0604521
0.0557769
0.0558633
0.0560481
0.056317
0.0566548
0.0570438
0.0574644
0.0578956
0.0583166
0.0587072
0.0590489
0.0593254
0.0595227
0.0596296
0.0596377
0.0551867
0.0552672
0.0554393
0.05569
0.0560054
0.0563691
0.056763
0.0571678
0.057564
0.0579328
0.0582568
0.0585202
0.0587099
0.0588149
0.0588268
0.0545865
0.0546615
0.054822
0.055056
0.0553506
0.0556908
0.05606
0.0564402
0.0568132
0.0571616
0.0574687
0.0577197
0.057902
0.0580049
0.0580202
0.053978
0.054048
0.0541978
0.0544163
0.0546917
0.0550102
0.0553564
0.0557136
0.056065
0.0563941
0.0566853
0.0569246
0.0570997
0.0572005
0.0572187
0.053363
0.0534284
0.0535683
0.0537725
0.0540301
0.0543285
0.0546533
0.0549891
0.0553203
0.0556312
0.0559074
0.0561355
0.0563037
0.0564022
0.0564231
0.0527429
0.052804
0.0529347
0.0531257
0.0533669
0.0536466
0.0539515
0.0542674
0.0545796
0.0548736
0.0551356
0.055353
0.0555146
0.0556108
0.055634