/*--------------------------------*- C++ -*----------------------------------*\
  =========                 |
  \\      /  F ield         | OpenFOAM: The Open Source CFD Toolbox
   \\    /   O peration     | Website:  https://openfoam.org
    \\  /    A nd           | Version:  7
     \\/     M anipulation  |
\*---------------------------------------------------------------------------*/
FoamFile
{
    version     2.0;
    format      ascii;
    class       volScalarField;
    location    "500";
    object      nut;
}
// * * * * * * * * * * * * * * * * * * * * * * * * * * * * * * * * * * * * * //

dimensions      [0 2 -1 0 0 0 0];

internalField   nonuniform List<scalar> 
32100
(
0.000263484
0.000263484
0.000263484
0.000263484
0.000263484
0.000263484
0.000263484
0.000263484
0.000263484
0.000263484
0.000263487
0.000263509
0.000261889
0.000217326
1.42099e-05
0.000263455
0.000263455
0.000263455
0.000263455
0.000263455
0.000263455
0.000263455
0.000263455
0.000263455
0.000263455
0.000263454
0.000263244
0.000258687
0.000171501
1.452e-05
0.000263425
0.000263425
0.000263425
0.000263425
0.000263425
0.000263425
0.000263425
0.000263426
0.000263426
0.000263427
0.000263421
0.000263
0.000251909
0.000145409
1.48277e-05
0.000263396
0.000263396
0.000263396
0.000263396
0.000263396
0.000263396
0.000263396
0.000263396
0.000263397
0.000263401
0.000263381
0.000262446
0.000244334
0.000128195
1.51335e-05
0.000263367
0.000263367
0.000263367
0.000263367
0.000263367
0.000263367
0.000263367
0.000263367
0.000263369
0.000263375
0.00026331
0.000261435
0.000236214
0.000115211
1.54361e-05
0.000263338
0.000263338
0.000263338
0.000263338
0.000263338
0.000263338
0.000263338
0.000263339
0.000263341
0.000263349
0.000263191
0.000259995
0.000228041
0.000105478
1.57371e-05
0.000263309
0.000263309
0.000263309
0.000263309
0.000263309
0.000263309
0.000263309
0.00026331
0.000263314
0.000263318
0.000262998
0.000258222
0.000219861
9.69963e-05
1.60353e-05
0.00026328
0.00026328
0.00026328
0.00026328
0.00026328
0.00026328
0.00026328
0.000263282
0.000263287
0.000263279
0.000262734
0.000256128
0.000211846
8.9638e-05
1.63308e-05
0.000263251
0.000263251
0.000263251
0.000263251
0.000263251
0.000263251
0.000263252
0.000263254
0.000263261
0.000263228
0.000262356
0.000253714
0.000203971
8.32542e-05
1.66236e-05
0.000263222
0.000263222
0.000263222
0.000263222
0.000263222
0.000263223
0.000263223
0.000263226
0.000263233
0.000263159
0.000261871
0.000251035
0.000196408
7.76901e-05
1.69137e-05
0.000263194
0.000263194
0.000263194
0.000263194
0.000263194
0.000263194
0.000263195
0.000263199
0.000263203
0.000263069
0.0002613
0.00024814
0.000189193
7.28125e-05
1.72009e-05
0.000263165
0.000263165
0.000263165
0.000263165
0.000263165
0.000263166
0.000263167
0.000263172
0.000263171
0.000262955
0.000260624
0.000245063
0.000182272
6.85066e-05
1.74852e-05
0.000263137
0.000263137
0.000263137
0.000263137
0.000263137
0.000263138
0.000263139
0.000263144
0.000263134
0.000262812
0.000259816
0.00024184
0.000175691
6.46823e-05
1.77665e-05
0.000263108
0.000263108
0.000263108
0.000263108
0.000263109
0.000263109
0.000263112
0.000263117
0.000263092
0.000262636
0.000258899
0.000238502
0.000169447
6.12646e-05
1.80445e-05
0.00026308
0.00026308
0.00026308
0.00026308
0.000263081
0.000263082
0.000263084
0.000263089
0.000263044
0.000262424
0.000257875
0.000235081
0.000163533
5.81941e-05
1.83194e-05
0.000263052
0.000263052
0.000263052
0.000263052
0.000263053
0.000263054
0.000263057
0.00026306
0.000262987
0.000262173
0.000256748
0.0002316
0.000157934
5.54206e-05
1.85907e-05
0.000263024
0.000263024
0.000263024
0.000263025
0.000263025
0.000263026
0.00026303
0.000263029
0.000262921
0.000261882
0.000255524
0.000228084
0.000152638
5.29047e-05
1.88586e-05
0.000262996
0.000262997
0.000262997
0.000262997
0.000262997
0.000262999
0.000263003
0.000262997
0.000262844
0.000261548
0.000254208
0.00022455
0.000147625
5.06123e-05
1.91227e-05
0.000262969
0.000262969
0.000262969
0.000262969
0.00026297
0.000262972
0.000262976
0.000262963
0.000262755
0.000261171
0.000252809
0.000221016
0.000142881
4.85161e-05
1.93831e-05
0.000262941
0.000262941
0.000262942
0.000262942
0.000262943
0.000262945
0.000262948
0.000262927
0.000262651
0.000260747
0.000251332
0.000217494
0.000138386
4.65926e-05
1.96395e-05
0.000262914
0.000262914
0.000262914
0.000262915
0.000262916
0.000262918
0.00026292
0.000262887
0.000262534
0.000260282
0.000249785
0.000213997
0.000134128
4.48225e-05
1.9892e-05
0.000262887
0.000262887
0.000262887
0.000262887
0.000262889
0.000262891
0.000262892
0.000262843
0.000262399
0.000259766
0.000248173
0.000210532
0.000130086
4.31892e-05
2.01402e-05
0.00026286
0.00026286
0.00026286
0.00026286
0.000262862
0.000262864
0.000262863
0.000262796
0.000262249
0.000259216
0.000246505
0.000207109
0.000126251
4.16781e-05
2.03842e-05
0.000262833
0.000262833
0.000262833
0.000262834
0.000262835
0.000262838
0.000262834
0.000262743
0.00026208
0.000258603
0.000244785
0.000203732
0.000122604
4.02779e-05
2.06238e-05
0.000262806
0.000262806
0.000262806
0.000262807
0.000262808
0.000262811
0.000262803
0.000262685
0.000261891
0.000257959
0.00024302
0.000200408
0.000119138
3.89766e-05
2.0859e-05
0.000262779
0.000262779
0.000262779
0.00026278
0.000262782
0.000262784
0.000262771
0.000262621
0.000261684
0.000257282
0.000241216
0.000197138
0.000115836
3.77671e-05
2.10895e-05
0.000262753
0.000262753
0.000262753
0.000262754
0.000262756
0.000262757
0.000262738
0.000262551
0.000261456
0.000256555
0.000239378
0.000193927
0.000112691
3.66385e-05
2.13155e-05
0.000262726
0.000262726
0.000262726
0.000262727
0.000262729
0.00026273
0.000262703
0.000262473
0.000261208
0.000255789
0.000237512
0.000190776
0.000109689
3.55873e-05
2.15367e-05
0.0002627
0.0002627
0.0002627
0.000262701
0.000262703
0.000262702
0.000262666
0.000262388
0.000260938
0.000254985
0.000235621
0.000187687
0.000106826
3.4603e-05
2.17532e-05
0.000262673
0.000262673
0.000262674
0.000262675
0.000262677
0.000262675
0.000262626
0.000262295
0.000260647
0.000254145
0.000233711
0.000184659
0.000104088
3.36851e-05
2.19647e-05
0.000262647
0.000262647
0.000262648
0.000262649
0.000262651
0.000262646
0.000262585
0.000262193
0.000260335
0.00025327
0.000231786
0.000181697
0.000101472
3.28225e-05
2.21714e-05
0.000262621
0.000262621
0.000262622
0.000262623
0.000262624
0.000262618
0.000262541
0.000262082
0.000260001
0.000252362
0.000229848
0.000178796
9.89658e-05
3.2018e-05
2.23731e-05
0.000262595
0.000262595
0.000262596
0.000262597
0.000262598
0.000262588
0.000262493
0.000261962
0.000259645
0.000251423
0.000227902
0.000175959
9.65687e-05
3.12594e-05
2.25699e-05
0.000262569
0.000262569
0.00026257
0.000262571
0.000262572
0.000262558
0.000262443
0.000261832
0.000259268
0.000250455
0.00022595
0.000173184
9.42684e-05
3.05523e-05
2.27615e-05
0.000262543
0.000262544
0.000262544
0.000262546
0.000262546
0.000262527
0.000262389
0.000261692
0.000258869
0.000249459
0.000223997
0.000170473
9.20652e-05
2.98831e-05
2.29482e-05
0.000262518
0.000262518
0.000262519
0.00026252
0.000262519
0.000262495
0.000262331
0.000261541
0.000258449
0.000248437
0.000222043
0.000167822
8.99481e-05
2.92603e-05
2.31297e-05
0.000262492
0.000262492
0.000262493
0.000262494
0.000262492
0.000262461
0.00026227
0.00026138
0.000258007
0.000247391
0.000220092
0.000165232
8.79179e-05
2.86685e-05
2.33063e-05
0.000262467
0.000262467
0.000262468
0.000262469
0.000262466
0.000262427
0.000262204
0.000261207
0.000257545
0.000246323
0.000218145
0.000162701
8.59646e-05
2.81194e-05
2.34777e-05
0.000262441
0.000262441
0.000262442
0.000262443
0.000262438
0.000262391
0.000262133
0.000261024
0.000257063
0.000245234
0.000216206
0.00016023
8.40892e-05
2.7595e-05
2.36441e-05
0.000262416
0.000262416
0.000262417
0.000262418
0.000262411
0.000262354
0.000262058
0.000260829
0.000256561
0.000244126
0.000214274
0.000157816
8.22832e-05
2.71105e-05
2.38053e-05
0.000262391
0.000262391
0.000262392
0.000262392
0.000262383
0.000262315
0.000261978
0.000260622
0.00025604
0.000243
0.000212353
0.000155459
8.05469e-05
2.66451e-05
2.39616e-05
0.000262365
0.000262366
0.000262367
0.000262366
0.000262355
0.000262274
0.000261892
0.000260403
0.000255499
0.000241859
0.000210444
0.000153156
7.88737e-05
2.62177e-05
2.41127e-05
0.00026234
0.000262341
0.000262341
0.000262341
0.000262326
0.000262232
0.000261801
0.000260173
0.000254941
0.000240702
0.000208547
0.000150908
7.7263e-05
2.58041e-05
2.42591e-05
0.000262315
0.000262316
0.000262316
0.000262315
0.000262296
0.000262187
0.000261705
0.000259931
0.000254364
0.000239533
0.000206665
0.000148713
7.57101e-05
2.54275e-05
2.44002e-05
0.00026229
0.000262291
0.000262291
0.000262289
0.000262266
0.00026214
0.000261603
0.000259677
0.000253771
0.000238352
0.000204797
0.00014657
7.4213e-05
2.50596e-05
2.45368e-05
0.000262266
0.000262266
0.000262266
0.000262263
0.000262235
0.000262091
0.000261494
0.000259411
0.00025316
0.00023716
0.000202946
0.000144477
7.27695e-05
2.47282e-05
2.46681e-05
0.000262241
0.000262241
0.000262241
0.000262237
0.000262204
0.000262039
0.00026138
0.000259133
0.000252534
0.000235959
0.000201111
0.000142434
7.13755e-05
2.44007e-05
2.4795e-05
0.000262216
0.000262216
0.000262217
0.000262211
0.000262171
0.000261985
0.000261259
0.000258843
0.00025189
0.00023475
0.000199294
0.000140439
7.00317e-05
2.41099e-05
2.49168e-05
0.000262192
0.000262192
0.000262192
0.000262184
0.000262138
0.000261927
0.000261132
0.000258542
0.000251236
0.000233534
0.000197495
0.000138491
6.87315e-05
2.38183e-05
2.50343e-05
0.000262167
0.000262167
0.000262167
0.000262157
0.000262103
0.000261867
0.000260999
0.000258229
0.000250561
0.000232312
0.000195715
0.000136589
6.74789e-05
2.35641e-05
2.51467e-05
0.000262142
0.000262143
0.000262142
0.00026213
0.000262068
0.000261805
0.000260858
0.000257904
0.000249877
0.000231085
0.000193954
0.000134731
6.62641e-05
2.33043e-05
2.52551e-05
0.000262118
0.000262118
0.000262117
0.000262103
0.000262031
0.000261738
0.000260711
0.000257568
0.000249182
0.000229854
0.000192213
0.000132918
6.50951e-05
2.30832e-05
2.53585e-05
0.000262094
0.000262094
0.000262091
0.000262075
0.000261993
0.000261669
0.000260557
0.000257221
0.000248471
0.000228621
0.000190492
0.000131146
6.39584e-05
2.28517e-05
2.5458e-05
0.000262069
0.000262069
0.000262066
0.000262047
0.000261954
0.000261596
0.000260396
0.000256863
0.000247749
0.000227386
0.000188792
0.000129418
6.28662e-05
2.26608e-05
2.55527e-05
0.000262045
0.000262045
0.000262041
0.000262018
0.000261914
0.00026152
0.000260228
0.000256493
0.000247016
0.00022615
0.000187111
0.000127728
6.1801e-05
2.24544e-05
2.56437e-05
0.000262021
0.00026202
0.000262016
0.000261989
0.000261871
0.00026144
0.000260053
0.000256113
0.000246273
0.000224913
0.000185452
0.000126079
6.07795e-05
2.22912e-05
2.573e-05
0.000261997
0.000261996
0.00026199
0.000261959
0.000261828
0.000261357
0.000259871
0.000255722
0.000245519
0.000223676
0.000183813
0.000124467
5.97799e-05
2.21071e-05
2.58129e-05
0.000261973
0.000261971
0.000261964
0.000261928
0.000261782
0.00026127
0.000259682
0.000255321
0.000244757
0.000222441
0.000182196
0.000122895
5.88235e-05
2.19694e-05
2.5891e-05
0.000261948
0.000261947
0.000261938
0.000261897
0.000261735
0.000261179
0.000259486
0.00025491
0.000243985
0.000221208
0.000180599
0.000121356
5.78841e-05
2.18051e-05
2.59662e-05
0.000261924
0.000261923
0.000261912
0.000261866
0.000261686
0.000261084
0.000259282
0.000254489
0.000243205
0.000219976
0.000179024
0.000119855
5.69878e-05
2.16911e-05
2.60366e-05
0.0002619
0.000261898
0.000261886
0.000261833
0.000261636
0.000260985
0.000259072
0.000254058
0.000242417
0.000218748
0.00017747
0.000118387
5.61039e-05
2.15442e-05
2.61043e-05
0.000261876
0.000261873
0.000261859
0.0002618
0.000261583
0.000260881
0.000258854
0.000253618
0.000241623
0.000217524
0.000175938
0.000116954
5.52631e-05
2.14523e-05
2.61674e-05
0.000261852
0.000261849
0.000261832
0.000261766
0.000261528
0.000260774
0.000258629
0.000253169
0.000240821
0.000216303
0.000174426
0.000115552
5.44306e-05
2.13208e-05
2.62281e-05
0.000261828
0.000261824
0.000261805
0.000261731
0.000261471
0.000260662
0.000258397
0.000252711
0.000240014
0.000215087
0.000172935
0.000114183
5.36407e-05
2.12496e-05
2.62842e-05
0.000261804
0.000261799
0.000261778
0.000261695
0.000261412
0.000260546
0.000258158
0.000252244
0.000239201
0.000213876
0.000171466
0.000112845
5.28559e-05
2.11317e-05
2.63383e-05
0.00026178
0.000261774
0.00026175
0.000261658
0.000261351
0.000260426
0.000257911
0.000251768
0.000238382
0.000212671
0.000170016
0.000111536
5.21129e-05
2.10801e-05
2.63877e-05
0.000261755
0.000261749
0.000261721
0.00026162
0.000261288
0.000260301
0.000257658
0.000251285
0.00023756
0.000211471
0.000168589
0.000110258
5.13726e-05
2.09739e-05
2.64356e-05
0.000261731
0.000261724
0.000261693
0.000261581
0.000261222
0.000260172
0.000257398
0.000250794
0.000236732
0.000210277
0.00016718
0.000109005
5.06724e-05
2.09409e-05
2.64788e-05
0.000261707
0.000261698
0.000261663
0.000261541
0.000261153
0.000260038
0.000257132
0.000250295
0.000235902
0.000209091
0.000165795
0.000107786
4.99739e-05
2.08448e-05
2.65209e-05
0.000261682
0.000261673
0.000261634
0.0002615
0.000261082
0.0002599
0.000256858
0.000249789
0.000235067
0.00020791
0.000164424
0.000106584
4.93124e-05
2.08298e-05
2.65581e-05
0.000261658
0.000261647
0.000261603
0.000261457
0.000261009
0.000259757
0.000256578
0.000249276
0.00023423
0.000206739
0.000163081
0.000105422
4.86536e-05
2.07421e-05
2.65947e-05
0.000261633
0.000261621
0.000261573
0.000261413
0.000260933
0.000259609
0.000256291
0.000248756
0.00023339
0.000205571
0.000161747
0.000104267
4.80264e-05
2.07443e-05
2.66265e-05
0.000261608
0.000261594
0.000261541
0.000261368
0.000260854
0.000259457
0.000255998
0.00024823
0.000232549
0.000204416
0.000160447
0.000103161
4.74056e-05
2.06635e-05
2.66578e-05
0.000261583
0.000261568
0.000261509
0.000261321
0.000260772
0.000259301
0.000255698
0.000247697
0.000231704
0.000203262
0.000159148
0.000102045
4.68081e-05
2.06821e-05
2.66845e-05
0.000261558
0.000261541
0.000261476
0.000261273
0.000260688
0.000259139
0.000255392
0.00024716
0.000230861
0.000202126
0.000157892
0.000100996
4.6224e-05
2.0607e-05
2.67117e-05
0.000261532
0.000261513
0.000261443
0.000261224
0.000260601
0.000258973
0.00025508
0.000246614
0.000230012
0.000200985
0.000156622
9.99122e-05
4.56504e-05
2.0639e-05
2.67305e-05
0.000261506
0.000261485
0.000261408
0.000261172
0.000260511
0.000258802
0.000254762
0.000246067
0.00022917
0.000199872
0.000155414
9.89233e-05
4.51038e-05
2.05798e-05
2.67593e-05
0.000261481
0.000261457
0.000261373
0.00026112
0.000260418
0.000258627
0.000254438
0.000245509
0.000228316
0.000198739
0.000154166
9.78607e-05
4.45422e-05
2.05678e-05
2.67698e-05
0.000261454
0.000261428
0.000261337
0.000261065
0.000260321
0.000258447
0.000254109
0.000244954
0.00022748
0.000197657
0.000153016
9.69394e-05
4.40421e-05
2.05115e-05
2.67783e-05
0.000261428
0.0002614
0.0002613
0.000261009
0.000260223
0.000258263
0.000253772
0.000244384
0.000226618
0.000196525
0.000151776
9.58777e-05
4.34397e-05
2.04165e-05
2.67563e-05
0.000261346
0.00026131
0.000261185
0.000260834
0.000259916
0.000257698
0.000252764
0.000242725
0.000224187
0.000193462
0.000148607
9.34122e-05
4.22973e-05
2.16545e-05
3.03291e-05
0.000261208
0.000261155
0.000260979
0.000260509
0.000259344
0.00025666
0.000250949
0.000239795
0.000219947
0.000188114
0.000142959
8.87011e-05
3.9202e-05
2.04261e-05
4.94363e-05
0.000261045
0.000260968
0.000260727
0.000260114
0.000258671
0.000255498
0.000249032
0.000236889
0.000216031
0.000183592
0.000138726
8.56644e-05
3.76586e-05
2.27344e-05
5.9165e-05
0.000260876
0.000260772
0.000260456
0.000259686
0.000257945
0.000254268
0.000247044
0.000233922
0.000212039
0.000178858
0.000133878
8.12691e-05
3.44547e-05
2.66316e-05
8.16002e-05
0.000260678
0.00026054
0.000260133
0.000259181
0.000257115
0.000252917
0.000244958
0.000230965
0.000208303
0.000174796
0.000130197
7.83368e-05
3.31814e-05
3.3034e-05
9.91723e-05
0.000260471
0.000260294
0.000259788
0.000258643
0.000256243
0.000251526
0.000242856
0.000228029
0.000204582
0.000170552
0.000125717
7.34138e-05
3.05821e-05
4.45994e-05
0.000119217
0.000260227
0.000260005
0.000259384
0.000258024
0.000255267
0.00025002
0.000240657
0.000225073
0.000201009
0.000166743
0.000122026
6.99826e-05
2.99719e-05
5.84484e-05
0.000133346
0.000259969
0.000259698
0.000258955
0.000257373
0.00025426
0.0002485
0.000238488
0.000222203
0.000197519
0.000162752
0.000117277
6.40639e-05
3.18225e-05
7.49406e-05
0.000148228
0.000259667
0.00025934
0.000258462
0.000256639
0.000253152
0.000246871
0.00023622
0.000219273
0.000194043
0.000158903
0.000113095
6.01453e-05
3.57542e-05
9.3663e-05
0.00016216
0.000259345
0.00025896
0.000257941
0.000255876
0.000252024
0.00024525
0.000234015
0.000216469
0.00019068
0.000154933
0.000107517
5.42303e-05
4.36396e-05
0.000112769
0.000175966
0.000258973
0.000258524
0.000257354
0.000255033
0.000250802
0.000243528
0.000231708
0.000213557
0.00018718
0.00015056
0.000101999
5.03613e-05
5.40047e-05
0.000131373
0.000190387
0.000258578
0.000258064
0.000256738
0.000254163
0.000249568
0.00024183
0.000229479
0.00021078
0.000183809
0.000146253
9.57345e-05
4.8451e-05
6.85563e-05
0.00014883
0.000204945
0.000258126
0.000257542
0.000256055
0.000253217
0.00024825
0.000240037
0.000227142
0.000207852
0.000180094
0.000140881
8.82333e-05
4.87618e-05
8.43294e-05
0.000165535
0.000219608
0.000257652
0.000256996
0.000255346
0.000252248
0.000246924
0.000238275
0.000224886
0.000205006
0.000176318
0.000135465
8.13332e-05
5.21921e-05
0.000103353
0.000181921
0.000234603
0.000257114
0.000256384
0.000254567
0.000251208
0.000245525
0.000236426
0.000222493
0.000201879
0.000172167
0.000129237
7.5117e-05
5.92107e-05
0.00012246
0.000196355
0.000248967
0.000256556
0.000255752
0.000253768
0.000250149
0.000244119
0.000234593
0.000220137
0.00019879
0.000167684
0.000121994
7.01871e-05
6.9376e-05
0.000141572
0.000211955
0.000263326
0.000255928
0.000255048
0.000252897
0.000249021
0.000242646
0.000232682
0.000217664
0.00019553
0.000162531
0.000114421
6.74741e-05
8.29716e-05
0.000159979
0.000227659
0.000277713
0.000255285
0.000254331
0.000252014
0.000247883
0.000241166
0.000230771
0.000215179
0.000191935
0.000157118
0.000106679
6.74417e-05
9.86219e-05
0.000178047
0.00024352
0.00029223
0.000254567
0.000253537
0.000251052
0.000246671
0.000239621
0.000228783
0.000212468
0.000188205
0.000150971
9.92302e-05
7.06312e-05
0.00011663
0.000195291
0.000259323
0.000306854
0.000253841
0.000252738
0.000250093
0.000245464
0.000238067
0.000226728
0.000209607
0.000183728
0.000143688
9.28181e-05
7.73946e-05
0.000135514
0.000212297
0.000274989
0.000321521
0.000253036
0.000251856
0.000249046
0.000244167
0.000236425
0.000224596
0.000206751
0.000179118
0.000136292
8.7917e-05
8.74589e-05
0.000154713
0.000229269
0.000290587
0.000336239
0.000252227
0.000250979
0.000248015
0.000242892
0.00023479
0.000222414
0.000203463
0.000173854
0.000128559
8.55474e-05
0.000100668
0.000173592
0.000246356
0.000306115
0.000350936
0.000251342
0.000250017
0.000246885
0.000241506
0.00023304
0.000220028
0.00020005
0.000167969
0.000120941
8.59183e-05
0.000116119
0.000192533
0.000263582
0.000321783
0.000365727
0.000250453
0.000249064
0.000245786
0.000240167
0.000231279
0.000217459
0.000195831
0.000161152
0.000113782
8.9712e-05
0.000133784
0.000210793
0.000280348
0.000337366
0.000380541
0.000249496
0.000248031
0.000244579
0.000238665
0.000229311
0.000214796
0.000191774
0.0001543
0.000107978
9.68993e-05
0.000152428
0.000228958
0.000297279
0.000352977
0.000395394
0.000248532
0.000247
0.000243399
0.000237239
0.000227477
0.000212014
0.000186768
0.000146881
0.000104027
0.000107421
0.00017154
0.000247151
0.000314137
0.000368611
0.000410291
0.000247507
0.0002459
0.000242124
0.000235648
0.000225226
0.000208685
0.000181275
0.00013954
0.000102707
0.000120722
0.000190805
0.000265347
0.000330921
0.000384243
0.00042522
0.000246474
0.0002448
0.000240861
0.00023405
0.000222974
0.000205118
0.000175163
0.00013235
0.000104295
0.00013645
0.00021007
0.000283577
0.000347704
0.000399902
0.000440192
0.000245387
0.000243634
0.000239485
0.000232288
0.000220606
0.000201255
0.000168873
0.000126302
0.000109305
0.000154026
0.000229154
0.0003017
0.00036445
0.000415574
0.000455198
0.000244288
0.000242454
0.000238135
0.000230629
0.000218035
0.000196676
0.000161981
0.000121655
0.000117577
0.000172688
0.000248329
0.000319796
0.000381201
0.000431277
0.000470244
0.000243134
0.000241236
0.000236691
0.000228522
0.000215031
0.000191671
0.000155123
0.000119382
0.000129025
0.000191952
0.000267506
0.000337744
0.000397903
0.000446996
0.000485331
0.000242004
0.000239977
0.000235125
0.000226535
0.000211898
0.000186271
0.000148354
0.000119693
0.000143034
0.000211601
0.000286762
0.000355803
0.000414609
0.000462724
0.000500439
0.000240738
0.000238648
0.00023362
0.000224415
0.000208259
0.00018054
0.000142467
0.000123219
0.00015945
0.000231358
0.000306085
0.000373792
0.000431367
0.000478513
0.000515598
0.000239611
0.00023738
0.000231891
0.000221892
0.000204041
0.000174286
0.000137808
0.000130018
0.000177444
0.000251275
0.000325235
0.000391489
0.000448014
0.00049429
0.000530784
0.000238231
0.000235855
0.000230033
0.000219456
0.000199723
0.000168039
0.000135191
0.000140013
0.000196445
0.000271302
0.000344364
0.000409375
0.000464689
0.000510082
0.00054599
0.000237053
0.000234562
0.00022837
0.000216439
0.000194901
0.000161921
0.000135008
0.000152849
0.000216246
0.000291483
0.000363486
0.000427219
0.000481379
0.000525901
0.000561228
0.000235627
0.00023291
0.000226204
0.000213076
0.000189702
0.000156522
0.000137811
0.000168268
0.000236381
0.000311699
0.00038256
0.000445015
0.000498061
0.000541735
0.000576487
0.000234343
0.000231381
0.000224202
0.000209472
0.00018418
0.000152282
0.000143836
0.00018568
0.000256914
0.000331969
0.000401621
0.000462802
0.000514758
0.000557598
0.000591782
0.000232788
0.00022975
0.000221731
0.000205597
0.000178649
0.000149907
0.00015305
0.000204452
0.00027768
0.000352196
0.000420617
0.000480545
0.000531439
0.000573468
0.000607088
0.000231411
0.00022814
0.000218932
0.000201326
0.000173335
0.000149868
0.000165253
0.000224345
0.000298738
0.000372467
0.000439606
0.000498295
0.000548143
0.000589365
0.000622423
0.000230025
0.000226294
0.000216064
0.000196751
0.00016871
0.000152705
0.000180211
0.000244858
0.000319874
0.000392648
0.000458528
0.00051598
0.000564816
0.000605263
0.000637776
0.000228672
0.000224168
0.000212963
0.000192039
0.000165305
0.00015872
0.000197366
0.000265983
0.000341186
0.000412941
0.000477576
0.000533746
0.000581537
0.00062119
0.00065313
0.000226987
0.00022197
0.000209535
0.000187367
0.000163723
0.000167914
0.000216204
0.000287535
0.000362516
0.000433086
0.000496302
0.000551401
0.00059823
0.000637121
0.000668481
0.000225043
0.00021968
0.000205928
0.000183094
0.000164504
0.000180223
0.000236373
0.000309466
0.000383891
0.000453207
0.000515106
0.000569042
0.000614919
0.000653066
0.000683864
0.000223242
0.000217199
0.000202149
0.000179637
0.000168187
0.000195383
0.000257437
0.000331598
0.000405247
0.000473291
0.000533921
0.000586678
0.000631602
0.000669011
0.000699245
0.000221427
0.000214624
0.000198438
0.000177591
0.000175054
0.000212877
0.000279324
0.000353965
0.000426665
0.000493392
0.000552726
0.000604326
0.000648299
0.000684967
0.000714631
0.000219542
0.000211945
0.00019502
0.000177529
0.000185187
0.000232264
0.00030178
0.000376404
0.000448009
0.000513397
0.00057145
0.000621929
0.000664976
0.000700918
0.000730022
0.000217694
0.000209317
0.000192303
0.00018003
0.00019852
0.000253123
0.000324745
0.000399013
0.000469437
0.000533463
0.000590214
0.000639558
0.000681674
0.000716886
0.000745429
0.000215916
0.000206883
0.000190812
0.000185626
0.000214765
0.000275182
0.000348052
0.000421615
0.000490711
0.00055333
0.000608847
0.00065712
0.000698344
0.000732848
0.000760837
0.000214414
0.000204969
0.00019113
0.000194523
0.000233419
0.000298157
0.000371623
0.000444311
0.000512127
0.000573487
0.000627589
0.000674715
0.000715022
0.000748811
0.000776247
0.000213372
0.000203954
0.000193923
0.000206906
0.000254139
0.000321936
0.000395463
0.000467066
0.00053345
0.00059329
0.000646241
0.000692299
0.00073171
0.000764786
0.000791666
0.00021318
0.000204417
0.000199762
0.00022255
0.000276478
0.000346268
0.000419408
0.000489749
0.000554637
0.000613027
0.000664789
0.000709816
0.000748362
0.000780743
0.000807074
0.000214301
0.000207007
0.000209109
0.000241175
0.000300219
0.000371113
0.000443516
0.00051248
0.000575879
0.000632903
0.000683376
0.000727341
0.000765018
0.000796708
0.00082249
0.000217382
0.000212459
0.000222193
0.000262327
0.000325012
0.000396275
0.000467651
0.000535145
0.000597038
0.000652676
0.000701909
0.000744822
0.000781631
0.000812617
0.000837874
0.000223217
0.000221486
0.000239003
0.000285681
0.000350725
0.000421788
0.000491929
0.000557887
0.000618243
0.000672461
0.000720445
0.000762302
0.000798247
0.000828555
0.000853266
0.00023262
0.000234604
0.000259302
0.000310846
0.000377136
0.000447488
0.000516163
0.000580473
0.000639255
0.000692108
0.000738904
0.000779752
0.000814868
0.000844518
0.000868676
0.000246427
0.000252208
0.000282797
0.000337542
0.000404147
0.000473402
0.000540505
0.000603211
0.000660544
0.000711856
0.000757383
0.000797189
0.000831454
0.000860396
0.000884061
0.000265189
0.000274304
0.000309079
0.0003655
0.000431652
0.000499485
0.000564868
0.000625835
0.000681478
0.000731493
0.000775827
0.000814609
0.000848028
0.000876265
0.000899432
0.000289141
0.000300723
0.000337857
0.000394582
0.000459596
0.000525688
0.000589189
0.000648336
0.000702319
0.000751008
0.000794183
0.000831972
0.000864561
0.000892104
0.000914778
0.000317973
0.00033099
0.000368743
0.000424575
0.000487864
0.000551963
0.000613499
0.000670849
0.000723278
0.000770529
0.000812513
0.00084931
0.00088108
0.000907932
0.000930107
0.000351035
0.000364554
0.000401498
0.000455447
0.000516502
0.000578375
0.000637844
0.000693346
0.000744171
0.000790012
0.000830793
0.000866574
0.000897491
0.000923687
0.000945382
0.000387366
0.000400679
0.00043576
0.000487021
0.000545385
0.000604811
0.000662132
0.000715798
0.000764959
0.000809398
0.000849
0.000883801
0.000913926
0.000939424
0.000960621
0.000425957
0.000438638
0.000471244
0.000519281
0.000574623
0.000631452
0.000686575
0.000738364
0.000785818
0.000828817
0.000867223
0.000901043
0.000930373
0.000955169
0.000975851
0.000465889
0.00047772
0.000507576
0.000552056
0.000604085
0.000658095
0.00071082
0.00076051
0.000806451
0.000848098
0.00088534
0.000918177
0.000946685
0.000970825
0.000991014
0.00050636
0.000517285
0.000544389
0.000585215
0.000633767
0.000684819
0.000735093
0.00078279
0.000827069
0.000867342
0.000903431
0.000935299
0.000962994
0.000986457
0.00100614
0.000546821
0.000556844
0.000581321
0.000618529
0.000663531
0.000711552
0.000759381
0.000805035
0.000847584
0.000886433
0.000921322
0.000952169
0.00097913
0.00100197
0.00102118
0.00058673
0.000595912
0.000618009
0.000651837
0.000693421
0.000738485
0.000783884
0.000827342
0.000868099
0.000905504
0.000939235
0.000969176
0.000995285
0.00101745
0.00103617
0.000625898
0.000634326
0.000654319
0.000685027
0.000723262
0.00076522
0.000807858
0.000849433
0.000888537
0.000924551
0.000957131
0.000986114
0.0010114
0.0010329
0.00105111
0.000664039
0.00067176
0.000689837
0.000717643
0.000752662
0.000791645
0.000831846
0.000871358
0.000908771
0.00094336
0.000974721
0.00100279
0.00102733
0.00104824
0.00106596
0.000700988
0.000708087
0.000724533
0.000749851
0.000782086
0.000818477
0.000855993
0.000893266
0.000928906
0.000962079
0.000992319
0.0010194
0.00104315
0.00106345
0.00108069
0.000736785
0.000743343
0.000758372
0.000781444
0.000810962
0.000844502
0.00087985
0.000915117
0.000949055
0.000980827
0.00100995
0.00103601
0.00105893
0.00107861
0.00109534
0.00077133
0.000777355
0.000791043
0.000812011
0.000838993
0.000870006
0.000903199
0.000936527
0.000968766
0.00099907
0.00102711
0.00105232
0.00107451
0.0010936
0.00110986
0.000804434
0.000810023
0.00082264
0.000841947
0.000866945
0.000895578
0.000926467
0.000957872
0.000988522
0.00101754
0.00104432
0.00106856
0.00108997
0.00110846
0.00112424
0.000836619
0.000841804
0.000853421
0.000871103
0.000893964
0.000920576
0.000949367
0.000978853
0.00100783
0.00103564
0.00106132
0.00108463
0.00110528
0.00112317
0.00113848
0.000867108
0.000871885
0.00088254
0.000898742
0.000919802
0.000944729
0.000971754
0.000999578
0.0010271
0.00105347
0.00107806
0.00110048
0.0011204
0.0011377
0.00115254
0.000896835
0.000901327
0.000911313
0.000926483
0.000945708
0.000968622
0.000993795
0.00101993
0.00104611
0.00107116
0.00109465
0.00111616
0.00113535
0.00115206
0.00116644
0.000925056
0.000929208
0.000938402
0.000952317
0.000970401
0.000991741
0.00101526
0.00103984
0.00106454
0.00108843
0.00111092
0.00113158
0.00115007
0.00116622
0.00118015
0.000952459
0.000956403
0.000965122
0.000977575
0.000994435
0.00101438
0.00103644
0.00105966
0.00108289
0.00110554
0.00112699
0.0011468
0.00116458
0.00118017
0.00119365
0.000978799
0.00098246
0.000990047
0.00100197
0.00101755
0.00103607
0.00105663
0.00107856
0.00110065
0.00112223
0.00114274
0.00116173
0.00117885
0.00119389
0.00120693
0.00100416
0.00100716
0.0010143
0.00102554
0.00104013
0.00105749
0.00107686
0.00109731
0.00111815
0.00113864
0.0011582
0.0011764
0.00119287
0.00120737
0.00121999
0.00102732
0.00103045
0.00103755
0.00104804
0.00106163
0.00107779
0.00109617
0.00111549
0.00113521
0.00115469
0.00117336
0.00119079
0.00120662
0.00122061
0.00123281
0.00105031
0.00105346
0.00106009
0.00106994
0.00108272
0.00109795
0.001115
0.0011332
0.00115187
0.00117038
0.00118819
0.00120489
0.00122011
0.00123359
0.00124538
0.00107266
0.00107549
0.00108164
0.0010908
0.00110268
0.00111723
0.00113326
0.00115043
0.00116811
0.0011857
0.0012027
0.00121869
0.00123332
0.0012463
0.0012577
0.00109406
0.00109671
0.00110247
0.00111109
0.00112244
0.00113586
0.00115096
0.00116718
0.00118392
0.00120065
0.00121687
0.00123218
0.00124624
0.00125874
0.00126976
0.00111459
0.00111706
0.00112243
0.00113054
0.00114129
0.0011539
0.00116812
0.00118344
0.00119931
0.00121521
0.00123069
0.00124535
0.00125886
0.00127091
0.00128155
0.00113408
0.00113639
0.00114157