/*--------------------------------*- C++ -*----------------------------------*\
  =========                 |
  \\      /  F ield         | OpenFOAM: The Open Source CFD Toolbox
   \\    /   O peration     | Website:  https://openfoam.org
    \\  /    A nd           | Version:  7
     \\/     M anipulation  |
\*---------------------------------------------------------------------------*/
FoamFile
{
    version     2.0;
    format      ascii;
    class       volScalarField;
    location    "500";
    object      p;
}
// * * * * * * * * * * * * * * * * * * * * * * * * * * * * * * * * * * * * * //

dimensions      [0 2 -2 0 0 0 0];

internalField   nonuniform List<scalar> 
32100
(
2.27662
2.27664
2.27668
2.27674
2.27682
2.2769
2.27697
2.27701
2.27697
2.27675
2.27614
2.27483
2.269
2.24038
2.36326
2.27661
2.27663
2.27667
2.27673
2.27681
2.27689
2.27698
2.27703
2.27703
2.27691
2.27642
2.27574
2.27932
2.24554
2.34222
2.27657
2.27659
2.27664
2.27671
2.27679
2.27689
2.277
2.2771
2.27718
2.27727
2.27733
2.27647
2.28748
2.25375
2.32141
2.27651
2.27654
2.27659
2.27666
2.27676
2.27687
2.27701
2.27718
2.27737
2.27764
2.27837
2.27649
2.29029
2.26072
2.30876
2.27643
2.27646
2.27651
2.27659
2.2767
2.27684
2.27701
2.27723
2.27751
2.27782
2.27911
2.27627
2.29025
2.2651
2.30186
2.27633
2.27636
2.27641
2.2765
2.27662
2.27678
2.27698
2.27723
2.27757
2.27781
2.2795
2.27615
2.28949
2.26749
2.29723
2.2762
2.27623
2.27629
2.27638
2.27651
2.27668
2.27689
2.27716
2.27756
2.2777
2.27964
2.27608
2.28858
2.26886
2.29353
2.27604
2.27607
2.27613
2.27623
2.27636
2.27654
2.27677
2.27704
2.27749
2.27752
2.27959
2.27594
2.28759
2.26993
2.29046
2.27585
2.27588
2.27594
2.27605
2.27618
2.27636
2.2766
2.27685
2.27734
2.27729
2.27939
2.27574
2.28651
2.27083
2.28795
2.27563
2.27567
2.27573
2.27583
2.27597
2.27615
2.27638
2.27662
2.27712
2.277
2.27908
2.27549
2.28539
2.27153
2.28589
2.27538
2.27542
2.27548
2.27558
2.27571
2.27589
2.27612
2.27634
2.27684
2.27666
2.27869
2.27522
2.28427
2.27202
2.28416
2.2751
2.27514
2.27519
2.27529
2.27543
2.2756
2.27582
2.27602
2.27652
2.27629
2.27825
2.27493
2.28318
2.27235
2.28265
2.27479
2.27483
2.27488
2.27498
2.27511
2.27527
2.27549
2.27566
2.27615
2.27589
2.27775
2.27462
2.28213
2.27254
2.28132
2.27445
2.27449
2.27454
2.27463
2.27476
2.27491
2.27512
2.27527
2.27574
2.27546
2.27722
2.27428
2.28111
2.27263
2.28013
2.27408
2.27412
2.27417
2.27426
2.27438
2.27452
2.27472
2.27485
2.2753
2.27501
2.27667
2.27392
2.28012
2.27262
2.27905
2.27369
2.27373
2.27377
2.27386
2.27397
2.2741
2.27429
2.2744
2.27484
2.27454
2.27609
2.27354
2.27917
2.27252
2.27806
2.27327
2.27331
2.27335
2.27343
2.27353
2.27365
2.27384
2.27393
2.27435
2.27405
2.2755
2.27314
2.27825
2.27236
2.27713
2.27283
2.27287
2.27291
2.27298
2.27308
2.27319
2.27336
2.27344
2.27383
2.27354
2.27489
2.27272
2.27735
2.27214
2.27625
2.27236
2.2724
2.27244
2.27251
2.2726
2.2727
2.27286
2.27294
2.2733
2.27302
2.27428
2.27228
2.27648
2.27186
2.27542
2.27188
2.27192
2.27195
2.27201
2.2721
2.27219
2.27234
2.27241
2.27275
2.27248
2.27365
2.27181
2.27563
2.27153
2.27461
2.27137
2.27141
2.27144
2.2715
2.27158
2.27167
2.27181
2.27187
2.27219
2.27193
2.27302
2.27133
2.2748
2.27117
2.27383
2.27085
2.27089
2.27092
2.27097
2.27105
2.27113
2.27126
2.27131
2.27161
2.27137
2.27238
2.27084
2.27398
2.27077
2.27306
2.27031
2.27035
2.27037
2.27043
2.2705
2.27057
2.27069
2.27074
2.27102
2.27079
2.27173
2.27032
2.27318
2.27033
2.27231
2.26976
2.26979
2.26981
2.26986
2.26993
2.27
2.27011
2.27015
2.27042
2.27021
2.27108
2.26979
2.27238
2.26987
2.27157
2.26919
2.26922
2.26924
2.26929
2.26935
2.26941
2.26952
2.26956
2.26981
2.26961
2.27042
2.26925
2.2716
2.26938
2.27083
2.2686
2.26864
2.26866
2.2687
2.26876
2.26881
2.26892
2.26895
2.26918
2.269
2.26975
2.26869
2.27082
2.26886
2.2701
2.26801
2.26804
2.26806
2.2681
2.26815
2.2682
2.2683
2.26833
2.26855
2.26839
2.26908
2.26811
2.27004
2.26833
2.26938
2.2674
2.26743
2.26745
2.26748
2.26753
2.26758
2.26768
2.26771
2.26791
2.26776
2.2684
2.26753
2.26927
2.26777
2.26865
2.26678
2.26681
2.26682
2.26686
2.26691
2.26695
2.26704
2.26707
2.26726
2.26712
2.26772
2.26693
2.26851
2.26719
2.26793
2.26615
2.26618
2.26619
2.26622
2.26627
2.26631
2.26639
2.26642
2.2666
2.26647
2.26703
2.26632
2.26774
2.2666
2.2672
2.2655
2.26554
2.26555
2.26558
2.26562
2.26566
2.26574
2.26577
2.26593
2.26582
2.26633
2.26569
2.26698
2.26599
2.26648
2.26485
2.26489
2.2649
2.26493
2.26497
2.26501
2.26508
2.2651
2.26526
2.26516
2.26563
2.26506
2.26622
2.26537
2.26575
2.26419
2.26423
2.26423
2.26426
2.2643
2.26434
2.26441
2.26443
2.26458
2.26449
2.26492
2.26441
2.26546
2.26473
2.26502
2.26353
2.26356
2.26357
2.26359
2.26363
2.26366
2.26373
2.26375
2.26389
2.26381
2.26421
2.26376
2.2647
2.26409
2.26429
2.26285
2.26288
2.26289
2.26291
2.26295
2.26298
2.26304
2.26306
2.26319
2.26312
2.2635
2.26309
2.26394
2.26342
2.26355
2.26217
2.2622
2.2622
2.26223
2.26226
2.26229
2.26235
2.26237
2.26249
2.26243
2.26277
2.26242
2.26317
2.26275
2.26282
2.26148
2.26151
2.26151
2.26153
2.26156
2.26159
2.26165
2.26167
2.26178
2.26173
2.26205
2.26174
2.26241
2.26207
2.26207
2.26078
2.26081
2.26081
2.26083
2.26086
2.26089
2.26094
2.26096
2.26107
2.26102
2.26132
2.26105
2.26164
2.26138
2.26133
2.26007
2.26011
2.26011
2.26013
2.26015
2.26018
2.26023
2.26025
2.26035
2.26031
2.26058
2.26035
2.26087
2.26068
2.26058
2.25936
2.2594
2.25939
2.25942
2.25944
2.25947
2.25951
2.25953
2.25963
2.25959
2.25984
2.25964
2.2601
2.25997
2.25983
2.25865
2.25868
2.25868
2.2587
2.25872
2.25875
2.25879
2.25881
2.2589
2.25887
2.2591
2.25893
2.25933
2.25925
2.25907
2.25792
2.25796
2.25795
2.25797
2.258
2.25802
2.25806
2.25808
2.25816
2.25814
2.25835
2.25821
2.25856
2.25852
2.25831
2.2572
2.25723
2.25723
2.25724
2.25727
2.25729
2.25733
2.25734
2.25742
2.2574
2.25759
2.25748
2.25778
2.25779
2.25755
2.25646
2.2565
2.25649
2.25651
2.25653
2.25655
2.25659
2.25661
2.25668
2.25666
2.25684
2.25675
2.257
2.25705
2.25679
2.25573
2.25576
2.25575
2.25577
2.25579
2.25581
2.25584
2.25586
2.25593
2.25592
2.25608
2.25602
2.25622
2.25631
2.25602
2.25498
2.25502
2.25501
2.25503
2.25505
2.25506
2.2551
2.25511
2.25518
2.25517
2.25531
2.25527
2.25544
2.25556
2.25525
2.25424
2.25427
2.25427
2.25428
2.2543
2.25432
2.25434
2.25436
2.25442
2.25442
2.25455
2.25452
2.25466
2.2548
2.25447
2.25349
2.25352
2.25352
2.25353
2.25354
2.25356
2.25359
2.25361
2.25366
2.25366
2.25378
2.25377
2.25387
2.25404
2.2537
2.25273
2.25277
2.25276
2.25278
2.25279
2.2528
2.25283
2.25285
2.25289
2.2529
2.253
2.25302
2.25309
2.25327
2.25292
2.25198
2.25201
2.252
2.25202
2.25203
2.25204
2.25207
2.25208
2.25213
2.25214
2.25223
2.25225
2.2523
2.2525
2.25214
2.25122
2.25125
2.25124
2.25125
2.25127
2.25128
2.2513
2.25132
2.25136
2.25137
2.25145
2.25149
2.25151
2.25173
2.25135
2.25045
2.25049
2.25048
2.25049
2.2505
2.25051
2.25053
2.25055
2.25058
2.2506
2.25067
2.25072
2.25071
2.25095
2.25057
2.24969
2.24972
2.24971
2.24972
2.24973
2.24974
2.24976
2.24978
2.24981
2.24983
2.24989
2.24995
2.24992
2.25017
2.24978
2.24892
2.24895
2.24894
2.24895
2.24896
2.24897
2.24899
2.249
2.24903
2.24905
2.2491
2.24917
2.24912
2.24939
2.24899
2.24814
2.24818
2.24817
2.24818
2.24819
2.2482
2.24821
2.24822
2.24825
2.24827
2.24831
2.2484
2.24833
2.2486
2.2482
2.24737
2.2474
2.24739
2.2474
2.24741
2.24742
2.24743
2.24744
2.24747
2.24749
2.24752
2.24762
2.24753
2.24781
2.2474
2.24659
2.24663
2.24662
2.24663
2.24663
2.24664
2.24665
2.24666
2.24669
2.24671
2.24673
2.24683
2.24673
2.24702
2.24661
2.24582
2.24585
2.24584
2.24585
2.24585
2.24586
2.24587
2.24588
2.2459
2.24592
2.24594
2.24605
2.24593
2.24623
2.24582
2.24504
2.24507
2.24506
2.24506
2.24507
2.24507
2.24508
2.24509
2.24511
2.24514
2.24515
2.24526
2.24514
2.24543
2.24502
2.24425
2.24429
2.24427
2.24428
2.24428
2.24429
2.2443
2.24431
2.24432
2.24435
2.24436
2.24447
2.24434
2.24464
2.24422
2.24347
2.2435
2.24349
2.2435
2.2435
2.2435
2.24351
2.24352
2.24353
2.24356
2.24356
2.24368
2.24353
2.24384
2.24343
2.24269
2.24272
2.2427
2.24271
2.24271
2.24272
2.24272
2.24273
2.24274
2.24277
2.24276
2.24289
2.24273
2.24304
2.24263
2.2419
2.24193
2.24192
2.24192
2.24192
2.24193
2.24193
2.24194
2.24195
2.24198
2.24197
2.2421
2.24193
2.24224
2.24183
2.24112
2.24115
2.24113
2.24114
2.24114
2.24114
2.24114
2.24115
2.24115
2.24118
2.24117
2.24131
2.24113
2.24144
2.24104
2.24033
2.24036
2.24034
2.24035
2.24035
2.24035
2.24035
2.24035
2.24036
2.24039
2.24037
2.24051
2.24033
2.24064
2.24024
2.23954
2.23957
2.23956
2.23956
2.23956
2.23956
2.23956
2.23956
2.23956
2.23959
2.23957
2.23972
2.23953
2.23984
2.23944
2.23876
2.23879
2.23877
2.23877
2.23877
2.23876
2.23876
2.23876
2.23877
2.2388
2.23877
2.23892
2.23873
2.23904
2.23865
2.23797
2.238
2.23798
2.23798
2.23798
2.23797
2.23797
2.23797
2.23797
2.238
2.23797
2.23812
2.23793
2.23824
2.23786
2.23719
2.23721
2.2372
2.23719
2.23719
2.23718
2.23717
2.23717
2.23717
2.2372
2.23717
2.23732
2.23713
2.23744
2.23707
2.2364
2.23643
2.23641
2.23641
2.2364
2.23639
2.23638
2.23637
2.23636
2.2364
2.23636
2.23652
2.23633
2.23664
2.23628
2.23562
2.23565
2.23563
2.23562
2.23561
2.23559
2.23558
2.23557
2.23556
2.23559
2.23556
2.23572
2.23553
2.23584
2.2355
2.23484
2.23487
2.23485
2.23484
2.23482
2.2348
2.23478
2.23477
2.23476
2.23479
2.23475
2.23491
2.23473
2.23504
2.23473
2.23407
2.2341
2.23407
2.23406
2.23403
2.23401
2.23399
2.23397
2.23395
2.23397
2.23393
2.2341
2.23392
2.23425
2.23396
2.2333
2.23333
2.2333
2.23328
2.23325
2.23322
2.23319
2.23317
2.23314
2.23316
2.23311
2.23328
2.23311
2.23345
2.23321
2.23254
2.23256
2.23253
2.23251
2.23247
2.23244
2.2324
2.23236
2.23232
2.23233
2.23228
2.23245
2.2323
2.23265
2.23247
2.23178
2.2318
2.23177
2.23174
2.2317
2.23166
2.2316
2.23156
2.2315
2.2315
2.23144
2.2316
2.23146
2.23184
2.23176
2.23104
2.23106
2.23102
2.23099
2.23094
2.23088
2.23082
2.23075
2.23068
2.23066
2.23058
2.23074
2.23061
2.23101
2.23107
2.23031
2.23032
2.23028
2.23024
2.23018
2.23011
2.23003
2.22995
2.22986
2.22982
2.22971
2.22984
2.22972
2.23015
2.23049
2.22959
2.2296
2.22955
2.2295
2.22944
2.22936
2.22926
2.22916
2.22904
2.22896
2.22882
2.2289
2.22876
2.22917
2.22976
2.22888
2.22889
2.22884
2.22878
2.22871
2.22861
2.2285
2.22837
2.22823
2.22811
2.22791
2.22791
2.22776
2.22823
2.22986
2.22685
2.22684
2.22679
2.22671
2.22661
2.22647
2.22631
2.22611
2.22587
2.2256
2.22526
2.22487
2.2243
2.22356
2.22067
2.22386
2.22384
2.22377
2.22367
2.22353
2.22335
2.22312
2.22284
2.2225
2.2221
2.2216
2.22098
2.22014
2.21995
2.22149
2.22171
2.22169
2.22162
2.22153
2.22141
2.22126
2.22107
2.22086
2.22061
2.22034
2.22006
2.21979
2.21922
2.21859
2.21985
2.22036
2.22035
2.22031
2.22025
2.22018
2.22008
2.21998
2.21986
2.21972
2.21958
2.21944
2.21937
2.21917
2.21858
2.21855
2.21947
2.21946
2.21944
2.2194
2.21935
2.21928
2.21921
2.21912
2.21902
2.2189
2.21875
2.21863
2.21853
2.21812
2.21694
2.21881
2.2188
2.21878
2.21875
2.21871
2.21866
2.21859
2.21852
2.21844
2.21836
2.21824
2.21812
2.21814
2.21815
2.21636
2.21834
2.21834
2.21832
2.2183
2.21827
2.21824
2.21819
2.21815
2.2181
2.21805
2.21798
2.21786
2.21785
2.218
2.21594
2.21806
2.21806
2.21805
2.21804
2.21802
2.218
2.21797
2.21794
2.2179
2.21787
2.21783
2.21773
2.21771
2.2178
2.21564
2.2179
2.21789
2.21789
2.21788
2.21787
2.21785
2.21783
2.21781
2.21779
2.21776
2.21774
2.21766
2.21769
2.21759
2.21551
2.21779
2.21779
2.21779
2.21778
2.21777
2.21776
2.21775
2.21774
2.21772
2.21771
2.21769
2.21762
2.21772
2.21736
2.21549
2.21774
2.21774
2.21773
2.21773
2.21773
2.21772
2.21771
2.2177
2.21769
2.21768
2.21766
2.21761
2.21775
2.2171
2.2155
2.21771
2.21771
2.21771
2.21771
2.21771
2.2177
2.2177
2.21769
2.21768
2.21767
2.21765
2.21761
2.21777
2.21688
2.21553
2.21771
2.21771
2.21771
2.21771
2.21771
2.2177
2.2177
2.2177
2.21769
2.21769
2.21767
2.21765
2.21777
2.21671
2.21556
2.21772
2.21772
2.21772
2.21772
2.21772
2.21772
2.21771
2.21771
2.21771
2.21771
2.21768
2.2177
2.21771
2.21659
2.21559
2.21773
2.21773
2.21773
2.21773
2.21773
2.21773
2.21773
2.21773
2.21772
2.21771
2.21769
2.21774
2.21759
2.2165
2.21561
2.21775
2.21775
2.21775
2.21775
2.21775
2.21775
2.21774
2.21774
2.21774
2.21773
2.21771
2.21779
2.21747
2.21645
2.21559
2.21777
2.21777
2.21777
2.21777
2.21777
2.21777
2.21777
2.21776
2.21776
2.21775
2.21773
2.21783
2.21734
2.21642
2.21558
2.21779
2.21779
2.21779
2.21779
2.21779
2.21779
2.21779
2.21779
2.21778
2.21777
2.21776
2.21784
2.21722
2.2164
2.21558
2.21782
2.21782
2.21782
2.21782
2.21782
2.21782
2.21782
2.21781
2.21781
2.21779
2.21781
2.21781
2.21712
2.21637
2.21558
2.21785
2.21785
2.21784
2.21784
2.21784
2.21784
2.21784
2.21784
2.21783
2.21781
2.21786
2.21776
2.21705
2.21635
2.21558
2.21787
2.21787
2.21787
2.21787
2.21787
2.21787
2.21787
2.21787
2.21786
2.21784
2.2179
2.21769
2.21699
2.21632
2.21557
2.2179
2.2179
2.2179
2.2179
2.2179
2.2179
2.2179
2.2179
2.21788
2.21788
2.21794
2.21762
2.21695
2.21629
2.21557
2.21794
2.21794
2.21794
2.21794
2.21794
2.21793
2.21793
2.21793
2.21792
2.21792
2.21796
2.21754
2.21692
2.21628
2.21557
2.21797
2.21797
2.21797
2.21797
2.21797
2.21797
2.21797
2.21796
2.21795
2.21797
2.21795
2.21747
2.2169
2.21626
2.21558
2.21801
2.21801
2.21801
2.21801
2.21801
2.21801
2.21801
2.218
2.21799
2.21802
2.21793
2.21743
2.21687
2.21625
2.21559
2.21805
2.21805
2.21805
2.21805
2.21805
2.21805
2.21805
2.21804
2.21803
2.21807
2.2179
2.21739
2.21685
2.21624
2.2156
2.21809
2.21809
2.21809
2.21809
2.21809
2.21809
2.21809
2.21808
2.21808
2.21811
2.21786
2.21737
2.21683
2.21623
2.2156
2.21813
2.21813
2.21813
2.21813
2.21813
2.21813
2.21813
2.21812
2.21813
2.21814
2.21782
2.21734
2.21681
2.21622
2.21561
2.21817
2.21817
2.21817
2.21817
2.21817
2.21817
2.21817
2.21816
2.21818
2.21815
2.21779
2.21732
2.21679
2.21621
2.21562
2.21822
2.21822
2.21822
2.21822
2.21822
2.21822
2.21821
2.2182
2.21823
2.21814
2.21775
2.21729
2.21677
2.2162
2.21563
2.21826
2.21826
2.21826
2.21826
2.21826
2.21826
2.21825
2.21825
2.21827
2.21812
2.21772
2.21726
2.21674
2.21619
2.21563
2.2183
2.2183
2.2183
2.2183
2.2183
2.2183
2.21829
2.21829
2.21831
2.2181
2.2177
2.21724
2.21672
2.21618
2.21563
2.21834
2.21834
2.21834
2.21834
2.21834
2.21834
2.21833
2.21834
2.21833
2.21807
2.21767
2.21721
2.2167
2.21617
2.21563
2.21838
2.21838
2.21838
2.21838
2.21838
2.21838
2.21837
2.21839
2.21833
2.21803
2.21764
2.21718
2.21668
2.21616
2.21563
2.21842
2.21842
2.21842
2.21842
2.21842
2.21841
2.21841
2.21843
2.21833
2.21801
2.21761
2.21715
2.21665
2.21614
2.21563
2.21846
2.21846
2.21846
2.21846
2.21846
2.21845
2.21846
2.21847
2.21831
2.21798
2.21758
2.21712
2.21663
2.21613
2.21563
2.2185
2.2185
2.2185
2.2185
2.2185
2.21849
2.2185
2.21849
2.21829
2.21795
2.21755
2.21709
2.21661
2.21611
2.21563
2.21854
2.21854
2.21854
2.21854
2.21854
2.21853
2.21855
2.21851
2.21827
2.21792
2.21751
2.21706
2.21658
2.2161
2.21562
2.21858
2.21858
2.21858
2.21858
2.21858
2.21858
2.21859
2.21851
2.21825
2.21789
2.21748
2.21703
2.21656
2.21609
2.21562
2.21863
2.21863
2.21863
2.21862
2.21862
2.21862
2.21863
2.21851
2.21822
2.21786
2.21745
2.217
2.21654
2.21607
2.21561
2.21867
2.21867
2.21867
2.21867
2.21866
2.21867
2.21866
2.2185
2.21819
2.21783
2.21741
2.21697
2.21651
2.21605
2.21561
2.21871
2.21871
2.21871
2.21871
2.21871
2.21871
2.21868
2.21848
2.21817
2.21779
2.21738
2.21694
2.21649
2.21604
2.2156
2.21876
2.21875
2.21875
2.21875
2.21875
2.21876
2.21869
2.21846
2.21813
2.21776
2.21734
2.21691
2.21646
2.21602
2.21559
2.2188
2.2188
2.2188
2.2188
2.2188
2.2188
2.21869
2.21843
2.2181
2.21772
2.21731
2.21688
2.21644
2.216
2.21558
2.21885
2.21885
2.21884
2.21884
2.21885
2.21883
2.21868
2.21841
2.21807
2.21769
2.21727
2.21684
2.21641
2.21598
2.21557
2.2189
2.21889
2.21889
2.21889
2.2189
2.21885
2.21867
2.21838
2.21804
2.21765
2.21724
2.21681
2.21638
2.21596
2.21556
2.21895
2.21894
2.21894
2.21894
2.21894
2.21887
2.21866
2.21836
2.218
2.21761
2.2172
2.21678
2.21636
2.21594
2.21554
2.219
2.219
2.219
2.219
2.21899
2.21888
2.21864
2.21833
2.21796
2.21757
2.21716
2.21674
2.21633
2.21592
2.21553
2.21906
2.21905
2.21905
2.21905
2.21902
2.21888
2.21862
2.21829
2.21793
2.21753
2.21712
2.21671
2.2163
2.2159
2.21551
2.21912
2.21911
2.21911
2.21911
2.21906
2.21888
2.2186
2.21826
2.21789
2.21749
2.21708
2.21667
2.21627
2.21588
2.2155
2.21919
2.21918
2.21918
2.21917
2.21908
2.21887
2.21857
2.21822
2.21784
2.21745
2.21705
2.21664
2.21624
2.21585
2.21548
2.21926
2.21925
2.21924
2.21922
2.21909
2.21885
2.21854
2.21819
2.2178
2.21741
2.21701
2.21661
2.21621
2.21583
2.21546
2.21934
2.21932
2.21932
2.21926
2.2191
2.21884
2.21851
2.21815
2.21776
2.21737
2.21697
2.21657
2.21618
2.21581
2.21544
2.21943
2.21941
2.21939
2.21931
2.21911
2.21882
2.21848
2.21811
2.21772
2.21733
2.21693
2.21654
2.21615
2.21578
2.21542
2.21953
2.2195
2.21946
2.21934
2.21911
2.2188
2.21845
2.21807
2.21768
2.21729
2.21689
2.2165
2.21612
2.21576
2.2154
2.21965
2.21959
2.21953
2.21937
2.2191
2.21878
2.21842
2.21803
2.21764
2.21724
2.21685
2.21647
2.21609
2.21573
2.21538
2.21977
2.21969
2.2196
2.21939
2.2191
2.21876
2.21838
2.218
2.2176
2.2172
2.21681
2.21643
2.21606
2.2157
2.21536
2.21991
2.21979
2.21966
2.21941
2.21909
2.21873
2.21835
2.21796
2.21756
2.21717
2.21678
2.2164
2.21603
2.21568
2.21534
2.22005
2.21989
2.21971
2.21943
2.21908
2.21871
2.21832
2.21792
2.21752
2.21713
2.21674
2.21637
2.216
2.21565
2.21532
2.2202
2.21997
2.21976
2.21944
2.21908
2.21869
2.21829
2.21789
2.21748
2.21709
2.21671
2.21633
2.21597
2.21563
2.21529
2.22032
2.22004
2.2198
2.21945
2.21907
2.21867
2.21826
2.21785
2.21745
2.21705
2.21667
2.2163
2.21594
2.2156
2.21527
2.22043
2.22009
2.21983
2.21946
2.21906
2.21865
2.21823
2.21782
2.21741
2.21702
2.21664
2.21627
2.21591
2.21557
2.21525
2.2205
2.22012
2.21984
2.21946
2.21904
2.21862
2.2182
2.21779
2.21738
2.21699
2.2166
2.21624
2.21588
2.21554
2.21522
2.22054
2.22012
2.21984
2.21945
2.21902
2.21859
2.21817
2.21775
2.21735
2.21695
2.21657
2.2162
2.21585
2.21552
2.2152
2.22055
2.2201
2.21982
2.21943
2.219
2.21856
2.21814
2.21772
2.21731
2.21692
2.21654
2.21617
2.21582
2.21549
2.21517
2.22051
2.22005
2.21978
2.21939
2.21897
2.21853
2.2181
2.21768
2.21727
2.21688
2.2165
2.21614
2.21579
2.21546
2.21514
2.22045
2.21997
2.21972
2.21934
2.21892
2.21849
2.21806
2.21764
2.21724
2.21684
2.21647
2.21611
2.21576
2.21543
2.21512
2.22035
2.21986
2.21963
2.21927
2.21886
2.21843
2.21801
2.2176
2.2172
2.21681
2.21643
2.21607
2.21573
2.2154
2.21509
2.22024
2.21974
2.21952
2.21919
2.21879
2.21837
2.21796
2.21755
2.21715
2.21676
2.21639
2.21603
2.21569
2.21537
2.21506
2.2201
2.2196
2.2194
2.21909
2.21871
2.2183
2.21789
2.21749
2.2171
2.21671
2.21635
2.21599
2.21565
2.21533
2.21502
2.21994
2.21943
2.21926
2.21897
2.2186
2.21822
2.21782
2.21743
2.21704
2.21666
2.2163
2.21595
2.21561
2.21529
2.21499
2.21976
2.21926
2.21911
2.21883
2.21849
2.21812
2.21774
2.21735
2.21698
2.21661
2.21625
2.2159
2.21557
2.21525
2.21495
2.21958
2.21908
2.21894
2.21869
2.21837
2.21801
2.21764
2.21727
2.2169
2.21654
2.21619
2.21585
2.21552
2.21521
2.21491
2.21938
2.21888
2.21876
2.21853
2.21823
2.21789
2.21754
2.21718
2.21682
2.21647
2.21613
2.21579
2.21547
2.21516
2.21487
2.21918
2.21868
2.21857
2.21836
2.21808
2.21776
2.21743
2.21708
2.21674
2.21639
2.21606
2.21573
2.21541
2.21511
2.21482
2.21897
2.21847
2.21838
2.21819
2.21792
2.21762
2.2173
2.21697
2.21664
2.21631
2.21598
2.21566
2.21535
2.21505
2.21477
2.21875
2.21826
2.21818
2.218
2.21776
2.21748
2.21717
2.21686
2.21654
2.21621
2.2159
2.21559
2.21528
2.21499
2.21471
2.21853
2.21804
2.21797
2.21781
2.21758
2.21732
2.21703
2.21673
2.21642
2.21612
2.21581
2.21551
2.21521
2.21492
2.21465
2.2183
2.21782
2.21776
2.21762
2.2174
2.21715
2.21688
2.2166
2.21631
2.21601
2.21571
2.21542
2.21513
2.21485
2.21458
2.21808
2.2176
2.21755
2.21742
2.21722
2.21699
2.21673
2.21646
2.21618
2.21589
2.21561
2.21533
2.21505
2.21477
2.21451
2.21785
2.21738
2.21734
2.21721
2.21703
2.21681
2.21657
2.21632
2.21605
2.21578
2.2155
2.21523
2.21496
2.21469
2.21444
2.21762
2.21715
2.21712
2.21701
2.21684
2.21663
2.21641
2.21616
2.21591
2.21565
2.21539
2.21512
2.21486
2.21461
2.21435
2.21739
2.21693
2.2169
2.2168
2.21664
2.21645
2.21624
2.21601
2.21577
2.21552
2.21527
2.21501
2.21476
2.21451
2.21427
2.21716
2.21671
2.21669
2.21659
2.21644
2.21626
2.21606
2.21585
2.21562
2.21538
2.21514
2.2149
2.21466
2.21442
2.21418
2.21693
2.21648
2.21647
2.21638
2.21625
2.21608
2.21589
2.21569
2.21547
2.21524
2.21501
2.21478
2.21455
2.21431
2.21409
2.2167
2.21626
2.21625
2.21618
2.21605
2.21589
2.21571
2.21552
2.21531
2.2151
2.21488
2.21466
2.21443
2.21421
2.21399
2.21648
2.21604
2.21604
2.21597
2.21585
2.2157
2.21553
2.21535
2.21516
2.21495
2.21474
2.21453
2.21431
2.2141
2.21389
2.21625
2.21583
2.21582
2.21576
2.21565
2.21551
2.21535
2.21518
2.215
2.2148
2.2146
2.2144
2.21419
2.21398
2.21378
2.21603
2.21561
2.21561
2.21555
2.21545
2.21532
2.21517
2.21501
2.21483
2.21465
2.21446
2.21427
2.21407
2.21387
2.21367
2.21581
2.21539
2.2154
2.21535
2.21525
2.21513
2.21499
2.21484
2.21467
2.2145
2.21432
2.21413
2.21394
2.21375
2.21356
2.21559
2.21518
2.21519
2.21514
2.21505
2.21494
2.21481
2.21466
2.21451
2.21434
2.21417
2.21399
2.21381
2.21363
2.21344
2.21538
2.21497
2.21498
2.21494
2.21485
2.21475
2.21462
2.21449
2.21434
2.21418
2.21402
2.21385
2.21368
2.2135
2.21333
2.21516
2.21477
2.21478
2.21474
2.21466
2.21456
2.21444
2.21431
2.21418
2.21403
2.21387
2.21371
2.21354
2.21338
2.21321
2.21495
2.21456
2.21457
2.21454
2.21446
2.21437
2.21426
2.21414
2.21401
2.21387
2.21372
2.21357
2.21341
2.21325
2.21309
2.21474
2.21436
2.21438
2.21434
2.21427
2.21418
2.21408
2.21397
2.21384
2.21371
2.21357
2.21342
2.21327
2.21312
2.21296
2.21454
2.21416
2.21418
2.21415
2.21408
2.214
2.2139
2.2138
2.21368
2.21355
2.21342
2.21328
2.21313
2.21299
2.21284
2.21434
2.21397
2.21398
2.21396
2.2139
2.21382
2.21373
2.21363
2.21351
2.21339
2.21327
2.21313
2.213
2.21286
2.21271
2.21414
2.21377
2.21379
2.21377
2.21371
2.21364
2.21355
2.21346
2.21335
2.21324
2.21312
2.21299
2.21286
2.21272
2.21259
2.21394
2.21359
2.2136
2.21358
2.21353
2.21346
2.21338
2.21329
2.21319
2.21308
2.21297
2.21285
2.21272
2.21259
2.21246
2.21375
2.2134
2.21342
2.2134
2.21335
2.21328
2.21321
2.21312
2.21303
2.21292
2.21282
2.2127
2.21258
2.21246
2.21233
2.21356
2.21321
2.21324
2.21322
2.21317
2.21311
2.21304
2.21296
2.21287
2.21277
2.21267
2.21256
2.21244
2.21233
2.21221
2.21337
2.21303
2.21306
2.21304
2.213
2.21294
2.21287
2.21279
2.21271
2.21262
2.21252
2.21241
2.21231
2.21219
2.21208
2.21319
2.21286
2.21288
2.21287
2.21282
2.21277
2.2127
2.21263
2.21255
2.21246
2.21237
2.21227
2.21217
2.21206
2.21195
2.21301
2.21268
2.2127
2.21269
2.21265
2.2126
2.21254
2.21247
2.2124
2.21231
2.21222
2.21213
2.21203
2.21193
2.21182
2.21283
2.21251
2.21253
2.21252
2.21249
2.21244
2.21238
2.21231
2.21224
2.21216
2.21208
2.21199
2.2119
2.2118
2.2117
2.21265
2.21234
2.21236
2.21236
2.21232
2.21227
2.21222
2.21216
2.21209
2.21202
2.21194
2.21185
2.21176
2.21167
2.21157
2.21248
2.21217
2.2122
2.21219
2.21216
2.21211
2.21206
2.212
2.21194
2.21187
2.21179
2.21171
2.21163
2.21154
2.21145
2.21231
2.21201
2.21203
2.21203
2.212
2.21196
2.21191
2.21185
2.21179
2.21172
2.21165
2.21157
2.21149
2.21141
2.21132
2.21214
2.21185
2.21187
2.21187
2.21184
2.2118
2.21175
2.2117
2.21164
2.21158
2.21151
2.21144
2.21136
2.21128
2.2112
2.21198
2.21169
2.21171
2.21171
2.21168
2.21165
2.2116
2.21155
2.2115
2.21144
2.21137
2.2113
2.21123
2.21115
2.21107
2.21182
2.21153
2.21156
2.21155
2.21153
2.21149
2.21145
2.21141
2.21135
2.2113
2.21123
2.21117
2.2111
2.21102
2.21095
2.21165
2.21138
2.2114
2.2114
2.21138
2.21134
2.2113
2.21126
2.21121
2.21116
2.2111
2.21103
2.21097
2.2109
2.21082
2.2115
2.21122
2.21125
2.21125
2.21123
2.21119
2.21116
2.21112
2.21107
2.21102
2.21096
2.2109
2.21084
2.21077
2.2107
2.21134
2.21107
2.2111
2.2111
2.21108
2.21105
2.21101
2.21097
2.21093
2.21088
2.21082
2.21077
2.21071
2.21064
2.21058
2.21118
2.21092
2.21095
2.21095
2.21093
2.2109
2.21087
2.21083
2.21079
2.21074
2.21069
2.21064
2.21058
2.21052
2.21045
2.21103
2.21077
2.2108
2.2108
2.21078
2.21075
2.21072
2.21069
2.21065
2.2106
2.21055
2.2105
2.21045
2.21039
2.21033
2.21088
2.21063
2.21065
2.21065
2.21063
2.21061
2.21058
2.21055
2.21051
2.21047
2.21042
2.21037
2.21032
2.21026
2.2102
2.21072
2.21048
2.2105
2.21051
2.21049
2.21046
2.21044
2.2104
2.21037
2.21033
2.21029
2.21024
2.21019
2.21014
2.21008
2.21057
2.21033
2.21036
2.21036
2.21034
2.21032
2.21029
2.21026
2.21023
2.21019
2.21015
2.21011
2.21006
2.21001
2.20996
2.21042
2.21018
2.21021
2.21021
2.2102
2.21018
2.21015
2.21012
2.21009
2.21005
2.21002
2.20997
2.20993
2.20988
2.20983
2.21027
2.21004
2.21006
2.21007
2.21005
2.21003
2.21001
2.20998
2.20995
2.20992
2.20988
2.20984
2.2098
2.20975
2.2097
2.21012
2.20989
2.20992
2.20992
2.20991
2.20989
2.20987
2.20984
2.20981
2.20978
2.20974
2.20971
2.20966
2.20962
2.20957
2.20997
2.20975
2.20977
2.20978
2.20976
2.20974
2.20972
2.2097
2.20967
2.20964
2.20961
2.20957
2.20953
2.20949
2.20945
2.20982
2.2096
2.20962
2.20963
2.20962
2.2096
2.20958
2.20956
2.20953
2.2095
2.20947
2.20943
2.2094
2.20936
2.20931
2.20966
2.20945
2.20947
2.20948
2.20947
2.20945
2.20943
2.20941
2.20939
2.20936
2.20933
2.2093
2.20926
2.20922
2.20918
2.20951
2.2093
2.20933
2.20933
2.20932
2.20931
2.20929
2.20927
2.20924
2.20922
2.20919
2.20916
2.20912
2.20909
2.20905
2.20936
2.20915
2.20918
2.20918
2.20917
2.20916
2.20914
2.20912
2.2091
2.20907
2.20905
2.20902
2.20898
2.20895
2.20891
2.2092
2.209
2.20903
2.20903
2.20902
2.20901
2.20899
2.20898
2.20895
2.20893
2.2089
2.20887
2.20884
2.20881
2.20877
2.20905
2.20885
2.20888
2.20888
2.20887
2.20886
2.20885
2.20883
2.20881
2.20878
2.20876
2.20873
2.2087
2.20867
2.20863
2.20889
2.2087
2.20873
2.20873
2.20872
2.20871
2.2087
2.20868
2.20866
2.20864
2.20861
2.20859
2.20856
2.20853
2.20849
2.20874
2.20855
2.20857
2.20858
2.20857
2.20856
2.20855
2.20853
2.20851
2.20849
2.20847
2.20844
2.20841
2.20838
2.20835
2.20859
2.2084
2.20842
2.20843
2.20842
2.20841
2.2084
2.20838
2.20836
2.20834
2.20832
2.2083
2.20827
2.20824
2.20821
2.20843
2.20825
2.20827
2.20828
2.20827
2.20826
2.20825
2.20823
2.20822
2.2082
2.20817
2.20815
2.20812
2.20809
2.20806
2.20828
2.2081
2.20812
2.20813
2.20812
2.20811
2.2081
2.20809
2.20807
2.20805
2.20803
2.208
2.20798
2.20795
2.20792
2.20813
2.20796
2.20798
2.20798
2.20798
2.20797
2.20795
2.20794
2.20792
2.2079
2.20788
2.20786
2.20783
2.20781
2.20778
2.20798
2.20781
2.20783
2.20784
2.20783
2.20782
2.20781
2.2078
2.20778
2.20776
2.20774
2.20772
2.20769
2.20766
2.20763
2.20784
2.20767
2.20769
2.2077
2.20769
2.20768
2.20767
2.20766
2.20764
2.20762
2.2076
2.20758
2.20755
2.20752
2.2075
2.2077
2.20754
2.20756
2.20757
2.20756
2.20755
2.20754
2.20752
2.20751
2.20749
2.20747
2.20744
2.20742
2.20739
2.20736
2.20758
2.20741
2.20743
2.20744
2.20743
2.20742
2.20741
2.20739
2.20738
2.20736
2.20734
2.20731
2.20729
2.20726
2.20723
2.20746
2.2073
2.20732
2.20732
2.20731
2.2073
2.20729
2.20728
2.20726
2.20724
2.20722
2.20719
2.20717
2.20714
2.20711
2.20735
2.20719
2.20721
2.20721
2.20721
2.2072
2.20718
2.20717
2.20715
2.20713
2.20711
2.20708
2.20705
2.20703
2.20699
2.20725
2.2071
2.20712
2.20712
2.20711
2.2071
2.20709
2.20707
2.20705
2.20703
2.20701
2.20698
2.20696
2.20692
2.20689
2.20718
2.20702
2.20704
2.20704
2.20704
2.20702
2.20701
2.20699
2.20697
2.20695
2.20693
2.2069
2.20687
2.20684
2.2068
2.20712
2.20697
2.20698
2.20699
2.20698
2.20697
2.20695
2.20693
2.20691
2.20689
2.20686
2.20684
2.2068
2.20677
2.20673
2.20709
2.20693
2.20695
2.20695
2.20695
2.20693
2.20692
2.2069
2.20687
2.20685
2.20682
2.20679
2.20676
2.20672
2.20669
2.20708
2.20693
2.20695
2.20695
2.20694
2.20692
2.20691
2.20689
2.20686
2.20684
2.20681
2.20678
2.20674
2.2067
2.20666
2.20711
2.20696
2.20697
2.20697
2.20696
2.20695
2.20693
2.20691
2.20688
2.20685
2.20682
2.20679
2.20675
2.20671
2.20667
2.20717
2.20702
2.20703
2.20704
2.20702
2.20701
2.20699
2.20696
2.20694
2.20691
2.20687
2.20684
2.2068
2.20675
2.20671
2.20728
2.20712
2.20714
2.20714
2.20712
2.20711
2.20708
2.20706
2.20703
2.207
2.20696
2.20692
2.20688
2.20683
2.20678
2.20743
2.20727
2.20729
2.20729
2.20727
2.20725
2.20723
2.2072
2.20717
2.20714
2.2071
2.20706
2.20701
2.20696
2.20691
2.20763
2.20747
2.20749
2.20749
2.20747
2.20745
2.20743
2.2074
2.20736
2.20733
2.20728
2.20724
2.20719
2.20713
2.20708
2.2079
2.20773
2.20775
2.20775
2.20773
2.20771
2.20768
2.20765
2.20761
2.20757
2.20753
2.20748
2.20743
2.20737
2.20731
2.20822
2.20806
2.20807
2.20807
2.20805
2.20802
2.208
2.20796
2.20792
2.20788
2.20783
2.20778
2.20773
2.20766
2.2076
2.20862
2.20845
2.20846
2.20846
2.20844
2.20841
2.20838
2.20835
2.20831
2.20826
2.20821
2.20816
2.2081
2.20803
2.20796
2.20908
2.20891
2.20892
2.20892
2.2089
2.20887
2.20884
2.2088
2.20876
2.20871
2.20866
2.2086
2.20854
2.20847
2.2084
2.20963
2.20945
2.20946
2.20946
2.20943
2.20941
2.20937
2.20934
2.20929
2.20924
2.20919
2.20913
2.20906
2.20899
2.20892
2.21025
2.21006
2.21007
2.21007
2.21005
2.21002
2.20999
2.20995
2.2099
2.20985
2.2098
2.20974
2.20967
2.2096
2.20952
2.21095
2.21075
2.21077
2.21076
2.21074
2.21072
2.21068
2.21064
2.2106
2.21055
2.2105
2.21043
2.21037
2.21029
2.21021
2.21172
2.21152
2.21153
2.21153
2.21151
2.21148
2.21145
2.21142
2.21137
2.21133
2.21127
2.21121
2.21115
2.21108
2.211
2.21255
2.21235
2.21236
2.21236
2.21235
2.21232
2.21229
2.21226
2.21222
2.21218
2.21213
2.21208
2.21202
2.21195
2.21188
2.21343
2.21322
2.21324
2.21324
2.21323
2.21321
2.21319
2.21316
2.21313
2.2131
2.21306
2.21301
2.21296
2.2129
2.21284
2.21433
2.21412
2.21414
2.21415
2.21414
2.21413
2.21412
2.21411
2.21409
2.21406
2.21404
2.21401
2.21397
2.21393
2.21388
2.2152
2.215
2.21502
2.21504
2.21504
2.21505
2.21505
2.21505
2.21505
2.21505
2.21504
2.21503
2.21502
2.215
2.21498
2.216
2.2158
2.21584
2.21586
2.21588
2.2159
2.21593
2.21595
2.21598
2.21601
2.21603
2.21606
2.21608
2.2161
2.21611
2.21663
2.21645
2.2165
2.21654
2.21658
2.21662
2.21668
2.21674
2.21681
2.21688
2.21695
2.21702
2.21709
2.21716
2.21722
2.21697
2.21683
2.21688
2.21695
2.21702
2.2171
2.21721
2.21732
2.21744
2.21757
2.21771
2.21785
2.21799
2.21813
2.21827
2.21685
2.21676
2.21683
2.21693
2.21704
2.21718
2.21734
2.21753
2.21773
2.21795
2.21818
2.21842
2.21866
2.21891
2.21915
2.21599
2.21599
2.21609
2.21622
2.2164
2.21662
2.21688
2.21717
2.21749
2.21784
2.2182