/*--------------------------------*- C++ -*----------------------------------*\
  =========                 |
  \\      /  F ield         | OpenFOAM: The Open Source CFD Toolbox
   \\    /   O peration     | Website:  https://openfoam.org
    \\  /    A nd           | Version:  7
     \\/     M anipulation  |
\*---------------------------------------------------------------------------*/
FoamFile
{
    version     2.0;
    format      ascii;
    class       volScalarField;
    location    "500";
    object      p_tot;
}
// * * * * * * * * * * * * * * * * * * * * * * * * * * * * * * * * * * * * * //

dimensions      [0 2 -2 0 0 0 0];

internalField   nonuniform List<scalar> 
32100
(
3.154
3.15402
3.15406
3.15412
3.1542
3.15428
3.15435
3.15439
3.15435
3.15414
3.15352
3.15222
3.14638
3.11776
3.24064
3.14295
3.14297
3.14302
3.14308
3.14315
3.14324
3.14332
3.14338
3.14338
3.14325
3.14277
3.14208
3.14566
3.11189
3.20856
3.13188
3.1319
3.13195
3.13201
3.1321
3.1322
3.1323
3.13241
3.13249
3.13258
3.13264
3.13178
3.14279
3.10906
3.17672
3.12079
3.12081
3.12086
3.12093
3.12103
3.12115
3.12129
3.12145
3.12164
3.12191
3.12265
3.12077
3.13456
3.105
3.15303
3.10967
3.1097
3.10975
3.10983
3.10994
3.11008
3.11025
3.11047
3.11075
3.11105
3.11235
3.1095
3.12349
3.09834
3.1351
3.09853
3.09856
3.09861
3.0987
3.09882
3.09898
3.09918
3.09943
3.09977
3.10001
3.10171
3.09835
3.11169
3.08969
3.11943
3.08736
3.08739
3.08745
3.08755
3.08767
3.08784
3.08806
3.08833
3.08873
3.08886
3.09081
3.08724
3.09975
3.08003
3.10469
3.07616
3.0762
3.07626
3.07636
3.07649
3.07667
3.0769
3.07716
3.07761
3.07765
3.07972
3.07607
3.08771
3.07006
3.09058
3.06494
3.06498
3.06504
3.06514
3.06528
3.06546
3.06569
3.06595
3.06643
3.06638
3.06848
3.06483
3.0756
3.05992
3.07704
3.05368
3.05372
3.05378
3.05388
3.05402
3.0542
3.05444
3.05468
3.05517
3.05505
3.05714
3.05355
3.06345
3.04958
3.06395
3.0424
3.04244
3.0425
3.0426
3.04273
3.04291
3.04314
3.04336
3.04386
3.04368
3.04571
3.04224
3.05129
3.03904
3.05118
3.03108
3.03112
3.03118
3.03128
3.03141
3.03158
3.03181
3.032
3.0325
3.03227
3.03423
3.03092
3.03917
3.02833
3.03863
3.01973
3.01977
3.01983
3.01993
3.02005
3.02021
3.02043
3.02061
3.0211
3.02083
3.0227
3.01957
3.02707
3.01749
3.02627
3.00836
3.0084
3.00845
3.00854
3.00867
3.00882
3.00903
3.00918
3.00965
3.00937
3.01113
3.00819
3.01502
3.00654
3.01404
2.99695
2.997
2.99704
2.99713
2.99725
2.99739
2.99759
2.99772
2.99818
2.99788
2.99954
2.9968
3.00299
2.99549
3.00193
2.98552
2.98557
2.98561
2.98569
2.98581
2.98594
2.98613
2.98624
2.98667
2.98637
2.98793
2.98538
2.99101
2.98436
2.9899
2.97407
2.97411
2.97415
2.97423
2.97434
2.97446
2.97464
2.97474
2.97515
2.97485
2.9763
2.97394
2.97905
2.97316
2.97793
2.96259
2.96263
2.96267
2.96274
2.96284
2.96295
2.96312
2.96321
2.9636
2.96331
2.96466
2.96248
2.96712
2.9619
2.96602
2.95109
2.95113
2.95117
2.95124
2.95133
2.95143
2.95159
2.95166
2.95203
2.95175
2.95301
2.95101
2.95521
2.95059
2.95415
2.93957
2.93961
2.93964
2.93971
2.93979
2.93989
2.94004
2.9401
2.94045
2.94018
2.94135
2.93951
2.94332
2.93923
2.9423
2.92803
2.92807
2.9281
2.92816
2.92824
2.92832
2.92847
2.92852
2.92885
2.92859
2.92968
2.92799
2.93146
2.92783
2.93048
2.91647
2.91651
2.91654
2.91659
2.91667
2.91675
2.91688
2.91693
2.91723
2.91699
2.918
2.91646
2.9196
2.91639
2.91868
2.9049
2.90493
2.90496
2.90501
2.90508
2.90515
2.90528
2.90532
2.90561
2.90538
2.90632
2.90491
2.90776
2.90492
2.90689
2.8933
2.89334
2.89336
2.89341
2.89348
2.89354
2.89366
2.8937
2.89397
2.89376
2.89463
2.89334
2.89593
2.89342
2.89511
2.8817
2.88174
2.88175
2.8818
2.88186
2.88192
2.88203
2.88207
2.88232
2.88212
2.88293
2.88176
2.88411
2.88189
2.88334
2.87008
2.87011
2.87013
2.87017
2.87023
2.87029
2.87039
2.87043
2.87066
2.87048
2.87123
2.87016
2.87229
2.87034
2.87158
2.85845
2.85848
2.8585
2.85854
2.85859
2.85864
2.85874
2.85877
2.85899
2.85882
2.85952
2.85855
2.86048
2.85876
2.85982
2.8468
2.84684
2.84685
2.84689
2.84694
2.84699
2.84708
2.84711
2.84731
2.84716
2.8478
2.84693
2.84868
2.84717
2.84805
2.83514
2.83518
2.83519
2.83523
2.83527
2.83532
2.83541
2.83543
2.83563
2.83549
2.83608
2.83529
2.83688
2.83556
2.83629
2.82348
2.82351
2.82352
2.82356
2.8236
2.82364
2.82373
2.82375
2.82393
2.82381
2.82436
2.82365
2.82508
2.82393
2.82453
2.8118
2.81183
2.81184
2.81187
2.81192
2.81196
2.81203
2.81206
2.81223
2.81211
2.81262
2.81199
2.81328
2.81229
2.81277
2.80011
2.80015
2.80015
2.80018
2.80022
2.80026
2.80034
2.80036
2.80052
2.80041
2.80089
2.80032
2.80148
2.80063
2.80101
2.78842
2.78845
2.78846
2.78849
2.78852
2.78856
2.78863
2.78865
2.7888
2.78871
2.78915
2.78863
2.78968
2.78896
2.78924
2.77671
2.77675
2.77675
2.77678
2.77681
2.77685
2.77691
2.77694
2.77707
2.77699
2.7774
2.77694
2.77788
2.77727
2.77747
2.765
2.76503
2.76504
2.76506
2.7651
2.76513
2.76519
2.76521
2.76534
2.76527
2.76565
2.76524
2.76609
2.76557
2.7657
2.75328
2.75331
2.75332
2.75334
2.75337
2.7534
2.75346
2.75348
2.75361
2.75354
2.75389
2.75353
2.75429
2.75387
2.75393
2.74155
2.74159
2.74159
2.74161
2.74164
2.74167
2.74173
2.74175
2.74186
2.74181
2.74212
2.74181
2.74248
2.74215
2.74215
2.72982
2.72985
2.72985
2.72988
2.7299
2.72993
2.72998
2.73
2.73011
2.73006
2.73036
2.73009
2.73068
2.73042
2.73037
2.71808
2.71811
2.71811
2.71813
2.71816
2.71819
2.71823
2.71826
2.71836
2.71831
2.71858
2.71835
2.71888
2.71868
2.71859
2.70633
2.70636
2.70636
2.70638
2.70641
2.70643
2.70648
2.7065
2.70659
2.70656
2.70681
2.70661
2.70707
2.70694
2.7068
2.69458
2.69461
2.69461
2.69463
2.69465
2.69468
2.69472
2.69474
2.69483
2.6948
2.69503
2.69486
2.69526
2.69518
2.69501
2.68282
2.68285
2.68285
2.68287
2.68289
2.68291
2.68295
2.68297
2.68306
2.68303
2.68324
2.68311
2.68345
2.68342
2.68321
2.67106
2.67109
2.67109
2.6711
2.67112
2.67115
2.67118
2.6712
2.67128
2.67126
2.67145
2.67134
2.67164
2.67165
2.67141
2.65929
2.65932
2.65932
2.65933
2.65935
2.65937
2.65941
2.65943
2.6595
2.65949
2.65966
2.65958
2.65983
2.65988
2.65961
2.64751
2.64755
2.64754
2.64756
2.64758
2.6476
2.64763
2.64765
2.64771
2.64771
2.64786
2.6478
2.64801
2.64809
2.64781
2.63574
2.63577
2.63576
2.63578
2.6358
2.63582
2.63585
2.63586
2.63593
2.63592
2.63606
2.63602
2.63619
2.63631
2.636
2.62395
2.62399
2.62398
2.624
2.62401
2.62403
2.62406
2.62408
2.62413
2.62413
2.62426
2.62424
2.62437
2.62452
2.62419
2.61217
2.6122
2.61219
2.61221
2.61222
2.61224
2.61227
2.61228
2.61234
2.61234
2.61245
2.61245
2.61255
2.61272
2.61238
2.60038
2.60041
2.6004
2.60042
2.60043
2.60045
2.60047
2.60049
2.60054
2.60054
2.60065
2.60066
2.60073
2.60092
2.60056
2.58858
2.58862
2.58861
2.58862
2.58863
2.58865
2.58867
2.58869
2.58873
2.58874
2.58883
2.58886
2.5889
2.58911
2.58874
2.57679
2.57682
2.57681
2.57682
2.57684
2.57685
2.57687
2.57689
2.57693
2.57694
2.57702
2.57706
2.57707
2.5773
2.57692
2.56499
2.56502
2.56501
2.56502
2.56503
2.56505
2.56507
2.56508
2.56512
2.56513
2.5652
2.56525
2.56525
2.56549
2.5651
2.55318
2.55322
2.55321
2.55322
2.55323
2.55324
2.55326
2.55327
2.55331
2.55332
2.55338
2.55345
2.55342
2.55367
2.55328
2.54138
2.54141
2.5414
2.54141
2.54142
2.54143
2.54145
2.54146
2.54149
2.54151
2.54156
2.54163
2.54158
2.54185
2.54145
2.52957
2.5296
2.52959
2.5296
2.52961
2.52962
2.52964
2.52965
2.52968
2.5297
2.52974
2.52982
2.52975
2.53003
2.52962
2.51776
2.51779
2.51778
2.51779
2.5178
2.51781
2.51782
2.51783
2.51786
2.51788
2.51791
2.518
2.51792
2.5182
2.51779
2.50595
2.50598
2.50597
2.50598
2.50598
2.50599
2.506
2.50601
2.50604
2.50606
2.50609
2.50619
2.50609
2.50637
2.50596
2.49413
2.49416
2.49415
2.49416
2.49417
2.49417
2.49418
2.4942
2.49421
2.49424
2.49426
2.49436
2.49425
2.49454
2.49413
2.48231
2.48235
2.48233
2.48234
2.48235
2.48235
2.48236
2.48237
2.48239
2.48242
2.48243
2.48254
2.48241
2.48271
2.4823
2.4705
2.47053
2.47052
2.47052
2.47053
2.47053
2.47054
2.47055
2.47057
2.47059
2.4706
2.47072
2.47058
2.47088
2.47047
2.45868
2.45871
2.4587
2.4587
2.45871
2.45871
2.45872
2.45873
2.45874
2.45877
2.45877
2.45889
2.45874
2.45904
2.45863
2.44686
2.44689
2.44688
2.44688
2.44688
2.44689
2.44689
2.4469
2.44691
2.44694
2.44693
2.44706
2.44691
2.44721
2.4468
2.43504
2.43507
2.43505
2.43506
2.43506
2.43506
2.43507
2.43507
2.43508
2.43511
2.4351
2.43523
2.43507
2.43537
2.43497
2.42321
2.42324
2.42323
2.42323
2.42323
2.42324
2.42324
2.42325
2.42325
2.42328
2.42327
2.4234
2.42323
2.42354
2.42313
2.41139
2.41142
2.41141
2.41141
2.41141
2.41141
2.41141
2.41142
2.41142
2.41145
2.41143
2.41157
2.41139
2.4117
2.4113
2.39957
2.3996
2.39958
2.39959
2.39958
2.39958
2.39958
2.39959
2.39959
2.39962
2.3996
2.39974
2.39956
2.39986
2.39947
2.38775
2.38778
2.38776
2.38776
2.38776
2.38775
2.38775
2.38775
2.38775
2.38779
2.38776
2.38791
2.38772
2.38803
2.38764
2.37592
2.37595
2.37594
2.37594
2.37593
2.37592
2.37592
2.37592
2.37592
2.37595
2.37592
2.37607
2.37589
2.37619
2.37581
2.3641
2.36413
2.36411
2.36411
2.3641
2.3641
2.36409
2.36409
2.36408
2.36412
2.36409
2.36424
2.36405
2.36436
2.36399
2.35228
2.35231
2.35229
2.35229
2.35228
2.35227
2.35226
2.35225
2.35225
2.35228
2.35225
2.3524
2.35221
2.35252
2.35216
2.34047
2.34049
2.34047
2.34047
2.34045
2.34044
2.34042
2.34042
2.34041
2.34044
2.3404
2.34056
2.34038
2.34069
2.34035
2.32865
2.32868
2.32865
2.32865
2.32863
2.32861
2.32859
2.32858
2.32856
2.32859
2.32856
2.32872
2.32854
2.32885
2.32854
2.31684
2.31687
2.31684
2.31683
2.31681
2.31678
2.31676
2.31674
2.31672
2.31675
2.3167
2.31687
2.3167
2.31702
2.31673
2.30504
2.30506
2.30503
2.30502
2.30499
2.30496
2.30493
2.3049
2.30487
2.30489
2.30485
2.30502
2.30485
2.30518
2.30494
2.29324
2.29326
2.29323
2.29321
2.29317
2.29314
2.2931
2.29306
2.29302
2.29303
2.29298
2.29315
2.293
2.29335
2.29317
2.28145
2.28147
2.28143
2.28141
2.28137
2.28132
2.28127
2.28122
2.28117
2.28117
2.2811
2.28127
2.28113
2.2815
2.28143
2.26967
2.26968
2.26965
2.26961
2.26956
2.26951
2.26944
2.26938
2.26931
2.26929
2.26921
2.26936
2.26923
2.26963
2.2697
2.2579
2.25791
2.25787
2.25783
2.25777
2.2577
2.25762
2.25755
2.25745
2.25741
2.2573
2.25743
2.25731
2.25774
2.25808
2.24614
2.24615
2.2461
2.24606
2.24599
2.24591
2.24581
2.24571
2.24559
2.24552
2.24537
2.24545
2.24531
2.24573
2.24632
2.2344
2.23441
2.23436
2.2343
2.23422
2.23413
2.23402
2.23389
2.23374
2.23362
2.23343
2.23343
2.23328
2.23374
2.23538
2.1996
2.19959
2.19954
2.19946
2.19936
2.19922
2.19906
2.19886
2.19862
2.19835
2.19801
2.19762
2.19705
2.19631
2.19342
2.14211
2.14209
2.14202
2.14192
2.14178
2.1416
2.14137
2.14109
2.14075
2.14035
2.13985
2.13923
2.13839
2.1382
2.13974
2.08546
2.08544
2.08537
2.08528
2.08516
2.08501
2.08482
2.08461
2.08436
2.08409
2.08381
2.08354
2.08297
2.08234
2.0836
2.02961
2.0296
2.02956
2.0295
2.02943
2.02933
2.02923
2.02911
2.02897
2.02883
2.02869
2.02862
2.02842
2.02783
2.0278
1.97422
1.97421
1.97419
1.97415
1.9741
1.97403
1.97396
1.97387
1.97377
1.97365
1.9735
1.97338
1.97328
1.97287
1.97169
1.91906
1.91905
1.91903
1.919
1.91896
1.91891
1.91884
1.91877
1.91869
1.91861
1.91849
1.91837
1.91839
1.9184
1.91661
1.86409
1.86409
1.86407
1.86405
1.86402
1.86399
1.86394
1.8639
1.86385
1.8638
1.86373
1.86361
1.8636
1.86375
1.86169
1.80931
1.80931
1.8093
1.80929
1.80927
1.80925
1.80922
1.80919
1.80915
1.80912
1.80908
1.80898
1.80896
1.80905
1.80689
1.75465
1.75464
1.75464
1.75463
1.75462
1.7546
1.75458
1.75456
1.75454
1.75451
1.75449
1.75441
1.75444
1.75434
1.75226
1.70004
1.70004
1.70004
1.70003
1.70002
1.70001
1.7
1.69999
1.69997
1.69996
1.69994
1.69987
1.69997
1.69961
1.69774
1.64549
1.64549
1.64548
1.64548
1.64548
1.64547
1.64546
1.64545
1.64544
1.64543
1.64541
1.64536
1.6455
1.64485
1.64325
1.59096
1.59096
1.59096
1.59096
1.59096
1.59095
1.59095
1.59094
1.59093
1.59092
1.5909
1.59086
1.59102
1.59013
1.58878
1.53646
1.53646
1.53646
1.53646
1.53646
1.53645
1.53645
1.53645
1.53644
1.53644
1.53642
1.5364
1.53652
1.53546
1.53431
1.48197
1.48197
1.48197
1.48197
1.48197
1.48197
1.48196
1.48196
1.48196
1.48196
1.48193
1.48195
1.48196
1.48084
1.47984
1.42748
1.42748
1.42748
1.42748
1.42748
1.42748
1.42748
1.42748
1.42747
1.42746
1.42744
1.42749
1.42734
1.42625
1.42536
1.373
1.373
1.373
1.373
1.373
1.373
1.37299
1.37299
1.37299
1.37298
1.37296
1.37304
1.37272
1.3717
1.37084
1.31852
1.31852
1.31852
1.31852
1.31852
1.31852
1.31852
1.31851
1.31851
1.3185
1.31848
1.31858
1.31809
1.31717
1.31633
1.26404
1.26404
1.26404
1.26404
1.26404
1.26404
1.26404
1.26404
1.26403
1.26402
1.26401
1.26409
1.26347
1.26265
1.26183
1.20957
1.20957
1.20957
1.20957
1.20957
1.20957
1.20957
1.20956
1.20956
1.20954
1.20956
1.20956
1.20887
1.20812
1.20733
1.1551
1.1551
1.15509
1.15509
1.15509
1.15509
1.15509
1.15509
1.15508
1.15506
1.15511
1.15501
1.1543
1.1536
1.15283
1.10062
1.10062
1.10062
1.10062
1.10062
1.10062
1.10062
1.10062
1.10061
1.10059
1.10065
1.10044
1.09974
1.09907
1.09832
1.04615
1.04615
1.04615
1.04615
1.04615
1.04615
1.04615
1.04615
1.04613
1.04613
1.04619
1.04587
1.0452
1.04454
1.04382
0.991687
0.991687
0.991687
0.991686
0.991685
0.991685
0.991684
0.99168
0.991665
0.991668
0.991707
0.991292
0.990674
0.990025
0.989325
0.937222
0.937222
0.937222
0.937222
0.937221
0.93722
0.937219
0.937213
0.937199
0.937216
0.937203
0.936725
0.936148
0.935514
0.934834
0.88276
0.88276
0.882759
0.882759
0.882759
0.882758
0.882756
0.882749
0.882736
0.882769
0.882685
0.882178
0.881623
0.880999
0.880339
0.828299
0.828299
0.828299
0.828299
0.828298
0.828298
0.828296
0.828287
0.828279
0.82832
0.828153
0.827644
0.827099
0.826487
0.825846
0.77384
0.77384
0.77384
0.77384
0.77384
0.773839
0.773837
0.773826
0.773825
0.773862
0.773615
0.773116
0.772577
0.771978
0.771355
0.719382
0.719382
0.719382
0.719382
0.719382
0.719381
0.719378
0.719367
0.719376
0.719388
0.719074
0.718592
0.718058
0.71747
0.716863
0.664924
0.664924
0.664924
0.664924
0.664924
0.664924
0.664919
0.664909
0.664929
0.664897
0.664535
0.664067
0.663538
0.662961
0.662371
0.610466
0.610466
0.610466
0.610466
0.610466
0.610465
0.610459
0.610452
0.610479
0.61039
0.610001
0.609541
0.609017
0.608451
0.607875
0.556008
0.556008
0.556008
0.556008
0.556008
0.556006
0.555999
0.555997
0.556024
0.555872
0.555472
0.555014
0.554495
0.55394
0.553379
0.501549
0.501549
0.501549
0.50155
0.501549
0.501547
0.501539
0.501544
0.501559
0.501347
0.500947
0.500487
0.499972
0.499428
0.498882
0.44709
0.44709
0.44709
0.44709
0.44709
0.447087
0.44708
0.447091
0.447078
0.446815
0.446417
0.445959
0.445452
0.444918
0.444384
0.39263
0.39263
0.39263
0.39263
0.39263
0.392625
0.392619
0.392637
0.392583
0.392283
0.391886
0.39143
0.390929
0.390407
0.389884
0.338171
0.33817
0.338171
0.338171
0.338169
0.338164
0.338161
0.33818
0.338078
0.337756
0.337358
0.336901
0.336404
0.335892
0.335382
0.283711
0.283711
0.283711
0.283711
0.283709
0.283703
0.283706
0.283717
0.283564
0.283229
0.282827
0.282371
0.281881
0.281378
0.28088
0.229252
0.229252
0.229252
0.229252
0.229249
0.229244
0.229251
0.229243
0.229043
0.228701
0.228296
0.227842
0.227358
0.226865
0.226377
0.174793
0.174793
0.174793
0.174792
0.174789
0.174785
0.174796
0.174758
0.17452
0.174172
0.173764
0.173311
0.172834
0.17235
0.171873
0.120334
0.120334
0.120334
0.120333
0.120329
0.120327
0.120339
0.120262
0.119995
0.119642
0.119231
0.118781
0.11831
0.117835
0.117368
0.065876
0.0658753
0.0658756
0.0658742
0.0658698
0.0658714
0.0658773
0.065757
0.0654701
0.0651103
0.0646979
0.0642504
0.0637863
0.0633201
0.0628626
0.0114187
0.0114178
0.011418
0.0114161
0.0114121
0.0114176
0.0114076
0.011245
0.0109447
0.010579
0.0101643
0.00971921
0.00926162
0.00880404
0.00835603
-0.0430382
-0.0430393
-0.0430392
-0.0430417
-0.0430446
-0.0430366
-0.0430718
-0.043272
-0.0435835
-0.0439552
-0.0443704
-0.0448116
-0.045263
-0.0457127
-0.0461518
-0.0974945
-0.0974959
-0.0974961
-0.0974991
-0.0975002
-0.0974934
-0.097562
-0.0977934
-0.0981153
-0.098492
-0.0989063
-0.0993423
-0.0997871
-0.100229
-0.10066
-0.151949
-0.151951
-0.151952
-0.151955
-0.151953
-0.151954
-0.152061
-0.152316
-0.152646
-0.153027
-0.153442
-0.153875
-0.154313
-0.154747
-0.15517
-0.206402
-0.206404
-0.206405
-0.206408
-0.206404
-0.20642
-0.206566
-0.206839
-0.207178
-0.207563
-0.207978
-0.208407
-0.20884
-0.209266
-0.209681
-0.260853
-0.260856
-0.260857
-0.260859
-0.260855
-0.260895
-0.261077
-0.261365
-0.261713
-0.262101
-0.262515
-0.26294
-0.263366
-0.263786
-0.264193
-0.315302
-0.315306
-0.315307
-0.315307
-0.315307
-0.315379
-0.315591
-0.315893
-0.316248
-0.31664
-0.317052
-0.317473
-0.317894
-0.318306
-0.318706
-0.369748
-0.369753
-0.369754
-0.369753
-0.369763
-0.369871
-0.37011
-0.370424
-0.370786
-0.371179
-0.37159
-0.372006
-0.372421
-0.372827
-0.37322
-0.42419
-0.424197
-0.424198
-0.424197
-0.424225
-0.42437
-0.42463
-0.424956
-0.425323
-0.425719
-0.426128
-0.426541
-0.42695
-0.427349
-0.427736
-0.478629
-0.478637
-0.478637
-0.47864
-0.478694
-0.478874
-0.479153
-0.479489
-0.479862
-0.480259
-0.480667
-0.481075
-0.481479
-0.481872
-0.482252
-0.533063
-0.533074
-0.533073
-0.533085
-0.533172
-0.533385
-0.533681
-0.534027
-0.534405
-0.534801
-0.535204
-0.535609
-0.536007
-0.536395
-0.536769
-0.587491
-0.587504
-0.587505
-0.587533
-0.587657
-0.587898
-0.58821
-0.588565
-0.588946
-0.589342
-0.589743
-0.590143
-0.590536
-0.590919
-0.591287
-0.64191
-0.641928
-0.641933
-0.641985
-0.642148
-0.642414
-0.642739
-0.643101
-0.643487
-0.643883
-0.644283
-0.644679
-0.645067
-0.645443
-0.645805
-0.69632
-0.696344
-0.696359
-0.696444
-0.696643
-0.696931
-0.69727
-0.697639
-0.698028
-0.698425
-0.698822
-0.699214
-0.699597
-0.699968
-0.700325
-0.750718
-0.750754
-0.750786
-0.750909
-0.751143
-0.751451
-0.751802
-0.752178
-0.752569
-0.752965
-0.75336
-0.753748
-0.754127
-0.754494
-0.754846
-0.805104
-0.805157
-0.805216
-0.80538
-0.805646
-0.805972
-0.806333
-0.806716
-0.807109
-0.807506
-0.807898
-0.808283
-0.808658
-0.80902
-0.809367
-0.859476
-0.859557
-0.859649
-0.859856
-0.86015
-0.860493
-0.860865
-0.861254
-0.86165
-0.862045
-0.862436
-0.862818
-0.863189
-0.863546
-0.863889
-0.913839
-0.913958
-0.91409
-0.914337
-0.914657
-0.915018
-0.9154
-0.915794
-0.91619
-0.916583
-0.916972
-0.917351
-0.917718
-0.918072
-0.918411
-0.968196
-0.968365
-0.968537
-0.968821
-0.969166
-0.969541
-0.969932
-0.97033
-0.970728
-0.971122
-0.971508
-0.971884
-0.972248
-0.972598
-0.972933
-1.02255
-1.02278
-1.02299
-1.02331
-1.02367
-1.02406
-1.02446
-1.02486
-1.02527
-1.02566
-1.02604
-1.02642
-1.02678
-1.02712
-1.02746
-1.07693
-1.07721
-1.07745
-1.0778
-1.07818
-1.07858
-1.07899
-1.0794
-1.0798
-1.0802
-1.08058
-1.08095
-1.08131
-1.08165
-1.08198
-1.13132
-1.13166
-1.13192
-1.13229
-1.13269
-1.1331
-1.13352
-1.13393
-1.13434
-1.13473
-1.13511
-1.13548
-1.13584
-1.13618
-1.1365
-1.18575
-1.18613
-1.18641
-1.18679
-1.18721
-1.18763
-1.18805
-1.18846
-1.18887
-1.18926
-1.18965
-1.19001
-1.19037
-1.19071
-1.19103
-1.24021
-1.24063
-1.24091
-1.2413
-1.24173
-1.24216
-1.24258
-1.243
-1.2434
-1.2438
-1.24418
-1.24455
-1.2449
-1.24523
-1.24555
-1.2947
-1.29515
-1.29543
-1.29582
-1.29625
-1.29669
-1.29711
-1.29753
-1.29794
-1.29833
-1.29871
-1.29908
-1.29943
-1.29976
-1.30008
-1.34924
-1.3497
-1.34997
-1.35036
-1.35078
-1.35122
-1.35165
-1.35207
-1.35248
-1.35287
-1.35325
-1.35361
-1.35396
-1.35429
-1.35461
-1.4038
-1.40428
-1.40453
-1.40491
-1.40533
-1.40576
-1.40619
-1.40661
-1.40701
-1.40741
-1.40778
-1.40814
-1.40849
-1.40882
-1.40913
-1.4584
-1.45889
-1.45912
-1.45948
-1.45989
-1.46032
-1.46074
-1.46115
-1.46155
-1.46194
-1.46232
-1.46268
-1.46302
-1.46335
-1.46366
-1.51301
-1.51351
-1.51373
-1.51406
-1.51446
-1.51488
-1.51529
-1.5157
-1.5161
-1.51649
-1.51686
-1.51722
-1.51756
-1.51788
-1.51819
-1.56765
-1.56815
-1.56835
-1.56866
-1.56904
-1.56945
-1.56986
-1.57026
-1.57065
-1.57104
-1.5714
-1.57176
-1.5721
-1.57242
-1.57273
-1.62231
-1.62282
-1.62299
-1.62328
-1.62365
-1.62403
-1.62443
-1.62482
-1.62521
-1.62559
-1.62595
-1.6263
-1.62664
-1.62696
-1.62726
-1.67699
-1.67749
-1.67764
-1.67792
-1.67826
-1.67863
-1.67901
-1.6794
-1.67977
-1.68014
-1.6805
-1.68085
-1.68118
-1.6815
-1.6818
-1.73167
-1.73217
-1.73231
-1.73256
-1.73288
-1.73324
-1.73361
-1.73398
-1.73435
-1.73471
-1.73506
-1.7354
-1.73573
-1.73604
-1.73634
-1.78637
-1.78687
-1.78699
-1.78722
-1.78752
-1.78786
-1.78821
-1.78857
-1.78893
-1.78928
-1.78962
-1.78996
-1.79028
-1.79059
-1.79088
-1.84107
-1.84157
-1.84168
-1.84189
-1.84217
-1.84249
-1.84282
-1.84317
-1.84351
-1.84386
-1.84419
-1.84452
-1.84484
-1.84514
-1.84543
-1.89578
-1.89628
-1.89637
-1.89656
-1.89683
-1.89713
-1.89745
-1.89778
-1.89811
-1.89844
-1.89877
-1.89909
-1.8994
-1.8997
-1.89998
-1.9505
-1.95099
-1.95107
-1.95125
-1.95149
-1.95177
-1.95208
-1.95239
-1.95271
-1.95304
-1.95335
-1.95366
-1.95397
-1.95426
-1.95454
-2.00522
-2.00571
-2.00578
-2.00594
-2.00617
-2.00643
-2.00672
-2.00702
-2.00733
-2.00763
-2.00794
-2.00824
-2.00854
-2.00883
-2.0091
-2.05995
-2.06043
-2.06049
-2.06063
-2.06085
-2.0611
-2.06137
-2.06165
-2.06194
-2.06224
-2.06254
-2.06283
-2.06312
-2.0634
-2.06367
-2.11467
-2.11515
-2.1152
-2.11533
-2.11553
-2.11576
-2.11602
-2.11629
-2.11657
-2.11686
-2.11714
-2.11742
-2.1177
-2.11798
-2.11824
-2.1694
-2.16987
-2.16991
-2.17004
-2.17022
-2.17044
-2.17068
-2.17093
-2.1712
-2.17147
-2.17175
-2.17202
-2.17229
-2.17256
-2.17281
-2.22413
-2.2246
-2.22463
-2.22474
-2.22491
-2.22512
-2.22534
-2.22559
-2.22584
-2.2261
-2.22636
-2.22663
-2.22689
-2.22714
-2.2274
-2.27886
-2.27932
-2.27935
-2.27945
-2.27961
-2.2798
-2.28001
-2.28024
-2.28048
-2.28073
-2.28098
-2.28124
-2.28149
-2.28174
-2.28198
-2.33359
-2.33404
-2.33406
-2.33416
-2.33431
-2.33449
-2.33469
-2.3349
-2.33513
-2.33537
-2.33561
-2.33585
-2.33609
-2.33633
-2.33657
-2.38832
-2.38877
-2.38878
-2.38887
-2.389
-2.38917
-2.38936
-2.38956
-2.38978
-2.39001
-2.39024
-2.39047
-2.3907
-2.39094
-2.39116
-2.44305
-2.44349
-2.4435
-2.44357
-2.4437
-2.44386
-2.44404
-2.44423
-2.44444
-2.44465
-2.44487
-2.44509
-2.44532
-2.44554
-2.44576
-2.49777
-2.49821
-2.49821
-2.49828
-2.4984
-2.49855
-2.49872
-2.4989
-2.49909
-2.4993
-2.49951
-2.49972
-2.49994
-2.50015
-2.50036
-2.5525
-2.55292
-2.55293
-2.55299
-2.5531
-2.55324
-2.5534
-2.55357
-2.55375
-2.55395
-2.55415
-2.55435
-2.55456
-2.55477
-2.55497
-2.60722
-2.60764
-2.60764
-2.6077
-2.6078
-2.60793
-2.60808
-2.60824
-2.60842
-2.6086
-2.60879
-2.60898
-2.60918
-2.60938
-2.60958
-2.66194
-2.66236
-2.66235
-2.6624
-2.6625
-2.66262
-2.66276
-2.66291
-2.66308
-2.66325
-2.66343
-2.66362
-2.66381
-2.664
-2.66419
-2.71666
-2.71707
-2.71706
-2.71711
-2.7172
-2.71731
-2.71744
-2.71759
-2.71774
-2.71791
-2.71808
-2.71826
-2.71844
-2.71862
-2.71881
-2.77137
-2.77178
-2.77177
-2.77181
-2.7719
-2.772
-2.77213
-2.77226
-2.77241
-2.77257
-2.77273
-2.7729
-2.77307
-2.77325
-2.77342
-2.82609
-2.82648
-2.82647
-2.82651
-2.82659
-2.82669
-2.82681
-2.82694
-2.82707
-2.82722
-2.82738
-2.82754
-2.82771
-2.82787
-2.82804
-2.8808
-2.88119
-2.88118
-2.88121
-2.88129
-2.88138
-2.88149
-2.88161
-2.88174
-2.88188
-2.88203
-2.88218
-2.88234
-2.8825
-2.88266
-2.93551
-2.93589
-2.93587
-2.93591
-2.93598
-2.93607
-2.93617
-2.93628
-2.93641
-2.93654
-2.93668
-2.93683
-2.93698
-2.93713
-2.93729
-2.99021
-2.99059
-2.99057
-2.9906
-2.99067
-2.99075
-2.99085
-2.99095
-2.99107
-2.9912
-2.99133
-2.99147
-2.99162
-2.99176
-2.99191
-3.04491
-3.04528
-3.04527
-3.04529
-3.04535
-3.04543
-3.04552
-3.04562
-3.04574
-3.04586
-3.04598
-3.04612
-3.04625
-3.04639
-3.04654
-3.09961
-3.09998
-3.09996
-3.09998
-3.10004
-3.10011
-3.1002
-3.10029
-3.1004
-3.10051
-3.10063
-3.10076
-3.10089
-3.10103
-3.10116
-3.15431
-3.15466
-3.15465
-3.15467
-3.15472
-3.15479
-3.15487
-3.15496
-3.15506
-3.15517
-3.15528
-3.1554
-3.15553
-3.15566
-3.15579
-3.209
-3.20935
-3.20933
-3.20935
-3.2094
-3.20947
-3.20954
-3.20963
-3.20972
-3.20983
-3.20993
-3.21005
-3.21017
-3.21029
-3.21042
-3.26369
-3.26404
-3.26401
-3.26403
-3.26408
-3.26414
-3.26421
-3.26429
-3.26438
-3.26448
-3.26458
-3.26469
-3.26481
-3.26492
-3.26504
-3.31838
-3.31872
-3.31869
-3.31871
-3.31875
-3.31881
-3.31888
-3.31896
-3.31904
-3.31913
-3.31923
-3.31934
-3.31944
-3.31956
-3.31967
-3.37306
-3.37339
-3.37337
-3.37338
-3.37343
-3.37348
-3.37355
-3.37362
-3.3737
-3.37379
-3.37388
-3.37398
-3.37408
-3.37419
-3.3743
-3.42774
-3.42807
-3.42805
-3.42806
-3.4281
-3.42815
-3.42821
-3.42828
-3.42835
-3.42844
-3.42853
-3.42862
-3.42872
-3.42882
-3.42893
-3.48242
-3.48274
-3.48272
-3.48273
-3.48276
-3.48281
-3.48287
-3.48294
-3.48301
-3.48309
-3.48317
-3.48326
-3.48335
-3.48345
-3.48355
-3.5371
-3.53741
-3.53739
-3.53739
-3.53743
-3.53748
-3.53753
-3.53759
-3.53766
-3.53773
-3.53781
-3.5379
-3.53799
-3.53808
-3.53818
-3.59177
-3.59208
-3.59205
-3.59206
-3.59209
-3.59214
-3.59219
-3.59225
-3.59231
-3.59238
-3.59246
-3.59254
-3.59262
-3.59271
-3.5928
-3.64644
-3.64674
-3.64672
-3.64672
-3.64675
-3.64679
-3.64684
-3.6469
-3.64696
-3.64703
-3.6471
-3.64718
-3.64726
-3.64734
-3.64743
-3.70111
-3.7014
-3.70138
-3.70138
-3.70141
-3.70145
-3.7015
-3.70155
-3.70161
-3.70167
-3.70174
-3.70181
-3.70189
-3.70197
-3.70205
-3.75577
-3.75606
-3.75604
-3.75604
-3.75607
-3.7561
-3.75615
-3.7562
-3.75625
-3.75631
-3.75638
-3.75645
-3.75652
-3.7566
-3.75668
-3.81043
-3.81072
-3.81069
-3.8107
-3.81072
-3.81076
-3.8108
-3.81084
-3.8109
-3.81095
-3.81102
-3.81108
-3.81115
-3.81123
-3.8113
-3.8651
-3.86537
-3.86535
-3.86535
-3.86537
-3.86541
-3.86545
-3.86549
-3.86554
-3.86559
-3.86565
-3.86572
-3.86578
-3.86585
-3.86593
-3.91975
-3.92003
-3.92
-3.92
-3.92002
-3.92006
-3.92009
-3.92013
-3.92018
-3.92023
-3.92029
-3.92035
-3.92041
-3.92048
-3.92055
-3.97441
-3.97468
-3.97465
-3.97465
-3.97467
-3.9747
-3.97474
-3.97478
-3.97482
-3.97487
-3.97493
-3.97498
-3.97504
-3.97511
-3.97517
-4.02907
-4.02933
-4.0293
-4.0293
-4.02932
-4.02935
-4.02938
-4.02942
-4.02946
-4.02951
-4.02956
-4.02961
-4.02967
-4.02973
-4.0298
-4.08372
-4.08398
-4.08395
-4.08395
-4.08397
-4.084
-4.08403
-4.08406
-4.0841
-4.08415
-4.0842
-4.08425
-4.0843
-4.08436
-4.08442
-4.13837
-4.13862
-4.1386
-4.1386
-4.13862
-4.13864
-4.13867
-4.1387
-4.13874
-4.13878
-4.13883
-4.13888
-4.13893
-4.13899
-4.13905
-4.19303
-4.19327
-4.19325
-4.19324
-4.19326
-4.19329
-4.19331
-4.19335
-4.19338
-4.19342
-4.19346
-4.19351
-4.19356
-4.19361
-4.19367
-4.24768
-4.24792
-4.24789
-4.24789
-4.24791
-4.24793
-4.24796
-4.24799
-4.24802
-4.24806
-4.2481
-4.24814
-4.24819
-4.24824
-4.24829
-4.30233
-4.30257
-4.30254
-4.30254
-4.30255
-4.30257
-4.3026
-4.30263
-4.30266
-4.3027
-4.30273
-4.30278
-4.30282
-4.30287
-4.30292
-4.35698
-4.35721
-4.35719
-4.35718
-4.3572
-4.35722
-4.35724
-4.35727
-4.3573
-4.35733
-4.35737
-4.35741
-4.35745
-4.3575
-4.35755
-4.41163
-4.41186
-4.41183
-4.41183
-4.41184
-4.41186
-4.41188
-4.41191
-4.41194
-4.41197
-4.41201
-4.41204
-4.41209
-4.41213
-4.41218
-4.46628
-4.4665
-4.46648
-4.46647
-4.46649
-4.46651
-4.46653
-4.46655
-4.46658
-4.46661
-4.46664
-4.46668
-4.46672
-4.46676
-4.4668
-4.52093
-4.52115
-4.52113
-4.52112
-4.52113
-4.52115
-4.52117
-4.52119
-4.52122
-4.52125
-4.52128
-4.52132
-4.52135
-4.52139
-4.52144
-4.57559
-4.5758
-4.57578
-4.57577
-4.57578
-4.5758
-4.57582
-4.57584
-4.57586
-4.57589
-4.57592
-4.57595
-4.57599
-4.57603
-4.57607
-4.63024
-4.63045
-4.63042
-4.63042
-4.63043
-4.63044
-4.63046
-4.63048
-4.63051
-4.63053
-4.63056
-4.63059
-4.63063
-4.63066
-4.6307
-4.68489
-4.6851
-4.68507
-4.68507
-4.68508
-4.68509
-4.68511
-4.68513
-4.68515
-4.68518
-4.6852
-4.68523
-4.68527
-4.6853
-4.68534
-4.73955
-4.73975
-4.73972
-4.73972
-4.73973
-4.73974
-4.73976
-4.73977
-4.7398
-4.73982
-4.73985
-4.73988
-4.73991
-4.73994
-4.73998
-4.7942
-4.7944
-4.79437
-4.79437
-4.79438
-4.79439
-4.7944
-4.79442
-4.79444
-4.79447
-4.79449
-4.79452
-4.79455
-4.79458
-4.79462
-4.84886
-4.84905
-4.84902
-4.84902
-4.84903
-4.84904
-4.84905
-4.84907
-4.84909
-4.84911
-4.84914
-4.84916
-4.84919
-4.84922
-4.84926
-4.90351
-4.9037
-4.90368
-4.90367
-4.90368
-4.90369
-4.9037
-4.90372
-4.90374
-4.90376
-4.90378
-4.90381
-4.90384
-4.90387
-4.9039
-4.95816
-4.95835
-4.95833
-4.95832
-4.95833
-4.95834
-4.95835
-4.95837
-4.95839
-4.95841
-4.95843
-4.95845
-4.95848
-4.95851
-4.95854
-5.01282
-5.013
-5.01298
-5.01297
-5.01298
-5.01299
-5.013
-5.01302
-5.01303
-5.01305
-5.01308
-5.0131
-5.01313
-5.01316
-5.01319
-5.06747
-5.06765
-5.06763
-5.06762
-5.06763
-5.06764
-5.06765
-5.06766
-5.06768
-5.0677
-5.06772
-5.06775
-5.06777
-5.0678
-5.06783
-5.12212
-5.12229
-5.12227
-5.12227
-5.12227
-5.12228
-5.1223
-5.12231
-5.12233
-5.12235
-5.12237
-5.12239
-5.12242
-5.12244
-5.12247
-5.17677
-5.17694
-5.17692
-5.17691
-5.17692
-5.17693
-5.17694
-5.17695
-5.17697
-5.17699
-5.17701
-5.17703
-5.17706
-5.17709
-5.17712
-5.23141
-5.23158
-5.23156
-5.23155
-5.23156
-5.23157
-5.23158
-5.23159
-5.23161
-5.23163
-5.23165
-5.23167
-5.2317
-5.23173
-5.23175
-5.28605
-5.28621
-5.28619
-5.28618
-5.28619
-5.2862
-5.28621
-5.28623
-5.28624
-5.28626
-5.28628
-5.28631
-5.28633
-5.28636
-5.28639
-5.34067
-5.34084
-5.34082
-5.34081
-5.34082
-5.34083
-5.34084
-5.34086
-5.34087
-5.34089
-5.34091
-5.34094
-5.34096
-5.34099
-5.34102
-5.39529
-5.39545
-5.39543
-5.39543
-5.39544
-5.39545
-5.39546
-5.39547
-5.39549
-5.39551
-5.39553
-5.39556
-5.39558
-5.39561
-5.39564
-5.4499
-5.45006
-5.45004
-5.45004
-5.45004
-5.45005
-5.45007
-5.45008
-5.4501
-5.45012
-5.45014
-5.45017
-5.4502
-5.45022
-5.45026
-5.5045
-5.50465
-5.50463
-5.50463
-5.50464
-5.50465
-5.50466
-5.50468
-5.5047
-5.50472
-5.50474
-5.50477
-5.50479
-5.50483
-5.50486
-5.55907
-5.55923
-5.55921
-5.55921
-5.55921
-5.55923
-5.55924
-5.55926
-5.55928
-5.5593
-5.55932
-5.55935
-5.55938
-5.55941
-5.55945
-5.61363
-5.61378
-5.61377
-5.61376
-5.61377
-5.61378
-5.6138
-5.61382
-5.61384
-5.61386
-5.61389
-5.61391
-5.61395
-5.61398
-5.61402
-5.66816
-5.66832
-5.6683
-5.6683
-5.6683
-5.66832
-5.66833
-5.66835
-5.66838
-5.6684
-5.66843
-5.66846
-5.66849
-5.66853
-5.66856
-5.72267
-5.72282
-5.7228
-5.7228
-5.72281
-5.72283
-5.72284
-5.72286
-5.72289
-5.72291
-5.72294
-5.72297
-5.72301
-5.72305
-5.72309
-5.77714
-5.77729
-5.77728
-5.77728
-5.77729
-5.7773
-5.77732
-5.77734
-5.77737
-5.7774
-5.77743
-5.77746
-5.7775
-5.77754
-5.77758
-5.83158
-5.83173
-5.83172
-5.83171
-5.83173
-5.83174
-5.83176
-5.83179
-5.83181
-5.83184
-5.83188
-5.83191
-5.83195
-5.832
-5.83204
-5.88597
-5.88613
-5.88611
-5.88611
-5.88613
-5.88614
-5.88617
-5.88619
-5.88622
-5.88625
-5.88629
-5.88633
-5.88637