/*--------------------------------*- C++ -*----------------------------------*\
  =========                 |
  \\      /  F ield         | OpenFOAM: The Open Source CFD Toolbox
   \\    /   O peration     | Website:  https://openfoam.org
    \\  /    A nd           | Version:  7
     \\/     M anipulation  |
\*---------------------------------------------------------------------------*/
FoamFile
{
    version     2.0;
    format      ascii;
    class       surfaceScalarField;
    location    "500";
    object      phi;
}
// * * * * * * * * * * * * * * * * * * * * * * * * * * * * * * * * * * * * * //

dimensions      [0 3 -1 0 0 0 0];

internalField   nonuniform List<scalar> 
63695
(
-7.61335e-13
1.94049e-07
-2.89741e-12
5.82146e-07
-6.25914e-12
9.70243e-07
-1.02444e-11
1.35834e-06
-1.38269e-11
1.74644e-06
-1.49601e-11
2.13453e-06
-9.45548e-12
2.52262e-06
1.16028e-11
2.9107e-06
7.16622e-11
3.29876e-06
2.39203e-10
3.68674e-06
5.87788e-10
4.07466e-06
2.02444e-09
4.46167e-06
1.80947e-08
4.83513e-06
2.54446e-08
5.23195e-06
5.65284e-06
-2.2509e-12
1.94051e-07
-8.70533e-12
5.82153e-07
-1.86985e-11
9.70253e-07
-3.05324e-11
1.35835e-06
-4.10309e-11
1.74645e-06
-4.3898e-11
2.13453e-06
-2.61349e-11
2.5226e-06
4.03515e-11
2.91063e-06
2.18874e-10
3.29858e-06
7.00019e-10
3.68626e-06
2.04804e-09
4.07331e-06
3.93514e-09
4.45978e-06
1.40186e-08
4.82505e-06
2.67607e-08
5.2192e-06
5.6796e-06
-3.80383e-12
1.94055e-07
-1.47844e-11
5.82164e-07
-3.18704e-11
9.7027e-07
-5.2497e-11
1.35837e-06
-7.18742e-11
1.74647e-06
-8.07558e-11
2.13454e-06
-6.08772e-11
2.52258e-06
2.57903e-11
2.91055e-06
2.53384e-10
3.29835e-06
7.59816e-10
3.68576e-06
2.20816e-09
4.07186e-06
3.72779e-09
4.45826e-06
8.48326e-09
4.82029e-06
1.90328e-08
5.20865e-06
5.69863e-06
-5.46687e-12
1.9406e-07
-2.13519e-11
5.82179e-07
-4.63507e-11
9.70295e-07
-7.74435e-11
1.3584e-06
-1.09136e-10
1.7465e-06
-1.31282e-10
2.13456e-06
-1.2542e-10
2.52258e-06
-5.63979e-11
2.91048e-06
1.42995e-10
3.29815e-06
5.01223e-10
3.6854e-06
1.6326e-09
4.07073e-06
3.01916e-09
4.45687e-06
4.12349e-09
4.81919e-06
1.13271e-08
5.20145e-06
5.70996e-06
-7.26253e-12
1.94068e-07
-2.85331e-11
5.82201e-07
-6.24496e-11
9.70329e-07
-1.05996e-10
1.35845e-06
-1.53883e-10
1.74655e-06
-1.96836e-10
2.13461e-06
-2.1935e-10
2.5226e-06
-1.96308e-10
2.91045e-06
-6.65384e-11
3.29802e-06
1.3309e-10
3.6852e-06
8.59236e-10
4.07001e-06
2.08917e-09
4.45564e-06
1.03358e-09
4.82024e-06
4.77686e-09
5.19771e-06
5.71473e-06
-9.20268e-12
1.94077e-07
-3.63345e-11
5.82228e-07
-8.01656e-11
9.70373e-07
-1.38018e-10
1.3585e-06
-2.05422e-10
1.74661e-06
-2.74924e-10
2.13468e-06
-3.3456e-10
2.52266e-06
-3.70279e-10
2.91049e-06
-3.26848e-10
3.29798e-06
-2.57389e-10
3.68513e-06
7.95231e-11
4.06967e-06
1.01838e-09
4.45471e-06
-1.00123e-09
4.82226e-06
-5.46792e-10
5.19725e-06
5.71419e-06
-1.12713e-11
1.94088e-07
-4.46963e-11
5.82261e-07
-9.92786e-11
9.70428e-07
-1.729e-10
1.35858e-06
-2.62185e-10
1.7467e-06
-3.61857e-10
2.13478e-06
-4.63087e-10
2.52276e-06
-5.61241e-10
2.91059e-06
-6.12001e-10
3.29803e-06
-6.55986e-10
3.68517e-06
-6.38999e-10
4.06965e-06
-2.60085e-11
4.45409e-06
-2.32518e-09
4.82456e-06
-4.62014e-09
5.19955e-06
5.70957e-06
-1.34474e-11
1.94101e-07
-5.3491e-11
5.82301e-07
-1.19454e-10
9.70494e-07
-2.09858e-10
1.35867e-06
-3.22493e-10
1.74681e-06
-4.54303e-10
2.13491e-06
-5.99246e-10
2.5229e-06
-7.5932e-10
2.91075e-06
-9.04517e-10
3.29817e-06
-1.04995e-09
3.68532e-06
-1.26475e-09
4.06987e-06
-9.47695e-10
4.45378e-06
-3.31943e-09
4.82693e-06
-7.50951e-09
5.20374e-06
5.70206e-06
-1.56915e-11
1.94117e-07
-6.25847e-11
5.82348e-07
-1.40316e-10
9.70571e-07
-2.48089e-10
1.35878e-06
-3.84791e-10
1.74695e-06
-5.49402e-10
2.13507e-06
-7.3838e-10
2.52309e-06
-9.57232e-10
2.91097e-06
-1.18978e-09
3.29841e-06
-1.42442e-09
3.68555e-06
-1.8008e-09
4.07024e-06
-1.741e-09
4.45372e-06
-4.13824e-09
4.82933e-06
-9.51679e-09
5.20912e-06
5.69254e-06
-1.79754e-11
1.94135e-07
-7.18167e-11
5.82402e-07
-1.6149e-10
9.70661e-07
-2.86821e-10
1.3589e-06
-4.47663e-10
1.74711e-06
-6.4466e-10
2.13527e-06
-8.76422e-10
2.52332e-06
-1.14939e-09
2.91124e-06
-1.45873e-09
3.29872e-06
-1.77129e-09
3.68587e-06
-2.26263e-09
4.07073e-06
-2.424e-09
4.45388e-06
-4.82434e-09
4.83173e-06
-1.09395e-08
5.21523e-06
5.6816e-06
-2.02578e-11
1.94155e-07
-8.10556e-11
5.82463e-07
-1.82626e-10
9.70763e-07
-3.25355e-10
1.35904e-06
-5.09888e-10
1.7473e-06
-7.38075e-10
2.1355e-06
-1.01029e-09
2.5236e-06
-1.33229e-09
2.91156e-06
-1.70764e-09
3.29909e-06
-2.08832e-09
3.68625e-06
-2.66339e-09
4.07131e-06
-3.01439e-09
4.45423e-06
-5.40213e-09
4.83412e-06
-1.19641e-08
5.22179e-06
5.66964e-06
-2.25159e-11
1.94178e-07
-9.01622e-11
5.82531e-07
-2.03419e-10
9.70876e-07
-3.63113e-10
1.3592e-06
-5.705e-10
1.7475e-06
-8.28214e-10
2.13575e-06
-1.13799e-09
2.52391e-06
-1.50408e-09
2.91193e-06
-1.93568e-09
3.29952e-06
-2.37589e-09
3.68669e-06
-3.013e-09
4.07195e-06
-3.52715e-09
4.45474e-06
-5.89555e-09
4.83649e-06
-1.27008e-08
5.2286e-06
5.65694e-06
-2.47154e-11
1.94203e-07
-9.9044e-11
5.82605e-07
-2.23628e-10
9.71001e-07
-3.99648e-10
1.35938e-06
-6.28802e-10
1.74773e-06
-9.14147e-10
2.13604e-06
-1.25841e-09
2.52425e-06
-1.66397e-09
2.91233e-06
-2.14327e-09
3.3e-06
-2.63565e-09
3.68718e-06
-3.32011e-09
4.07263e-06
-3.97521e-09
4.4554e-06
-6.32437e-09
4.83884e-06
-1.32274e-08
5.2355e-06
5.64371e-06
-2.68454e-11
1.94229e-07
-1.07605e-10
5.82686e-07
-2.43068e-10
9.71136e-07
-4.34642e-10
1.35957e-06
-6.84323e-10
1.74798e-06
-9.95314e-10
2.13635e-06
-1.37097e-09
2.52463e-06
-1.81178e-09
2.91277e-06
-2.33156e-09
3.30052e-06
-2.86999e-09
3.68772e-06
-3.5924e-09
4.07335e-06
-4.3695e-09
4.45617e-06
-6.70275e-09
4.84117e-06
-1.36023e-08
5.2424e-06
5.63011e-06
-2.88811e-11
1.94258e-07
-1.15801e-10
5.82773e-07
-2.61613e-10
9.71282e-07
-4.67884e-10
1.35978e-06
-7.36782e-10
1.74825e-06
-1.07144e-09
2.13669e-06
-1.47554e-09
2.52503e-06
-1.94786e-09
2.91325e-06
-2.50217e-09
3.30108e-06
-3.08162e-09
3.6883e-06
-3.83625e-09
4.07411e-06
-4.71906e-09
4.45706e-06
-7.04037e-09
4.84349e-06
-1.3868e-08
5.24923e-06
5.61624e-06
-3.08225e-11
1.94289e-07
-1.23578e-10
5.82865e-07
-2.79182e-10
9.71437e-07
-4.99258e-10
1.36e-06
-7.86046e-10
1.74854e-06
-1.14248e-09
2.13704e-06
-1.5723e-09
2.52546e-06
-2.07283e-09
2.91375e-06
-2.65688e-09
3.30166e-06
-3.27321e-09
3.68891e-06
-4.05669e-09
4.07489e-06
-5.03122e-09
4.45803e-06
-7.34437e-09
4.8458e-06
-1.40541e-08
5.25594e-06
5.60218e-06
-3.26533e-11
1.94322e-07
-1.30932e-10
5.82964e-07
-2.95738e-10
9.71602e-07
-5.28719e-10
1.36023e-06
-8.321e-10
1.74884e-06
-1.20852e-09
2.13742e-06
-1.66159e-09
2.52591e-06
-2.1875e-09
2.91427e-06
-2.79747e-09
3.30227e-06
-3.44722e-09
3.68956e-06
-4.25765e-09
4.0757e-06
-5.31198e-09
4.45909e-06
-7.6201e-09
4.84811e-06
-1.41817e-08
5.2625e-06
5.588e-06
-3.43825e-11
1.94356e-07
-1.37837e-10
5.83067e-07
-3.11272e-10
9.71776e-07
-5.5628e-10
1.36048e-06
-8.75017e-10
1.74916e-06
-1.26978e-09
2.13781e-06
-1.74391e-09
2.52639e-06
-2.29273e-09
2.91482e-06
-2.92562e-09
3.3029e-06
-3.60592e-09
3.69024e-06
-4.44228e-09
4.07654e-06
-5.56621e-09
4.46021e-06
-7.8719e-09
4.85042e-06
-1.42658e-08
5.2689e-06
5.57374e-06
-3.59993e-11
1.94392e-07
-1.44316e-10
5.83175e-07
-3.25805e-10
9.71957e-07
-5.81996e-10
1.36073e-06
-9.14927e-10
1.74949e-06
-1.32654e-09
2.13823e-06
-1.81977e-09
2.52688e-06
-2.38939e-09
2.91539e-06
-3.04284e-09
3.30356e-06
-3.75131e-09
3.69095e-06
-4.61304e-09
4.0774e-06
-5.79793e-09
4.4614e-06
-8.10311e-09
4.85272e-06
-1.43178e-08
5.27511e-06
5.55942e-06
-3.75177e-11
1.9443e-07
-1.50365e-10
5.83288e-07
-3.39369e-10
9.72146e-07
-6.05948e-10
1.361e-06
-9.51995e-10
1.74984e-06
-1.37909e-09
2.13865e-06
-1.88973e-09
2.52739e-06
-2.47833e-09
2.91598e-06
-3.15049e-09
3.30423e-06
-3.88513e-09
3.69169e-06
-4.77194e-09
4.07829e-06
-6.01037e-09
4.46263e-06
-8.31651e-09
4.85503e-06
-1.43452e-08
5.28114e-06
5.54507e-06
-3.89303e-11
1.94469e-07
-1.56019e-10
5.83405e-07
-3.52015e-10
9.72342e-07
-6.28239e-10
1.36128e-06
-9.86412e-10
1.7502e-06
-1.42778e-09
2.13909e-06
-1.95434e-09
2.52792e-06
-2.56035e-09
2.91659e-06
-3.24978e-09
3.30492e-06
-4.00889e-09
3.69245e-06
-4.92055e-09
4.0792e-06
-6.20623e-09
4.46392e-06
-8.51423e-09
4.85734e-06
-1.43545e-08
5.28698e-06
5.53072e-06
-4.02547e-11
1.94509e-07
-1.61283e-10
5.83526e-07
-3.63795e-10
9.72545e-07
-6.48978e-10
1.36156e-06
-1.01837e-09
1.75057e-06
-1.47292e-09
2.13955e-06
-2.01409e-09
2.52846e-06
-2.63617e-09
2.91721e-06
-3.34174e-09
3.30562e-06
-4.12388e-09
3.69323e-06
-5.06016e-09
4.08014e-06
-6.38768e-09
4.46525e-06
-8.69815e-09
4.85965e-06
-1.43493e-08
5.29263e-06
5.51637e-06
-4.14841e-11
1.9455e-07
-1.66199e-10
5.83651e-07
-3.74771e-10
9.72753e-07
-6.68278e-10
1.36185e-06
-1.04808e-09
1.75095e-06
-1.51483e-09
2.14002e-06
-2.06949e-09
2.52901e-06
-2.70647e-09
2.91785e-06
-3.42726e-09
3.30634e-06
-4.23121e-09
3.69403e-06
-5.19178e-09
4.0811e-06
-6.55654e-09
4.46661e-06
-8.86967e-09
4.86196e-06
-1.43333e-08
5.29809e-06
5.50204e-06
-4.26371e-11
1.94593e-07
-1.70775e-10
5.83779e-07
-3.84999e-10
9.72968e-07
-6.86254e-10
1.36216e-06
-1.07572e-09
1.75134e-06
-1.55379e-09
2.14049e-06
-2.12095e-09
2.52958e-06
-2.77184e-09
2.9185e-06
-3.50712e-09
3.30708e-06
-4.33179e-09
3.69486e-06
-5.31628e-09
4.08208e-06
-6.71429e-09
4.46801e-06
-9.03014e-09
4.86428e-06
-1.43083e-08
5.30337e-06
5.48773e-06
-4.37071e-11
1.94637e-07
-1.75054e-10
5.83911e-07
-3.94541e-10
9.73187e-07
-7.03016e-10
1.36246e-06
-1.10148e-09
1.75174e-06
-1.59009e-09
2.14098e-06
-2.16889e-09
2.53016e-06
-2.8328e-09
2.91916e-06
-3.58197e-09
3.30783e-06
-4.42642e-09
3.6957e-06
-5.43434e-09
4.08309e-06
-6.86217e-09
4.46944e-06
-9.18051e-09
4.8666e-06
-1.42763e-08
5.30847e-06
5.47345e-06
-4.47134e-11
1.94681e-07
-1.79041e-10
5.84045e-07
-4.03452e-10
9.73412e-07
-7.18665e-10
1.36278e-06
-1.12551e-09
1.75214e-06
-1.62397e-09
2.14148e-06
-2.21365e-09
2.53075e-06
-2.88982e-09
2.91984e-06
-3.65237e-09
3.30859e-06
-4.51574e-09
3.69657e-06
-5.54654e-09
4.08412e-06
-7.00122e-09
4.47089e-06
-9.32174e-09
4.86892e-06
-1.42382e-08
5.31339e-06
5.45922e-06
-4.5648e-11
1.94727e-07
-1.8278e-10
5.84182e-07
-4.11785e-10
9.73641e-07
-7.33299e-10
1.3631e-06
-1.14799e-09
1.75256e-06
-1.65565e-09
2.14199e-06
-2.25555e-09
2.53135e-06
-2.9433e-09
2.92052e-06
-3.71879e-09
3.30937e-06
-4.60032e-09
3.69745e-06
-5.65335e-09
4.08517e-06
-7.1323e-09
4.47237e-06
-9.4545e-09
4.87124e-06
-1.41952e-08
5.31813e-06
5.44502e-06
-4.65298e-11
1.94774e-07
-1.86271e-10
5.84322e-07
-4.19587e-10
9.73874e-07
-7.47003e-10
1.36343e-06
-1.16904e-09
1.75298e-06
-1.68534e-09
2.1425e-06
-2.29485e-09
2.53196e-06
-2.99359e-09
2.92122e-06
-3.78164e-09
3.31016e-06
-4.68061e-09
3.69835e-06
-5.7552e-09
4.08625e-06
-7.25613e-09
4.47387e-06
-9.5795e-09
4.87356e-06
-1.41477e-08
5.32269e-06
5.43087e-06
-4.73501e-11
1.94821e-07
-1.89556e-10
5.84464e-07
-4.26906e-10
9.74111e-07
-7.59861e-10
1.36376e-06
-1.1888e-09
1.75341e-06
-1.71322e-09
2.14303e-06
-2.33182e-09
2.53258e-06
-3.04102e-09
2.92193e-06
-3.84125e-09
3.31096e-06
-4.757e-09
3.69926e-06
-5.8524e-09
4.08734e-06
-7.37331e-09
4.47539e-06
-9.6972e-09
4.87589e-06
-1.40963e-08
5.32709e-06
5.41678e-06
-4.81273e-11
1.94869e-07
-1.9263e-10
5.84609e-07
-4.3378e-10
9.74352e-07
-7.71941e-10
1.3641e-06
-1.20737e-09
1.75384e-06
-1.73944e-09
2.14356e-06
-2.36665e-09
2.53321e-06
-3.08582e-09
2.92265e-06
-3.89791e-09
3.31177e-06
-4.82982e-09
3.70019e-06
-5.94526e-09
4.08846e-06
-7.48436e-09
4.47693e-06
-9.80816e-09
4.87821e-06
-1.40412e-08
5.33133e-06
5.40273e-06
-4.88515e-11
1.94918e-07
-1.95531e-10
5.84755e-07
-4.40248e-10
9.74597e-07
-7.83309e-10
1.36444e-06
-1.22485e-09
1.75428e-06
-1.76415e-09
2.1441e-06
-2.39953e-09
2.53384e-06
-3.12825e-09
2.92338e-06
-3.95186e-09
3.31259e-06
-4.89933e-09
3.70114e-06
-6.03402e-09
4.08959e-06
-7.58973e-09
4.47849e-06
-9.91268e-09
4.88053e-06
-1.39828e-08
5.3354e-06
5.38875e-06
-4.95401e-11
1.94968e-07
-1.98254e-10
5.84904e-07
-4.46339e-10
9.74845e-07
-7.94022e-10
1.36479e-06
-1.24133e-09
1.75473e-06
-1.78747e-09
2.14465e-06
-2.43062e-09
2.53448e-06
-3.16849e-09
2.92412e-06
-4.00331e-09
3.31343e-06
-4.96576e-09
3.7021e-06
-6.11889e-09
4.09075e-06
-7.68976e-09
4.48006e-06
-1.00112e-08
4.88285e-06
-1.39211e-08
5.33931e-06
5.37483e-06
-5.01825e-11
1.95018e-07
-2.00831e-10
5.85055e-07
-4.52085e-10
9.75097e-07
-8.0413e-10
1.36514e-06
-1.2569e-09
1.75519e-06
-1.80951e-09
2.1452e-06
-2.46007e-09
2.53513e-06
-3.20671e-09
2.92487e-06
-4.05244e-09
3.31427e-06
-5.02931e-09
3.70308e-06
-6.20005e-09
4.09192e-06
-7.7848e-09
4.48164e-06
-1.01039e-08
4.88517e-06
-1.38564e-08
5.34306e-06
5.36098e-06
-5.07958e-11
1.95069e-07
-2.03254e-10
5.85207e-07
-4.57509e-10
9.75351e-07
-8.13677e-10
1.3655e-06
-1.27161e-09
1.75564e-06
-1.83036e-09
2.14576e-06
-2.48798e-09
2.53579e-06
-3.24306e-09
2.92562e-06
-4.09938e-09
3.31513e-06
-5.09013e-09
3.70407e-06
-6.27767e-09
4.0931e-06
-7.87509e-09
4.48324e-06
-1.01912e-08
4.88749e-06
-1.37885e-08
5.34666e-06
5.34719e-06
-5.13684e-11
1.9512e-07
-2.05553e-10
5.85361e-07
-4.62637e-10
9.75608e-07
-8.22704e-10
1.36586e-06
-1.28552e-09
1.75611e-06
-1.8501e-09
2.14632e-06
-2.51447e-09
2.53646e-06
-3.27767e-09
2.92638e-06
-4.14426e-09
3.316e-06
-5.14835e-09
3.70508e-06
-6.35189e-09
4.09431e-06
-7.9609e-09
4.48485e-06
-1.02732e-08
4.8898e-06
-1.37179e-08
5.3501e-06
5.33347e-06
-5.19164e-11
1.95172e-07
-2.07717e-10
5.85517e-07
-4.67486e-10
9.75868e-07
-8.31243e-10
1.36622e-06
-1.29869e-09
1.75657e-06
-1.8688e-09
2.14689e-06
-2.53963e-09
2.53713e-06
-3.31063e-09
2.92715e-06
-4.18719e-09
3.31687e-06
-5.2041e-09
3.70609e-06
-6.42283e-09
4.09553e-06
-8.04242e-09
4.48647e-06
-1.03501e-08
4.89211e-06
-1.36442e-08
5.3534e-06
5.31982e-06
-5.2428e-11
1.95224e-07
-2.09774e-10
5.85674e-07
-4.72074e-10
9.7613e-07
-8.39327e-10
1.36659e-06
-1.31117e-09
1.75705e-06
-1.88654e-09
2.14747e-06
-2.56354e-09
2.5378e-06
-3.34204e-09
2.92793e-06
-4.22825e-09
3.31776e-06
-5.25746e-09
3.70712e-06
-6.49059e-09
4.09676e-06
-8.11983e-09
4.4881e-06
-1.04221e-08
4.89441e-06
-1.35679e-08
5.35654e-06
5.30626e-06
-5.29189e-11
1.95277e-07
-2.11711e-10
5.85833e-07
-4.76417e-10
9.76395e-07
-8.4698e-10
1.36696e-06
-1.32299e-09
1.75752e-06
-1.90335e-09
2.14805e-06
-2.58625e-09
2.53849e-06
-3.37199e-09
2.92872e-06
-4.26753e-09
3.31865e-06
-5.30851e-09
3.70816e-06
-6.55528e-09
4.09801e-06
-8.19328e-09
4.48974e-06
-1.04895e-08
4.89671e-06
-1.34886e-08
5.35954e-06
5.29277e-06
-5.33771e-11
1.95331e-07
-2.13554e-10
5.85993e-07
-4.80529e-10
9.76662e-07
-8.54227e-10
1.36733e-06
-1.33418e-09
1.758e-06
-1.9193e-09
2.14863e-06
-2.60784e-09
2.53918e-06
-3.40053e-09
2.92951e-06
-4.30508e-09
3.31956e-06
-5.35734e-09
3.70922e-06
-6.61698e-09
4.09927e-06
-8.26293e-09
4.49138e-06
-1.05522e-08
4.899e-06
-1.34067e-08
5.3624e-06
5.27936e-06
-5.38168e-11
1.95384e-07
-2.15289e-10
5.86155e-07
-4.84419e-10
9.76931e-07
-8.61087e-10
1.36771e-06
-1.34479e-09
1.75849e-06
-1.93442e-09
2.14922e-06
-2.62835e-09
2.53987e-06
-3.42772e-09
2.93031e-06
-4.34097e-09
3.32047e-06
-5.40401e-09
3.71028e-06
-6.67579e-09
4.10054e-06
-8.3289e-09
4.49304e-06
-1.06105e-08
4.90128e-06
-1.3322e-08
5.36511e-06
5.26604e-06
-5.42267e-11
1.95439e-07
-2.1694e-10
5.86318e-07
-4.88102e-10
9.77202e-07
-8.6758e-10
1.36809e-06
-1.35483e-09
1.75897e-06
-1.94875e-09
2.14982e-06
-2.64784e-09
2.54057e-06
-3.45363e-09
2.93112e-06
-4.37524e-09
3.32139e-06
-5.44856e-09
3.71135e-06
-6.73176e-09
4.10182e-06
-8.3913e-09
4.4947e-06
-1.06645e-08
4.90355e-06
-1.32347e-08
5.36768e-06
5.25281e-06
-5.46204e-11
1.95493e-07
-2.18491e-10
5.86482e-07
-4.91583e-10
9.77475e-07
-8.73721e-10
1.36847e-06
-1.36433e-09
1.75946e-06
-1.96232e-09
2.15042e-06
-2.66633e-09
2.54127e-06
-3.47829e-09
2.93193e-06
-4.40794e-09
3.32232e-06
-5.49106e-09
3.71244e-06
-6.78498e-09
4.10312e-06
-8.45024e-09
4.49636e-06
-1.07143e-08
4.90582e-06
-1.31447e-08
5.37011e-06
5.23966e-06
-5.49866e-11
1.95548e-07
-2.19966e-10
5.86647e-07
-4.94875e-10
9.7775e-07
-8.79526e-10
1.36886e-06
-1.37332e-09
1.75996e-06
-1.97517e-09
2.15102e-06
-2.68388e-09
2.54198e-06
-3.50175e-09
2.93275e-06
-4.4391e-09
3.32326e-06
-5.53154e-09
3.71353e-06
-6.83551e-09
4.10442e-06
-8.50583e-09
4.49803e-06
-1.07599e-08
4.90807e-06
-1.30524e-08
5.3724e-06
5.22661e-06
-5.53379e-11
1.95604e-07
-2.21351e-10
5.86813e-07
-4.97981e-10
9.78027e-07
-8.85005e-10
1.36924e-06
-1.3818e-09
1.76045e-06
-1.98732e-09
2.15162e-06
-2.7005e-09
2.5427e-06
-3.52403e-09
2.93357e-06
-4.46877e-09
3.32421e-06
-5.57005e-09
3.71463e-06
-6.8834e-09
4.10573e-06
-8.55813e-09
4.49971e-06
-1.08016e-08
4.91032e-06
-1.29574e-08
5.37456e-06
5.21365e-06
-5.56638e-11
1.95659e-07
-2.22664e-10
5.8698e-07
-5.0091e-10
9.78305e-07
-8.90173e-10
1.36963e-06
-1.38981e-09
1.76095e-06
-1.99879e-09
2.15223e-06
-2.71624e-09
2.54341e-06
-3.54518e-09
2.9344e-06
-4.49697e-09
3.32516e-06
-5.60664e-09
3.71574e-06
-6.92873e-09
4.10706e-06
-8.60726e-09
4.50139e-06
-1.08393e-08
4.91255e-06
-1.28601e-08
5.37658e-06
5.20079e-06
-5.5976e-11
1.95715e-07
-2.23893e-10
5.87148e-07
-5.03668e-10
9.78585e-07
-8.95038e-10
1.37003e-06
-1.39735e-09
1.76146e-06
-2.00961e-09
2.15284e-06
-2.73111e-09
2.54413e-06
-3.56522e-09
2.93523e-06
-4.52374e-09
3.32612e-06
-5.64133e-09
3.71686e-06
-6.97155e-09
4.10839e-06
-8.65328e-09
4.50307e-06
-1.08732e-08
4.91477e-06
-1.27604e-08
5.37847e-06
5.18803e-06
-5.62645e-11
1.95771e-07
-2.25056e-10
5.87316e-07
-5.06262e-10
9.78866e-07
-8.99613e-10
1.37042e-06
-1.40444e-09
1.76196e-06
-2.0198e-09
2.15346e-06
-2.74515e-09
2.54486e-06
-3.58418e-09
2.93607e-06
-4.54911e-09
3.32708e-06
-5.67417e-09
3.71798e-06
-7.01192e-09
4.10972e-06
-8.69629e-09
4.50475e-06
-1.09034e-08
4.91698e-06
-1.26586e-08
5.38022e-06
5.17537e-06
-5.654e-11
1.95828e-07
-2.2614e-10
5.87486e-07
-5.08694e-10
9.79149e-07
-9.03904e-10
1.37081e-06
-1.4111e-09
1.76247e-06
-2.02937e-09
2.15408e-06
-2.75837e-09
2.54559e-06
-3.6021e-09
2.93692e-06
-4.57311e-09
3.32805e-06
-5.7052e-09
3.71911e-06
-7.0499e-09
4.11107e-06
-8.73634e-09
4.50644e-06
-1.093e-08
4.91917e-06
-1.25544e-08
5.38185e-06
5.16282e-06
-5.67934e-11
1.95885e-07
-2.27162e-10
5.87656e-07
-5.10972e-10
9.79433e-07
-9.07922e-10
1.37121e-06
-1.41733e-09
1.76298e-06
-2.03835e-09
2.1547e-06
-2.7708e-09
2.54632e-06
-3.61898e-09
2.93777e-06
-4.59576e-09
3.32903e-06
-5.73445e-09
3.72025e-06
-7.08554e-09
4.11242e-06
-8.77353e-09
4.50813e-06
-1.0953e-08
4.92135e-06
-1.24484e-08
5.38334e-06
5.15037e-06
-5.70345e-11
1.95942e-07
-2.2811e-10
5.87828e-07
-5.13098e-10
9.79718e-07
-9.11674e-10
1.37161e-06
-1.42316e-09
1.76349e-06
-2.04676e-09
2.15532e-06
-2.78246e-09
2.54706e-06
-3.63487e-09
2.93862e-06
-4.6171e-09
3.33001e-06
-5.76197e-09
3.7214e-06
-7.11891e-09
4.11378e-06
-8.80792e-09
4.50982e-06
-1.09725e-08
4.92351e-06
-1.23402e-08
5.38471e-06
5.13803e-06
-5.7255e-11
1.95999e-07
-2.28999e-10
5.87999e-07
-5.15079e-10
9.80004e-07
-9.15168e-10
1.37201e-06
-1.42859e-09
1.764e-06
-2.0546e-09
2.15595e-06
-2.79338e-09
2.5478e-06
-3.64978e-09
2.93947e-06
-4.63715e-09
3.331e-06
-5.78779e-09
3.72255e-06
-7.15005e-09
4.11514e-06
-8.83959e-09
4.51151e-06
-1.09886e-08
4.92566e-06
-1.22304e-08
5.38595e-06
5.1258e-06
-5.74633e-11
1.96057e-07
-2.29818e-10
5.88172e-07
-5.16916e-10
9.80291e-07
-9.18411e-10
1.37241e-06
-1.43363e-09
1.76452e-06
-2.0619e-09
2.15658e-06
-2.80356e-09
2.54854e-06
-3.66373e-09
2.94033e-06
-4.65595e-09
3.33199e-06
-5.81195e-09
3.72371e-06
-7.17903e-09
4.11651e-06
-8.86862e-09
4.5132e-06
-1.10015e-08
4.9278e-06
-1.21186e-08
5.38707e-06
5.11368e-06
-5.76526e-11
1.96114e-07
-2.30581e-10
5.88345e-07
-5.18615e-10
9.80579e-07
-9.21409e-10
1.37281e-06
-1.4383e-09
1.76504e-06
-2.06867e-09
2.15721e-06
-2.81305e-09
2.54928e-06
-3.67676e-09
2.9412e-06
-4.67352e-09
3.33299e-06
-5.8345e-09
3.72487e-06
-7.20591e-09
4.11788e-06
-8.89508e-09
4.51489e-06
-1.10112e-08
4.92991e-06
-1.20053e-08
5.38806e-06
5.10168e-06
-5.78299e-11
1.96172e-07
-2.31278e-10
5.88518e-07
-5.20179e-10
9.80868e-07
-9.2417e-10
1.37322e-06
-1.4426e-09
1.76555e-06
-2.07492e-09
2.15784e-06
-2.82184e-09
2.55003e-06
-3.68889e-09
2.94207e-06
-4.6899e-09
3.33399e-06
-5.85548e-09
3.72603e-06
-7.23076e-09
4.11925e-06
-8.91905e-09
4.51657e-06
-1.10178e-08
4.93201e-06
-1.18903e-08
5.38894e-06
5.08979e-06
-5.79894e-11
1.9623e-07
-2.3192e-10
5.88692e-07
-5.2161e-10
9.81158e-07
-9.26699e-10
1.37362e-06
-1.44655e-09
1.76607e-06
-2.08068e-09
2.15847e-06
-2.82996e-09
2.55078e-06
-3.70014e-09
2.94294e-06
-4.70513e-09
3.33499e-06
-5.87493e-09
3.7272e-06
-7.25363e-09
4.12063e-06
-8.94061e-09
4.51826e-06
-1.10213e-08
4.93409e-06
-1.1774e-08
5.38969e-06
5.07801e-06
-5.81368e-11
1.96288e-07
-2.325e-10
5.88867e-07
-5.22911e-10
9.81448e-07
-9.29e-10
1.37403e-06
-1.45015e-09
1.76659e-06
-2.08595e-09
2.15911e-06
-2.83744e-09
2.55153e-06
-3.71054e-09
2.94381e-06
-4.71923e-09
3.336e-06
-5.89292e-09
3.72838e-06
-7.2746e-09
4.12201e-06
-8.95985e-09
4.51995e-06
-1.1022e-08
4.93615e-06
-1.16563e-08
5.39032e-06
5.06636e-06
-5.82675e-11
1.96346e-07
-2.33026e-10
5.89041e-07
-5.24084e-10
9.8174e-07
-9.31078e-10
1.37444e-06
-1.45341e-09
1.76712e-06
-2.09075e-09
2.15975e-06
-2.84429e-09
2.55228e-06
-3.72012e-09
2.94469e-06
-4.73224e-09
3.33702e-06
-5.90948e-09
3.72955e-06
-7.29374e-09
4.1234e-06
-8.97685e-09
4.52163e-06
-1.10199e-08
4.9382e-06
-1.15375e-08
5.39084e-06
5.05482e-06
-5.83854e-11
1.96405e-07
-2.3349e-10
5.89216e-07
-5.2513e-10
9.82031e-07
-9.32935e-10
1.37484e-06
-1.45634e-09
1.76764e-06
-2.09508e-09
2.16039e-06
-2.85052e-09
2.55304e-06
-3.7289e-09
2.94556e-06
-4.7442e-09
3.33803e-06
-5.92467e-09
3.73073e-06
-7.31113e-09
4.12479e-06
-8.99171e-09
4.52331e-06
-1.1015e-08
4.94022e-06
-1.14177e-08
5.39124e-06
5.0434e-06
-5.84874e-11
1.96463e-07
-2.33901e-10
5.89392e-07
-5.26048e-10
9.82324e-07
-9.34573e-10
1.37525e-06
-1.45894e-09
1.76817e-06
-2.09896e-09
2.16103e-06
-2.85615e-09
2.5538e-06
-3.7369e-09
2.94644e-06
-4.75516e-09
3.33905e-06
-5.93856e-09
3.73192e-06
-7.32685e-09
4.12617e-06
-9.00453e-09
4.52499e-06
-1.10077e-08
4.94222e-06
-1.1297e-08
5.39153e-06
5.0321e-06
-5.85754e-11
1.96522e-07
-2.3425e-10
5.89568e-07
-5.26838e-10
9.82616e-07
-9.3599e-10
1.37566e-06
-1.4612e-09
1.76869e-06
-2.10239e-09
2.16167e-06
-2.8612e-09
2.55456e-06
-3.74415e-09
2.94733e-06
-4.76515e-09
3.34007e-06
-5.95122e-09
3.7331e-06
-7.341e-09
4.12756e-06
-9.01543e-09
4.52666e-06
-1.09979e-08
4.94421e-06
-1.11755e-08
5.39171e-06
5.02093e-06
-5.86479e-11
1.96581e-07
-2.3454e-10
5.89744e-07
-5.27495e-10
9.82909e-07
-9.37181e-10
1.37607e-06
-1.46314e-09
1.76922e-06
-2.10537e-09
2.16231e-06
-2.86568e-09
2.55532e-06
-3.75068e-09
2.94821e-06
-4.77422e-09
3.34109e-06
-5.9627e-09
3.73429e-06
-7.35367e-09
4.12896e-06
-9.02453e-09
4.52833e-06
-1.09859e-08
4.94617e-06
-1.10536e-08
5.39178e-06
5.00988e-06
-5.87036e-11
1.96639e-07
-2.34766e-10
5.8992e-07
-5.28014e-10
9.83203e-07
-9.38139e-10
1.37648e-06
-1.46473e-09
1.76974e-06
-2.10789e-09
2.16295e-06
-2.86958e-09
2.55608e-06
-3.7565e-09
2.9491e-06
-4.78241e-09
3.34212e-06
-5.97309e-09
3.73548e-06
-7.36499e-09
4.13035e-06
-9.03199e-09
4.53e-06
-1.09717e-08
4.94811e-06
-1.09314e-08
5.39174e-06
4.99894e-06
-5.87428e-11
1.96698e-07
-2.34924e-10
5.90096e-07
-5.28385e-10
9.83496e-07
-9.3885e-10
1.37689e-06
-1.46597e-09
1.77027e-06
-2.10995e-09
2.1636e-06
-2.8729e-09
2.55684e-06
-3.76163e-09
2.94999e-06
-4.78977e-09
3.34315e-06
-5.98247e-09
3.73668e-06
-7.37508e-09
4.13174e-06
-9.03797e-09
4.53167e-06
-1.09557e-08
4.95003e-06
-1.08091e-08
5.39159e-06
4.98814e-06
-5.87614e-11
1.96757e-07
-2.35009e-10
5.90272e-07
-5.28598e-10
9.8379e-07
-9.39295e-10
1.3773e-06
-1.46683e-09
1.7708e-06
-2.11152e-09
2.16424e-06
-2.87563e-09
2.55761e-06
-3.76606e-09
2.95088e-06
-4.79633e-09
3.34418e-06
-5.99093e-09
3.73787e-06
-7.38409e-09
4.13313e-06
-9.04267e-09
4.53332e-06
-1.0938e-08
4.95192e-06
-1.0687e-08
5.39134e-06
4.97745e-06
-5.87617e-11
1.96816e-07
-2.35008e-10
5.90449e-07
-5.28632e-10
9.84084e-07
-9.39446e-10
1.37771e-06
-1.46727e-09
1.77133e-06
-2.11255e-09
2.16489e-06
-2.87774e-09
2.55837e-06
-3.76981e-09
2.95177e-06
-4.80214e-09
3.34521e-06
-5.99858e-09
3.73907e-06
-7.3922e-09
4.13453e-06
-9.04634e-09
4.53498e-06
-1.09191e-08
4.9538e-06
-1.05656e-08
5.39099e-06
4.96688e-06
-5.87336e-11
1.96874e-07
-2.34918e-10
5.90625e-07
-5.28465e-10
9.84377e-07
-9.39265e-10
1.37813e-06
-1.46724e-09
1.77185e-06
-2.11301e-09
2.16553e-06
-2.87918e-09
2.55914e-06
-3.77283e-09
2.95267e-06
-4.80721e-09
3.34625e-06
-6.00551e-09
3.74027e-06
-7.39959e-09
4.13592e-06
-9.04928e-09
4.53663e-06
-1.08991e-08
4.95565e-06
-1.04453e-08
5.39054e-06
4.95644e-06
-5.86823e-11
1.96933e-07
-2.34713e-10
5.90801e-07
-5.28066e-10
9.84671e-07
-9.38704e-10
1.37854e-06
-1.46668e-09
1.77238e-06
-2.11279e-09
2.16618e-06
-2.87987e-09
2.55991e-06
-3.77508e-09
2.95356e-06
-4.81155e-09
3.34728e-06
-6.01182e-09
3.74147e-06
-7.40652e-09
4.13732e-06
-9.05186e-09
4.53827e-06
-1.08789e-08
4.95747e-06
-1.03269e-08
5.38998e-06
4.94611e-06
-5.85928e-11
1.96992e-07
-2.34391e-10
5.90977e-07
-5.27398e-10
9.84964e-07
-9.37697e-10
1.37895e-06
-1.4655e-09
1.77291e-06
-2.1118e-09
2.16683e-06
-2.87969e-09
2.56067e-06
-3.77647e-09
2.95446e-06
-4.81515e-09
3.34832e-06
-6.01762e-09
3.74267e-06
-7.41324e-09
4.13871e-06
-9.05452e-09
4.53992e-06
-1.08586e-08
4.95928e-06
-1.0211e-08
5.38934e-06
4.9359e-06
-5.84732e-11
1.9705e-07
-2.33908e-10
5.91152e-07
-5.26408e-10
9.85257e-07
-9.36159e-10
1.37936e-06
-1.46356e-09
1.77344e-06
-2.10989e-09
2.16747e-06
-2.87848e-09
2.56144e-06
-3.77685e-09
2.95536e-06
-4.81793e-09
3.34936e-06
-6.02298e-09
3.74388e-06
-7.42006e-09
4.14011e-06
-9.05786e-09
4.54156e-06
-1.08395e-08
4.96106e-06
-1.00991e-08
5.3886e-06
4.9258e-06
-5.82982e-11
1.97108e-07
-2.33263e-10
5.91327e-07
-5.25041e-10
9.85548e-07
-9.33988e-10
1.37977e-06
-1.46073e-09
1.77397e-06
-2.10684e-09
2.16812e-06
-2.87601e-09
2.56221e-06
-3.776e-09
2.95626e-06
-4.81973e-09
3.35041e-06
-6.02793e-09
3.74508e-06
-7.42729e-09
4.14151e-06
-9.06258e-09
4.54319e-06
-1.08224e-08
4.96282e-06
-9.99264e-09
5.38777e-06
4.91581e-06
-5.80811e-11
1.97167e-07
-2.32394e-10
5.91502e-07
-5.23217e-10
9.85839e-07
-9.31057e-10
1.38017e-06
-1.45681e-09
1.77449e-06
-2.1024e-09
2.16877e-06
-2.87196e-09
2.56298e-06
-3.77359e-09
2.95716e-06
-4.82033e-09
3.35146e-06
-6.03244e-09
3.7463e-06
-7.43531e-09
4.14292e-06
-9.06956e-09
4.54483e-06
-1.08091e-08
4.96456e-06
-9.89429e-09
5.38686e-06
4.90592e-06
-5.77879e-11
1.97224e-07
-2.31298e-10
5.91675e-07
-5.20857e-10
9.86129e-07
-9.27214e-10
1.38058e-06
-1.45156e-09
1.77502e-06
-2.09625e-09
2.16941e-06
-2.86591e-09
2.56375e-06
-3.76915e-09
2.95806e-06
-4.81929e-09
3.35251e-06
-6.0363e-09
3.74751e-06
-7.44436e-09
4.14432e-06
-9.07992e-09
4.54646e-06
-1.08013e-08
4.96628e-06
-9.80728e-09
5.38586e-06
4.89611e-06
-5.74382e-11
1.97282e-07
-2.29885e-10
5.91848e-07
-5.17855e-10
9.86417e-07
-9.2227e-10
1.38099e-06
-1.44468e-09
1.77554e-06
-2.08795e-09
2.17006e-06
-2.85732e-09
2.56452e-06
-3.76205e-09
2.95897e-06
-4.81597e-09
3.35356e-06
-6.0391e-09
3.74874e-06
-7.45468e-09
4.14574e-06
-9.09488e-09
4.5481e-06
-1.08023e-08
4.96799e-06
-9.73738e-09
5.3848e-06
4.88638e-06
-5.69806e-11
1.97339e-07
-2.28165e-10
5.92019e-07
-5.14102e-10
9.86703e-07
-9.16022e-10
1.38139e-06
-1.43585e-09
1.77606e-06
-2.077e-09
2.1707e-06
-2.84547e-09
2.56529e-06
-3.75139e-09
2.95988e-06
-4.80938e-09
3.35462e-06
-6.04005e-09
3.74997e-06
-7.46609e-09
4.14717e-06
-9.116e-09
4.54975e-06
-1.08154e-08
4.96969e-06
-9.692e-09
5.38368e-06
4.87668e-06
-5.64484e-11
1.97395e-07
-2.26013e-10
5.92189e-07
-5.09466e-10
9.86987e-07
-9.08226e-10
1.38179e-06
-1.42465e-09
1.77658e-06
-2.06278e-09
2.17134e-06
-2.82949e-09
2.56606e-06
-3.73596e-09
2.96078e-06
-4.79814e-09
3.35568e-06
-6.03771e-09
3.75121e-06
-7.47796e-09
4.14861e-06
-9.14422e-09
4.55142e-06
-1.08452e-08
4.97139e-06
-9.68269e-09
5.38251e-06
4.867e-06
-5.57716e-11
1.97451e-07
-2.23452e-10
5.92356e-07
-5.03816e-10
9.87267e-07
-8.98631e-10
1.38218e-06
-1.41065e-09
1.77709e-06
-2.04459e-09
2.17197e-06
-2.80828e-09
2.56682e-06
-3.71428e-09
2.96169e-06
-4.78015e-09
3.35675e-06
-6.02994e-09
3.75246e-06
-7.48865e-09
4.15007e-06
-9.18176e-09
4.55312e-06
-1.09022e-08
4.97312e-06
-9.73735e-09
5.38135e-06
4.85727e-06
-5.49928e-11
1.97506e-07
-2.20318e-10
5.92522e-07
-4.96999e-10
9.87544e-07
-8.86957e-10
1.38257e-06
-1.39337e-09
1.77759e-06
-2.02162e-09
2.1726e-06
-2.78061e-09
2.56758e-06
-3.68435e-09
2.96259e-06
-4.75269e-09
3.35782e-06
-6.01302e-09
3.75372e-06
-7.49397e-09
4.15155e-06
-9.22444e-09
4.55485e-06
-1.09786e-08
4.97487e-06
-9.855e-09
5.38023e-06
4.84741e-06
-5.40088e-11
1.9756e-07
-2.16677e-10
5.92684e-07
-4.88884e-10
9.87816e-07
-8.72949e-10
1.38296e-06
-1.37234e-09
1.77809e-06
-1.99308e-09
2.17322e-06
-2.74505e-09
2.56833e-06
-3.64401e-09
2.96349e-06
-4.71212e-09
3.35889e-06
-5.9824e-09
3.75499e-06
-7.48933e-09
4.15306e-06
-9.28139e-09
4.55664e-06
-1.11389e-08
4.97673e-06
-1.01874e-08
5.37928e-06
4.83723e-06
-5.28719e-11
1.97613e-07
-2.12424e-10
5.92844e-07
-4.79329e-10
9.88083e-07
-8.56416e-10
1.38333e-06
-1.34703e-09
1.77858e-06
-1.95821e-09
2.17383e-06
-2.69996e-09
2.56908e-06
-3.59078e-09
2.96438e-06
-4.65299e-09
3.35995e-06
-5.92952e-09
3.75627e-06
-7.45341e-09
4.15458e-06
-9.30326e-09
4.55849e-06
-1.11935e-08
4.97862e-06
-1.05817e-08
5.37867e-06
4.82664e-06
-5.14795e-11
1.97664e-07
-2.07504e-10
5.93e-07
-4.685e-10
9.88344e-07
-8.37296e-10
1.3837e-06
-1.31785e-09
1.77906e-06
-1.91681e-09
2.17443e-06
-2.64608e-09
2.5698e-06
-3.52425e-09
2.96526e-06
-4.57775e-09
3.361e-06
-5.85888e-09
3.75755e-06
-7.41434e-09
4.15614e-06
-9.4255e-09
4.5605e-06
-1.18292e-08
4.98103e-06
-1.18999e-08
5.37873e-06
4.81475e-06
-2.31404e-10
1.97896e-07
-9.30236e-10
5.93699e-07
-2.09708e-09
9.89514e-07
-3.74701e-09
1.38535e-06
-5.88459e-09
1.78121e-06
-8.5571e-09
2.1771e-06
-1.17851e-08
2.57305e-06
-1.56829e-08
2.96915e-06
-2.03066e-08
3.36565e-06
-2.58761e-08
3.7631e-06
-3.25273e-08
4.16279e-06
-4.04871e-08
4.56845e-06
-4.81334e-08
4.98863e-06
-2.02139e-08
5.35088e-06
4.62219e-06
1.72236e-07
-1.82713e-10
1.98079e-07
-7.25628e-10
5.9424e-07
-1.6236e-09
9.90412e-07
-2.88013e-09
1.3866e-06
-4.48169e-09
1.78281e-06
-6.4464e-09
2.17905e-06
-8.74818e-09
2.57535e-06
-1.1431e-08
2.97181e-06
-1.44415e-08
3.36866e-06
-1.78307e-08
3.76645e-06
-2.14119e-08
4.16637e-06
-2.48573e-08