/*--------------------------------*- C++ -*----------------------------------*\
  =========                 |
  \\      /  F ield         | OpenFOAM: The Open Source CFD Toolbox
   \\    /   O peration     | Website:  https://openfoam.org
    \\  /    A nd           | Version:  8
     \\/     M anipulation  |
\*---------------------------------------------------------------------------*/
FoamFile
{
    version     2.0;
    format      ascii;
    class       volScalarField;
    location    "0.4";
    object      p;
}
// * * * * * * * * * * * * * * * * * * * * * * * * * * * * * * * * * * * * * //

dimensions      [0 2 -2 0 0 0 0];

internalField   nonuniform List<scalar> 
576
(
7.49637e-06
3.72711
3.80751
4.00583
4.07285
4.11299
4.13608
4.15205
4.16536
4.17854
4.19299
4.20959
4.22901
4.25195
4.27931
4.31243
4.35334
4.40544
4.47348
4.57064
4.69969
4.99343
5.1675
9.21146
0.412865
3.57553
3.73564
3.96883
4.05005
4.09816
4.12607
4.14518
4.16068
4.17544
4.19112
4.20873
4.22907
4.25295
4.28139
4.31587
4.35864
4.41346
4.48572
4.59034
4.73217
5.06177
5.30031
8.76857
0.910188
3.43179
3.66701
3.92536
4.023
4.08001
4.11365
4.13656
4.15472
4.17144
4.18863
4.20751
4.229
4.25404
4.2838
4.31992
4.36491
4.42293
4.50015
4.61275
4.76957
5.12286
5.41924
8.21383
1.47247
3.33228
3.61923
3.88046
3.99356
4.05916
4.09895
4.12612
4.14736
4.16639
4.18538
4.20577
4.22862
4.25503
4.28631
4.32429
4.37173
4.43316
4.51555
4.63516
4.80638
5.15734
5.49738
7.58209
2.0874
3.30213
3.59822
3.8398
3.96285
4.03564
4.08152
4.1133
4.13806
4.15981
4.18098
4.2032
4.22771
4.25574
4.28876
4.32881
4.37887
4.44372
4.53088
4.65542
4.83582
5.15904
5.51013
6.89859
2.69715
3.35531
3.61192
3.81477
3.93608
4.01204
4.06244
4.09847
4.12682
4.15154
4.17519
4.19952
4.22593
4.25578
4.29069
4.33282
4.3853
4.4529
4.54296
4.66804
4.84568
5.12051
5.43516
6.21701
3.21691
3.48984
3.66841
3.8182
3.92261
3.99425
4.04527
4.08366
4.11477
4.14216
4.16824
4.19473
4.2231
4.25477
4.29143
4.33524
4.38922
4.45767
4.54664
4.66481
4.82313
5.03456
5.26467
5.61283
3.60262
3.67158
3.76412
3.85762
3.9332
3.99136
4.03683
4.07373
4.1053
4.134
4.1617
4.18986
4.21981
4.25288
4.29066
4.33508
4.38867
4.45458
4.53651
4.63833
4.76273
4.90526
5.03475
5.13718
3.86429
3.85565
3.88539
3.93077
3.97438
4.0127
4.04644
4.07681
4.10506
4.13238
4.15978
4.1882
4.21859
4.252
4.28959
4.33278
4.38313
4.44214
4.5108
4.58885
4.67342
4.75437
4.80512
4.80271
4.04235
4.01479
4.01214
4.02535
4.04298
4.06166
4.08102
4.10121
4.12247
4.14512
4.16946
4.19585
4.22466
4.25665
4.29213
4.3317
4.37578
4.42429
4.47618
4.52898
4.57815
4.61467
4.6213
4.58868
4.17063
4.14141
4.1262
4.12275
4.12452
4.12923
4.13663
4.14683
4.15996
4.17609
4.19529
4.21757
4.24296
4.2713
4.30264
4.33671
4.37292
4.41006
4.4461
4.47804
4.50192
4.51198
4.49955
4.46441
4.25432
4.22553
4.20648
4.19674
4.19161
4.18944
4.19014
4.19392
4.20104
4.21166
4.22586
4.24363
4.26484
4.28917
4.31622
4.34527
4.37515
4.40417
4.42996
4.44969
4.46035
4.4585
4.44001
4.40798
4.25432
4.22553
4.20648
4.19674
4.19161
4.18944
4.19014
4.19392
4.20104
4.21166
4.22586
4.24363
4.26484
4.28916
4.31622
4.34526
4.37515
4.40417
4.42996
4.44969
4.46035
4.4585
4.44001
4.40798
4.17063
4.14141
4.1262
4.12275
4.12452
4.12923
4.13663
4.14683
4.15995
4.17609
4.19529
4.21757
4.24296
4.2713
4.30264
4.33671
4.37291
4.41006
4.4461
4.47804
4.50191
4.51198
4.49955
4.46441
4.04235
4.01479
4.01214
4.02535
4.04298
4.06166
4.08102
4.10121
4.12247
4.14512
4.16946
4.19585
4.22466
4.25665
4.29212
4.3317
4.37578
4.42429
4.47618
4.52898
4.57814
4.61467
4.6213
4.58868
3.86429
3.85565
3.88539
3.93077
3.97438
4.01271
4.04645
4.07681
4.10506
4.13237
4.15978
4.1882
4.21859
4.252
4.28959
4.33278
4.38313
4.44214
4.5108
4.58885
4.67341
4.75437
4.80512
4.80271
3.60262
3.67158
3.76412
3.85762
3.9332
3.99136
4.03684
4.07373
4.1053
4.134
4.16169
4.18986
4.21981
4.25288
4.29066
4.33508
4.38867
4.45458
4.53651
4.63833
4.76273
4.90526
5.03475
5.13718
3.2169
3.48984
3.66841
3.81821
3.92261
3.99425
4.04527
4.08366
4.11477
4.14216
4.16824
4.19473
4.2231
4.25477
4.29143
4.33524
4.38922
4.45767
4.54664
4.6648
4.82313
5.03456
5.26467
5.61283
2.69715
3.35531
3.61192
3.81478
3.93609
4.01204
4.06245
4.09847
4.12682
4.15154
4.17519
4.19952
4.22593
4.25578
4.29069
4.33282
4.3853
4.45289
4.54295
4.66804
4.84568
5.12051
5.43516
6.21701
2.0874
3.30213
3.59822
3.83981
3.96286
4.03565
4.08152
4.11331
4.13806
4.15981
4.18098
4.2032
4.2277
4.25573
4.28876
4.32881
4.37887
4.44372
4.53088
4.65542
4.83582
5.15903
5.51013
6.89859
1.47247
3.33227
3.61923
3.88046
3.99357
4.05916
4.09895
4.12612
4.14736
4.16639
4.18538
4.20576
4.22862
4.25503
4.28631
4.32429
4.37172
4.43315
4.51554
4.63516
4.80637
5.15733
5.49738
7.58209
0.910179
3.43179
3.66702
3.92536
4.02301
4.08001
4.11365
4.13656
4.15472
4.17144
4.18863
4.20751
4.229
4.25404
4.28379
4.31992
4.3649
4.42292
4.50014
4.61275
4.76957
5.12285
5.41923
8.21383
0.412852
3.57552
3.73564
3.96883
4.05006
4.09817
4.12608
4.14519
4.16068
4.17545
4.19112
4.20873
4.22907
4.25295
4.28138
4.31587
4.35863
4.41345
4.48571
4.59033
4.73217
5.06177
5.30031
8.76857
-5.12086e-06
3.7271
3.80751
4.00583
4.07285
4.11299
4.13609
4.15205
4.16537
4.17854
4.19299
4.20959
4.22901
4.25195
4.27931
4.31243
4.35334
4.40543
4.47347
4.57064
4.69969
4.99343
5.1675
9.21146
)
;

boundaryField
{
    movingWall
    {
        type            zeroGradient;
    }
    fixedWalls
    {
        type            zeroGradient;
    }
    frontAndBack
    {
        type            empty;
    }
}


// ************************************************************************* //
