/*--------------------------------*- C++ -*----------------------------------*\
  =========                 |
  \\      /  F ield         | OpenFOAM: The Open Source CFD Toolbox
   \\    /   O peration     | Website:  https://openfoam.org
    \\  /    A nd           | Version:  8
     \\/     M anipulation  |
\*---------------------------------------------------------------------------*/
FoamFile
{
    version     2.0;
    format      ascii;
    class       surfaceScalarField;
    location    "0.4";
    object      phi;
}
// * * * * * * * * * * * * * * * * * * * * * * * * * * * * * * * * * * * * * //

dimensions      [0 3 -1 0 0 0 0];

internalField   nonuniform List<scalar> 
1104
(
0.00105599
-0.00105599
0.00113672
-8.07333e-05
0.0011706
-3.38765e-05
0.00118642
-1.58233e-05
0.00119623
-9.80311e-06
0.00120249
-6.26582e-06
0.0012067
-4.2042e-06
0.00120955
-2.859e-06
0.00121149
-1.93529e-06
0.00121276
-1.26682e-06
0.00121351
-7.54021e-07
0.00121384
-3.29328e-07
0.00121378
5.91855e-08
0.00121332
4.58068e-07
0.00121241
9.1695e-07
0.00121091
1.49953e-06
0.00120861
2.29823e-06
0.00120513
3.48191e-06
0.00119982
5.31098e-06
0.00119114
8.67785e-06
0.00117696
1.41765e-05
0.00114359
3.33664e-05
0.00106294
8.06507e-05
0.00106294
0.000957007
-0.002013
0.0012057
-0.000329431
0.00133577
-0.000163946
0.00140109
-8.11411e-05
0.00144196
-5.06724e-05
0.00146848
-3.27862e-05
0.00148641
-2.21353e-05
0.0014987
-1.51436e-05
0.00150707
-1.03105e-05
0.0015126
-6.79617e-06
0.00151594
-4.09101e-06
0.00151746
-1.8472e-06
0.00151731
2.04058e-07
0.00151547
2.30443e-06
0.00151167
4.71167e-06
0.00150542
7.75518e-06
0.0014958
1.19123e-05
0.00148125
1.80371e-05
0.00145907
2.74822e-05
0.00142327
4.44842e-05
0.00136494
7.25002e-05
0.00123754
0.000160772
0.000989549
0.000328641
0.00205249
0.000722461
-0.00273546
0.00116146
-0.000768435
0.00143104
-0.000433517
0.00158167
-0.000231775
0.00167791
-0.00014691
0.00174172
-9.65988e-05
0.00178536
-6.57754e-05
0.00181554
-4.53287e-05
0.0018363
-3.10653e-05
0.00185013
-2.06253e-05
0.00185859
-1.25508e-05
0.00186258
-5.83549e-06
0.00186248
3.05039e-07
0.0018582
6.57946e-06
0.00184917
1.37448e-05
0.00183416
2.27631e-05
0.00181105
3.50263e-05
0.00177613
5.29506e-05
0.00172312
8.04948e-05
0.00163909
0.00012851
0.00150313
0.000208461
0.00123843
0.000425473
0.000793874
0.0007732
0.00284637
0.00035466
-0.00309012
0.000960294
-0.00137407
0.00139125
-0.000864477
0.00166791
-0.000508435
0.00185206
-0.000331055
0.00197813
-0.00022267
0.00206598
-0.000153625
0.00212761
-0.000106958
0.00217049
-7.39433e-05
0.00219939
-4.9529e-05
0.00221734
-3.05034e-05
0.00222611
-1.46048e-05
0.00222646
-4.33089e-08
0.00221823
1.48129e-05
0.00220026
3.1712e-05
0.00217017
5.28591e-05
0.00212377
8.14251e-05
0.00205402
0.000122701
0.00194896
0.000185552
0.00178695
0.000290523
0.00153071
0.000464694
0.00110052
0.000855665
0.000463764
0.00140996
0.00331013
-6.40234e-05
-0.0030261
0.000586286
-0.00202438
0.00115286
-0.00143105
0.00157939
-0.000934967
0.00188379
-0.000635453
0.00210189
-0.000440775
0.00225843
-0.000310163
0.00237059
-0.000219117
0.00244994
-0.000153291
0.00250423
-0.000103823
0.00253854
-6.48093e-05
0.00255587
-3.19395e-05
0.00255755
-1.7146e-06
0.00254325
2.9109e-05
0.00251094
6.40187e-05
0.00245643
0.000107373
0.00237252
0.000165334
0.00224752
0.000247703
0.00206242
0.000370651
0.00178743
0.000565515
0.0013748
0.000877321
0.000785845
0.00144462
5.68236e-05
0.00213898
0.00336695
-0.000423927
-0.00260217
8.81781e-05
-0.00253648
0.000693747
-0.00203662
0.00124063
-0.00148185
0.00167354
-0.00106837
0.0020044
-0.000771633
0.00225254
-0.000558298
0.00243595
-0.000402534
0.00256882
-0.000286158
0.00266153
-0.000196534
0.00272124
-0.000124517
0.00275232
-6.30216e-05
0.00275664
-6.03756e-06
0.0027336
5.21574e-05
0.00267986
0.000117752
0.00258887
0.000198365
0.00244979
0.000304418
0.00224606
0.000451428
0.00195349
0.000663224
0.00154142
0.000977589
0.000976551
0.00144218
0.000300565
0.00212061
-0.000341502
0.00278104
0.00302545
-0.000587113
-0.00201506
-0.000395777
-0.00272782
7.8447e-05
-0.00251084
0.000632202
-0.00203561
0.00114022
-0.00157639
0.0015657
-0.00119712
0.00190555
-0.000898146
0.00216832
-0.000665303
0.00236512
-0.000482956
0.00250599
-0.000337403
0.00259861
-0.00021714
0.00264788
-0.000112286
0.00265569
-1.38541e-05
0.00262078
8.70715e-05
0.00253833
0.000200196
0.00239954
0.00033716
0.00219102
0.00051294
0.00189484
0.000747606
0.00149059
0.00106747
0.000965283
0.0015029
0.000336851
0.00207062
-0.00026184
0.0027193
-0.000589628
0.00310883
0.00243582
-0.00055477
-0.00146029
-0.000727554
-0.00255504
-0.000547018
-0.00269138
-0.00016489
-0.00241773
0.000279549
-0.00202082
0.000706944
-0.00162451
0.00108122
-0.00127243
0.00139003
-0.000974107
0.00163238
-0.000725307
0.0018117
-0.000516729
0.00193211
-0.000337548
0.00199643
-0.000176598
0.00200514
-2.25662e-05
0.00195582
0.000136387
0.0018428
0.000313221
0.00165728
0.000522675
0.00138852
0.000781702
0.00102716
0.00110896
0.000573477
0.00152116
5.47756e-05
0.0020216
-0.000445533
0.00257093
-0.00074881
0.00302257
-0.000640231
0.00300025
0.00179559
-0.000434302
-0.00102599
-0.000862919
-0.00212642
-0.00104783
-0.00250647
-0.00100369
-0.00246187
-0.00081393
-0.00221059
-0.000557085
-0.00188136
-0.000287772
-0.00154174
-3.89087e-05
-0.00122297
0.000171609
-0.000935824
0.000334811
-0.000679931
0.000446281
-0.000449018
0.000503284
-0.000233602
0.000503055
-2.23368e-05
0.000442463
0.00019698
0.000317538
0.000438145
0.000125317
0.000714896
-0.000132844
0.00103986
-0.000444996
0.00142111
-0.000778502
0.00185466
-0.00106702
0.00231011
-0.00120183
0.00270574
-0.00105039
0.00287114
-0.000560609
0.00251048
0.00123498
-0.00033893
-0.000687056
-0.000904877
-0.00156047
-0.00142631
-0.00198504
-0.0018036
-0.00208458
-0.00203152
-0.00198266
-0.0021416
-0.00177128
-0.0021724
-0.00151094
-0.00215769
-0.00123768
-0.00212328
-0.000970235
-0.00208758
-0.000715636
-0.00206318
-0.000473416
-0.00205832
-0.000238457
-0.00207924
-1.42166e-06
-0.00212523
0.000242969
-0.00219509
0.000508005
-0.00228001
0.000799816
-0.00236179
0.00112165
-0.00240877
0.00146809
-0.0023726
0.00181849
-0.00219017
0.00212768
-0.00179934
0.00231491
-0.0011834
0.0022552
-0.000460091
0.00178716
0.000774894
-0.000316586
-0.00037047
-0.00100214
-0.000874916
-0.00182806
-0.00115912
-0.00264553
-0.00126711
-0.0033776
-0.00125059
-0.00399451
-0.00115437
-0.00449313
-0.00101232
-0.00488315
-0.000847655
-0.00517877
-0.000674621
-0.00539389
-0.000500509
-0.00553972
-0.000327595
-0.00562341
-0.000154762
-0.00564623
2.13997e-05
-0.00560654
0.000203279
-0.00549401
0.000395474
-0.00529284
0.000598649
-0.00498111
0.000809921
-0.00453294
0.00101992
-0.00392418
0.00120973
-0.0031443
0.00134781
-0.00221768
0.00138828
-0.00123584
0.00127336
-0.000394202
0.000945519
0.000380692
-0.000370476
5.8306e-09
-0.00124541
1.46369e-08
-0.00240455
2.06991e-08
-0.00367169
2.44247e-08
-0.0049223
2.60195e-08
-0.0060767
2.57285e-08
-0.00708904
2.38005e-08
-0.00793671
2.05077e-08
-0.00861135
1.61378e-08
-0.00911187
1.09859e-08
-0.00943947
5.34889e-09
-0.00959423
-4.86632e-10
-0.00957283
-6.20238e-09
-0.00936954
-1.15662e-08
-0.00897405
-1.6291e-08
-0.00837538
-2.01336e-08
-0.00756543
-2.28734e-08
-0.00654549
-2.43195e-08
-0.00533574
-2.43239e-08
-0.00398791
-2.27991e-08
-0.0025996
-1.97473e-08
-0.00132622
-1.53062e-08
-0.000380695
-9.67893e-09
-3.18202e-09
-0.000370473
0.000370479
-0.0012454
0.00087494
-0.00240453
0.00115916
-0.00367166
0.00126716
-0.00492227
0.00125063
-0.00607666
0.00115441
-0.007089
0.00101236
-0.00793667
0.000847693
-0.00861131
0.000674652
-0.00911183
0.000500531
-0.00943943
0.000327607
-0.00959419
0.000154764
-0.00957279
-2.14084e-05
-0.0093695
-0.000203298
-0.00897402
-0.000395502
-0.00837535
-0.000598684
-0.00756542
-0.000809961
-0.00654548
-0.00101996
-0.00533573
-0.00120977
-0.0039879
-0.00134785
-0.0025996
-0.00138832
-0.00132622
-0.00127339
-0.000380695
-0.000945538
-0.000380699
-0.000316581
0.00068706
-0.00100213
0.00156048
-0.00182803
0.00198506
-0.00264549
0.00208461
-0.00337754
0.00198269
-0.00399445
0.00177132
-0.00449305
0.00151097
-0.00488307
0.00123771
-0.00517868
0.000970261
-0.00539381
0.000715656
-0.00553963
0.000473429
-0.00562333
0.000238461
-0.00564615
1.41801e-06
-0.00560647
-0.00024298
-0.00549395
-0.000508023
-0.00529279
-0.000799841
-0.00498107
-0.00112168
-0.00453291
-0.00146813
-0.00392416
-0.00181853
-0.00314429
-0.00212771
-0.00221768
-0.00231494
-0.00123584
-0.00225523
-0.000394201
-0.00178718
-0.0007749
-0.000338926
0.00102599
-0.000904866
0.00212642
-0.00142629
0.00250648
-0.00180356
0.00246189
-0.00203148
0.00221061
-0.00214154
0.00188138
-0.00217234
0.00154176
-0.00215762
0.00122299
-0.0021232
0.000935844
-0.00208749
0.000679947
-0.00206309
0.000449029
-0.00205824
0.000233606
-0.00207916
2.23359e-05
-0.00212515
-0.000196986
-0.00219502
-0.000438157
-0.00227995
-0.000714913
-0.00236174
-0.00103988
-0.00240873
-0.00142114
-0.00237257
-0.00185469
-0.00219015
-0.00231014
-0.00179933
-0.00270576
-0.0011834
-0.00287115
-0.00046009
-0.00251049
-0.00123499
-0.0004343
0.00146029
-0.000862913
0.00255504
-0.00104782
0.00269138
-0.00100367
0.00241774
-0.000813901
0.00202084
-0.000557048
0.00162453
-0.000287727
0.00127244
-3.88562e-05
0.000974123
0.000171667
0.000725321
0.000334874
0.00051674
0.000446347
0.000337556
0.000503351
0.000176603
0.000503121
2.25663e-05
0.000442526
-0.000136391
0.000317597
-0.000313228
0.00012537
-0.000522686
-0.000132798
-0.000781715
-0.000444959
-0.00110898
-0.000778473
-0.00152117
-0.001067
-0.00202161
-0.00120181
-0.00257094
-0.00105038
-0.00302259
-0.000560608
-0.00300026
-0.0017956
-0.000554769
0.00201506
-0.000727551
0.00272782
-0.000547012
0.00251085
-0.000164879
0.00203561
0.000279565
0.00157639
0.000706967
0.00119713
0.00108125
0.000898156
0.00139006
0.000665313
0.00163242
0.000482965
0.00181175
0.00033741
0.00193216
0.000217145
0.00199647
0.000112289
0.00200518
1.38543e-05
0.00195587
-8.70738e-05
0.00184284
-0.0002002
0.00165732
-0.000337167
0.00138855
-0.000512947
0.00102719
-0.000747615
0.000573499
-0.00106748
5.47913e-05
-0.00150291
-0.000445523
-0.00207063
-0.000748805
-0.0027193
-0.00064023
-0.00310884
-0.00243583
-0.000587113
0.00260217
-0.000395776
0.00253648
7.84495e-05
0.00203662
0.000632208
0.00148185
0.00114023
0.00106837
0.00156572
0.000771638
0.00190557
0.000558304
0.00216834
0.00040254
0.00236514
0.000286163
0.00250602
0.000196538
0.00259864
0.00012452
0.00264791
6.30231e-05
0.00265572
6.0376e-06
0.00262081
-5.21588e-05
0.00253836
-0.000117754
0.00239956
-0.000198368
0.00219104
-0.000304422
0.00189486
-0.000451433
0.00149061
-0.000663229
0.000965294
-0.000977594
0.000336857
-0.00144219
-0.000261837
-0.00212061
-0.000589627
-0.00278105
-0.00302545
-0.000423926
0.0030261
8.81786e-05
0.00202438
0.000693748
0.00143105
0.00124063
0.000934968
0.00167355
0.000635455
0.00200441
0.000440778
0.00225255
0.000310167
0.00243597
0.000219121
0.00256884
0.000153294
0.00266155
0.000103826
0.00272126
6.48111e-05
0.00275234
3.19405e-05
0.00275666
1.71469e-06
0.00273361
-2.91097e-05
0.00267988
-6.40202e-05
0.00258889
-0.000107375
0.0024498
-0.000165337
0.00224607
-0.000247705
0.0019535
-0.000370654
0.00154142
-0.000565518
0.000976556
-0.000877323
0.000300567
-0.00144462
-0.000341501
-0.00213898
-0.00336696
-6.40228e-05
0.00309012
0.000586287
0.00137407
0.00115286
0.000864476
0.00157939
0.000508436
0.00188379
0.000331056
0.0021019
0.000222671
0.00225844
0.000153627
0.0023706
0.00010696
0.00244995
7.39449e-05
0.00250424
4.95303e-05
0.00253855
3.05043e-05
0.00255588
1.46053e-05
0.00255756
4.33967e-08
0.00254326
-1.48132e-05
0.00251095
-3.17127e-05
0.00245644
-5.28601e-05
0.00237253
-8.14263e-05
0.00224752
-0.000122702
0.00206242
-0.000185553
0.00178743
-0.000290525
0.0013748
-0.000464695
0.000785846
-0.000855666
5.6824e-05
-0.00140996
-0.00331013
0.00035466
0.00273546
0.000960295
0.000768435
0.00139125
0.000433517
0.00166792
0.000231775
0.00185206
0.00014691
0.00197813
9.65995e-05
0.00206598
6.57762e-05
0.00212761
4.53294e-05
0.00217049
3.10659e-05
0.0021994
2.06259e-05
0.00221735
1.25512e-05
0.00222612
5.83573e-06
0.00222647
-3.0499e-07
0.00221823
-6.57959e-06
0.00220027
-1.37451e-05
0.00217017
-2.27635e-05
0.00212377
-3.50268e-05
0.00205402
-5.29512e-05
0.00194896
-8.04953e-05
0.00178695
-0.00012851
0.00153071
-0.000208461
0.00110052
-0.000425474
0.000463765
-0.0007732
-0.00284637
0.000722461
0.002013
0.00116147
0.000329431
0.00143104
0.000163946
0.00158167
8.11411e-05
0.00167791
5.06726e-05
0.00174172
3.27864e-05
0.00178536
2.21356e-05
0.00181555
1.51439e-05
0.0018363
1.03107e-05
0.00185013
6.79636e-06
0.00185859
4.09116e-06
0.00186258
1.84729e-06
0.00186248
-2.04037e-07
0.0018582
-2.30447e-06
0.00184917
-4.71176e-06
0.00183416
-7.75533e-06
0.00181105
-1.19125e-05
0.00177613
-1.80373e-05
0.00172312
-2.74824e-05
0.0016391
-4.44844e-05
0.00150313
-7.25004e-05
0.00123843
-0.000160773
0.000793874
-0.000328641
-0.00205249
0.000957007
0.00105599
0.00120571
8.07333e-05
0.00133577
3.38764e-05
0.00140109
1.58233e-05
0.00144196
9.80313e-06
0.00146848
6.26586e-06
0.00148641
4.20425e-06
0.0014987
2.85905e-06
0.00150707
1.93533e-06
0.0015126
1.26686e-06
0.00151594
7.5405e-07
0.00151746
3.29346e-07
0.00151731
-5.91801e-08
0.00151547
-4.58074e-07
0.00151167
-9.16966e-07
0.00150542
-1.49956e-06
0.0014958
-2.29826e-06
0.00148125
-3.48195e-06
0.00145908
-5.31102e-06
0.00142327
-8.67789e-06
0.00136495
-1.41765e-05
0.00123754
-3.33665e-05
0.000989549
-8.06507e-05
-0.00106294
0.00105599
0.00113672
0.0011706
0.00118642
0.00119623
0.00120249
0.0012067
0.00120955
0.00121149
0.00121276
0.00121351
0.00121384
0.00121378
0.00121332
0.00121241
0.00121091
0.00120861
0.00120513
0.00119982
0.00119114
0.00117696
0.00114359
0.00106294
)
;

boundaryField
{
    movingWall
    {
        type            calculated;
        value           uniform 0;
    }
    fixedWalls
    {
        type            calculated;
        value           uniform 0;
    }
    frontAndBack
    {
        type            empty;
        value           nonuniform List<scalar> 0();
    }
}


// ************************************************************************* //
