/*--------------------------------*- C++ -*----------------------------------*\
  =========                 |
  \\      /  F ield         | OpenFOAM: The Open Source CFD Toolbox
   \\    /   O peration     | Website:  https://openfoam.org
    \\  /    A nd           | Version:  8
     \\/     M anipulation  |
\*---------------------------------------------------------------------------*/
FoamFile
{
    version     2.0;
    format      ascii;
    class       volVectorField;
    location    "0.4";
    object      U;
}
// * * * * * * * * * * * * * * * * * * * * * * * * * * * * * * * * * * * * * //

dimensions      [0 1 -1 0 0 0 0];

internalField   nonuniform List<vector> 
576
(
(0.842745 -0.0656906 0)
(0.884818 -0.00445933 0)
(0.937851 -0.00165113 0)
(0.952205 -0.000691279 0)
(0.962269 -0.000424725 0)
(0.968326 -0.000265532 0)
(0.972381 -0.000176334 0)
(0.975129 -0.000118678 0)
(0.977002 -7.95096e-05 0)
(0.978256 -5.1383e-05 0)
(0.979048 -2.99206e-05 0)
(0.979473 -1.21807e-05 0)
(0.979579 4.07911e-06 0)
(0.979377 2.08668e-05 0)
(0.978839 4.03178e-05 0)
(0.977895 6.52051e-05 0)
(0.976414 9.95411e-05 0)
(0.974181 0.00015103 0)
(0.970768 0.000230591 0)
(0.965643 0.000384578 0)
(0.956351 0.000625175 0)
(0.944084 0.00165233 0)
(0.888963 0.00435271 0)
(0.851516 0.0657956 0)
(0.563331 -0.195405 0)
(0.659725 -0.0220778 0)
(0.798756 -0.00983709 0)
(0.844851 -0.00455245 0)
(0.876411 -0.00281244 0)
(0.895897 -0.00179384 0)
(0.90902 -0.00120205 0)
(0.917985 -0.000816842 0)
(0.924138 -0.000552573 0)
(0.928289 -0.000361466 0)
(0.930939 -0.00021492 0)
(0.932392 -9.35716e-05 0)
(0.932805 1.74476e-05 0)
(0.932212 0.000131476 0)
(0.930532 0.000262722 0)
(0.927542 0.000429468 0)
(0.922831 0.000658231 0)
(0.915713 0.000997836 0)
(0.904867 0.00152286 0)
(0.888538 0.00249666 0)
(0.85974 0.00407678 0)
(0.820133 0.00970487 0)
(0.675615 0.021746 0)
(0.591359 0.197077 0)
(0.309787 -0.300343 0)
(0.42725 -0.0638029 0)
(0.630361 -0.0332521 0)
(0.711631 -0.0168376 0)
(0.767467 -0.0105036 0)
(0.803043 -0.00681394 0)
(0.827263 -0.00460287 0)
(0.843981 -0.00315181 0)
(0.855555 -0.00214776 0)
(0.863428 -0.00141721 0)
(0.86851 -0.000854563 0)
(0.871351 -0.000387741 0)
(0.872243 3.90029e-05 0)
(0.871254 0.000475858 0)
(0.868235 0.00097631 0)
(0.862787 0.00160874 0)
(0.854164 0.00247242 0)
(0.841124 0.00374364 0)
(0.821352 0.00570735 0)
(0.791592 0.00921537 0)
(0.740851 0.015063 0)
(0.669526 0.0325598 0)
(0.457042 0.0635259 0)
(0.352645 0.308094 0)
(0.111706 -0.363643 0)
(0.210987 -0.129781 0)
(0.440887 -0.076473 0)
(0.553604 -0.0425057 0)
(0.6334 -0.0270623 0)
(0.686565 -0.0179014 0)
(0.723463 -0.0122206 0)
(0.749335 -0.00844017 0)
(0.767465 -0.0057956 0)
(0.779937 -0.00385607 0)
(0.788088 -0.0023538 0)
(0.792743 -0.00110334 0)
(0.794341 4.02337e-05 0)
(0.792987 0.00120829 0)
(0.788459 0.0025409 0)
(0.780158 0.00421607 0)
(0.766965 0.00649155 0)
(0.747026 0.0098084 0)
(0.717039 0.0149064 0)
(0.672165 0.0236574 0)
(0.599122 0.0383877 0)
(0.496238 0.0750485 0)
(0.251355 0.131527 0)
(0.156775 0.383463 0)
(-0.0114866 -0.376788 0)
(0.0397508 -0.209724 0)
(0.249347 -0.139194 0)
(0.378814 -0.0858294 0)
(0.476434 -0.0566603 0)
(0.545629 -0.0384925 0)
(0.595219 -0.0267069 0)
(0.630823 -0.01867 0)
(0.656222 -0.0129508 0)
(0.673961 -0.00870394 0)
(0.685731 -0.0053846 0)
(0.692601 -0.00260562 0)
(0.695144 -5.86923e-05 0)
(0.6935 0.00253872 0)
(0.687363 0.00548907 0)
(0.675925 0.00917319 0)
(0.657702 0.0141371 0)
(0.630271 0.0212758 0)
(0.589572 0.0320992 0)
(0.52965 0.0498188 0)
(0.437932 0.0790786 0)
(0.312461 0.138444 0)
(0.0803192 0.218081 0)
(0.0214104 0.412362 0)
(-0.0613517 -0.342457 0)
(-0.0641008 -0.283121 0)
(0.0835766 -0.213669 0)
(0.204768 -0.147036 0)
(0.306363 -0.102415 0)
(0.384656 -0.072153 0)
(0.443638 -0.0512795 0)
(0.487504 -0.0364803 0)
(0.519625 -0.0256615 0)
(0.542528 -0.017468 0)
(0.558006 -0.0109699 0)
(0.567237 -0.0054749 0)
(0.570861 -0.000413015 0)
(0.569012 0.00474793 0)
(0.561301 0.0105819 0)
(0.546741 0.017802 0)
(0.523586 0.0274073 0)
(0.489092 0.0409489 0)
(0.439066 0.0609329 0)
(0.367846 0.091803 0)
(0.267245 0.13979 0)
(0.13959 0.218226 0)
(-0.0369161 0.304614 0)
(-0.0474592 0.391226 0)
(-0.060967 -0.277696 0)
(-0.09949 -0.325852 0)
(-0.03017 -0.282466 0)
(0.0561363 -0.217333 0)
(0.141998 -0.162145 0)
(0.216174 -0.119757 0)
(0.27632 -0.087982 0)
(0.32341 -0.0641337 0)
(0.359215 -0.0459774 0)
(0.38548 -0.0318052 0)
(0.403631 -0.0203047 0)
(0.414673 -0.010417 0)
(0.419148 -0.00121925 0)
(0.417116 0.00817819 0)
(0.408114 0.0187449 0)
(0.391087 0.0316611 0)
(0.364303 0.0485074 0)
(0.32528 0.0715457 0)
(0.270826 0.104045 0)
(0.197792 0.150567 0)
(0.105237 0.215577 0)
(0.00345771 0.299718 0)
(-0.0932889 0.364913 0)
(-0.0620626 0.330458 0)
(-0.0407132 -0.206788 0)
(-0.0888629 -0.323938 0)
(-0.0832789 -0.323101 0)
(-0.0459565 -0.277385 0)
(0.00635147 -0.22368 0)
(0.0602045 -0.174803 0)
(0.108933 -0.133901 0)
(0.150069 -0.10073 0)
(0.183084 -0.0739925 0)
(0.208264 -0.0521893 0)
(0.226137 -0.0338819 0)
(0.237162 -0.0177319 0)
(0.241559 -0.0024605 0)
(0.239229 0.0132256 0)
(0.22969 0.0307553 0)
(0.212062 0.0518021 0)
(0.185125 0.0784291 0)
(0.147541 0.113193 0)
(0.0984344 0.158993 0)
(0.038844 0.218119 0)
(-0.0252482 0.288935 0)
(-0.0784295 0.357709 0)
(-0.099737 0.376883 0)
(-0.0479088 0.252992 0)
(-0.0218912 -0.14669 0)
(-0.0630953 -0.28359 0)
(-0.0915436 -0.320595 0)
(-0.0975642 -0.304116 0)
(-0.085322 -0.265095 0)
(-0.063456 -0.22007 0)
(-0.0384714 -0.176681 0)
(-0.0142639 -0.137856 0)
(0.00700195 -0.10416 0)
(0.0242107 -0.0750355 0)
(0.0368277 -0.0494124 0)
(0.0445741 -0.0259793 0)
(0.047224 -0.00329141 0)
(0.0445186 0.0201999 0)
(0.0361239 0.0462225 0)
(0.0216778 0.0766424 0)
(0.00101703 0.113413 0)
(-0.0254129 0.158292 0)
(-0.0558402 0.212028 0)
(-0.0859966 0.272526 0)
(-0.1076 0.33119 0)
(-0.108494 0.366716 0)
(-0.0804031 0.336854 0)
(-0.0287768 0.179463 0)
(-0.0112391 -0.10075 0)
(-0.0425019 -0.22127 0)
(-0.0819802 -0.274577 0)
(-0.114672 -0.282148 0)
(-0.135722 -0.263147 0)
(-0.146859 -0.231038 0)
(-0.151114 -0.194149 0)
(-0.151161 -0.157095 0)
(-0.149076 -0.122027 0)
(-0.146376 -0.0895449 0)
(-0.14411 -0.05932 0)
(-0.142989 -0.0304665 0)
(-0.143494 -0.00176782 0)
(-0.145827 0.0281816 0)
(-0.14994 0.0608352 0)
(-0.155516 0.0975343 0)
(-0.161676 0.139194 0)
(-0.166747 0.185738 0)
(-0.16799 0.23513 0)
(-0.161395 0.281878 0)
(-0.141922 0.315022 0)
(-0.105757 0.316093 0)
(-0.0574356 0.25911 0)
(-0.0156633 0.117992 0)
(-0.00696612 -0.0624226 0)
(-0.0322202 -0.145858 0)
(-0.0735764 -0.191406 0)
(-0.118975 -0.207425 0)
(-0.160941 -0.203083 0)
(-0.196896 -0.186083 0)
(-0.22637 -0.162122 0)
(-0.24973 -0.135014 0)
(-0.267691 -0.107025 0)
(-0.281045 -0.0792455 0)
(-0.290482 -0.0519379 0)
(-0.296495 -0.0248198 0)
(-0.299318 0.00271502 0)
(-0.298948 0.0314099 0)
(-0.29506 0.0618875 0)
(-0.286966 0.0944762 0)
(-0.273643 0.128878 0)
(-0.253786 0.163737 0)
(-0.22599 0.196099 0)
(-0.189121 0.220825 0)
(-0.143044 0.230175 0)
(-0.0904337 0.214016 0)
(-0.0404729 0.161703 0)
(-0.00890101 0.0669287 0)
(-0.00583794 -0.0220387 0)
(-0.0292273 -0.0527018 0)
(-0.0711926 -0.0709342 0)
(-0.121975 -0.0789398 0)
(-0.17401 -0.0793038 0)
(-0.223187 -0.0743864 0)
(-0.267224 -0.0660963 0)
(-0.304881 -0.0558448 0)
(-0.335617 -0.0445783 0)
(-0.359304 -0.0328494 0)
(-0.375989 -0.0209079 0)
(-0.38572 -0.00879374 0)
(-0.388444 0.00357182 0)
(-0.383977 0.0162958 0)
(-0.371977 0.0294338 0)
(-0.351984 0.0428825 0)
(-0.323562 0.0562678 0)
(-0.286506 0.0688149 0)
(-0.241166 0.0792187 0)
(-0.188851 0.085559 0)
(-0.132323 0.0853462 0)
(-0.0766936 0.0758279 0)
(-0.0308967 0.0547423 0)
(-0.00593015 0.0215906 0)
(-0.0058379 0.02204 0)
(-0.0292271 0.0527053 0)
(-0.0711922 0.0709391 0)
(-0.121974 0.0789456 0)
(-0.174009 0.07931 0)
(-0.223185 0.0743925 0)
(-0.267222 0.0661019 0)
(-0.304879 0.0558497 0)
(-0.335616 0.0445821 0)
(-0.359303 0.032852 0)
(-0.375987 0.0209092 0)
(-0.385718 0.00879361 0)
(-0.388442 -0.00357333 0)
(-0.383975 -0.0162986 0)
(-0.371976 -0.0294377 0)
(-0.351983 -0.0428874 0)
(-0.323561 -0.0562733 0)
(-0.286505 -0.0688208 0)
(-0.241166 -0.0792246 0)
(-0.18885 -0.0855645 0)
(-0.132323 -0.085351 0)
(-0.0766936 -0.0758316 0)
(-0.0308967 -0.0547447 0)
(-0.00593016 -0.0215913 0)
(-0.00696603 0.0624235 0)
(-0.0322197 0.14586 0)
(-0.0735754 0.19141 0)
(-0.118973 0.207429 0)
(-0.160939 0.203087 0)
(-0.196892 0.186088 0)
(-0.226367 0.162127 0)
(-0.249726 0.135019 0)
(-0.267686 0.107029 0)
(-0.28104 0.0792481 0)
(-0.290477 0.0519395 0)
(-0.296491 0.0248202 0)
(-0.299314 -0.00271577 0)
(-0.298944 -0.0314117 0)
(-0.295056 -0.0618904 0)
(-0.286962 -0.0944799 0)
(-0.27364 -0.128882 0)
(-0.253784 -0.163742 0)
(-0.225989 -0.196104 0)
(-0.18912 -0.22083 0)
(-0.143043 -0.230179 0)
(-0.0904334 -0.214019 0)
(-0.0404729 -0.161705 0)
(-0.00890101 -0.0669295 0)
(-0.011239 0.10075 0)
(-0.0425015 0.221271 0)
(-0.0819791 0.274579 0)
(-0.11467 0.28215 0)
(-0.135719 0.26315 0)
(-0.146855 0.231041 0)
(-0.15111 0.194152 0)
(-0.151156 0.157099 0)
(-0.149071 0.122029 0)
(-0.146371 0.0895471 0)
(-0.144104 0.0593215 0)
(-0.142983 0.0304671 0)
(-0.143489 0.00176761 0)
(-0.145822 -0.0281826 0)
(-0.149935 -0.060837 0)
(-0.155511 -0.0975368 0)
(-0.161672 -0.139197 0)
(-0.166744 -0.185741 0)
(-0.167987 -0.235133 0)
(-0.161393 -0.281881 0)
(-0.141921 -0.315026 0)
(-0.105757 -0.316096 0)
(-0.0574355 -0.259112 0)
(-0.0156633 -0.117993 0)
(-0.0218911 0.14669 0)
(-0.063095 0.283591 0)
(-0.0915427 0.320596 0)
(-0.0975627 0.304117 0)
(-0.0853198 0.265097 0)
(-0.063453 0.220072 0)
(-0.0384676 0.176684 0)
(-0.0142594 0.137858 0)
(0.00700705 0.104162 0)
(0.0242163 0.0750371 0)
(0.0368336 0.0494135 0)
(0.0445802 0.0259799 0)
(0.0472302 0.0032914 0)
(0.0445245 -0.0202005 0)
(0.0361295 -0.0462236 0)
(0.021683 -0.076644 0)
(0.00102154 -0.113415 0)
(-0.0254091 -0.158294 0)
(-0.0558372 -0.21203 0)
(-0.0859944 -0.272529 0)
(-0.107599 -0.331192 0)
(-0.108493 -0.366718 0)
(-0.0804028 -0.336855 0)
(-0.0287767 -0.179464 0)
(-0.0407132 0.206788 0)
(-0.0888628 0.323938 0)
(-0.0832784 0.323101 0)
(-0.0459555 0.277386 0)
(0.00635307 0.223681 0)
(0.0602068 0.174805 0)
(0.108936 0.133903 0)
(0.150073 0.100732 0)
(0.183088 0.0739939 0)
(0.208269 0.0521904 0)
(0.226142 0.0338827 0)
(0.237167 0.0177323 0)
(0.241565 0.00246052 0)
(0.239235 -0.013226 0)
(0.229695 -0.030756 0)
(0.212067 -0.051803 0)
(0.185129 -0.0784303 0)
(0.147545 -0.113194 0)
(0.0984374 -0.158994 0)
(0.0388463 -0.21812 0)
(-0.0252467 -0.288936 0)
(-0.0784286 -0.35771 0)
(-0.0997367 -0.376883 0)
(-0.0479087 -0.252992 0)
(-0.0609669 0.277695 0)
(-0.0994899 0.325852 0)
(-0.0301697 0.282466 0)
(0.0561369 0.217333 0)
(0.141999 0.162145 0)
(0.216175 0.119758 0)
(0.276322 0.0879829 0)
(0.323413 0.0641346 0)
(0.359219 0.0459782 0)
(0.385484 0.0318059 0)
(0.403636 0.0203052 0)
(0.414678 0.0104173 0)
(0.419153 0.00121927 0)
(0.417121 -0.0081784 0)
(0.408118 -0.0187453 0)
(0.391091 -0.0316617 0)
(0.364307 -0.0485081 0)
(0.325284 -0.0715465 0)
(0.270829 -0.104046 0)
(0.197794 -0.150567 0)
(0.105238 -0.215578 0)
(0.00345849 -0.299719 0)
(-0.0932886 -0.364914 0)
(-0.0620625 -0.330458 0)
(-0.0613516 0.342456 0)
(-0.0641007 0.283121 0)
(0.0835767 0.213669 0)
(0.204769 0.147036 0)
(0.306364 0.102416 0)
(0.384657 0.0721535 0)
(0.44364 0.0512801 0)
(0.487506 0.0364809 0)
(0.519628 0.025662 0)
(0.542531 0.0174684 0)
(0.55801 0.0109702 0)
(0.567241 0.00547506 0)
(0.570865 0.000413029 0)
(0.569016 -0.00474805 0)
(0.561305 -0.0105821 0)
(0.546745 -0.0178024 0)
(0.523589 -0.0274077 0)
(0.489094 -0.0409494 0)
(0.439068 -0.0609333 0)
(0.367847 -0.0918034 0)
(0.267246 -0.13979 0)
(0.13959 -0.218227 0)
(-0.0369158 -0.304615 0)
(-0.0474592 -0.391226 0)
(-0.0114865 0.376788 0)
(0.039751 0.209724 0)
(0.249347 0.139194 0)
(0.378815 0.0858295 0)
(0.476434 0.0566604 0)
(0.54563 0.0384928 0)
(0.59522 0.0267072 0)
(0.630824 0.0186702 0)
(0.656225 0.0129511 0)
(0.673964 0.00870415 0)
(0.685734 0.00538475 0)
(0.692604 0.00260571 0)
(0.695147 5.87032e-05 0)
(0.693503 -0.00253878 0)
(0.687366 -0.00548919 0)
(0.675927 -0.00917337 0)
(0.657705 -0.0141373 0)
(0.630273 -0.0212761 0)
(0.589574 -0.0320995 0)
(0.529651 -0.0498191 0)
(0.437933 -0.0790788 0)
(0.312462 -0.138444 0)
(0.0803194 -0.218081 0)
(0.0214104 -0.412362 0)
(0.111706 0.363642 0)
(0.210987 0.129781 0)
(0.440887 0.0764729 0)
(0.553604 0.0425057 0)
(0.6334 0.0270624 0)
(0.686565 0.0179015 0)
(0.723464 0.0122207 0)
(0.749336 0.00844031 0)
(0.767467 0.00579572 0)
(0.779939 0.00385617 0)
(0.78809 0.00235388 0)
(0.792745 0.00110338 0)
(0.794343 -4.02284e-05 0)
(0.792989 -0.00120832 0)
(0.788461 -0.00254096 0)
(0.78016 -0.00421615 0)
(0.766966 -0.00649165 0)
(0.747027 -0.00980851 0)
(0.71704 -0.0149065 0)
(0.672166 -0.0236575 0)
(0.599122 -0.0383878 0)
(0.496238 -0.0750485 0)
(0.251356 -0.131527 0)
(0.156775 -0.383463 0)
(0.309787 0.300343 0)
(0.427251 0.0638029 0)
(0.630361 0.0332521 0)
(0.711631 0.0168376 0)
(0.767467 0.0105036 0)
(0.803043 0.00681399 0)
(0.827264 0.00460292 0)
(0.843982 0.00315186 0)
(0.855556 0.00214781 0)
(0.863429 0.00141724 0)
(0.868511 0.00085459 0)
(0.871353 0.000387755 0)
(0.872245 -3.90023e-05 0)
(0.871255 -0.00047587 0)
(0.868236 -0.000976334 0)
(0.862788 -0.00160877 0)
(0.854165 -0.00247246 0)
(0.841125 -0.00374369 0)
(0.821352 -0.0057074 0)
(0.791592 -0.00921542 0)
(0.740851 -0.015063 0)
(0.669526 -0.0325598 0)
(0.457042 -0.0635259 0)
(0.352645 -0.308094 0)
(0.563331 0.195405 0)
(0.659725 0.0220778 0)
(0.798756 0.00983708 0)
(0.844851 0.00455245 0)
(0.876411 0.00281244 0)
(0.895897 0.00179385 0)
(0.909021 0.00120207 0)
(0.917985 0.000816856 0)
(0.924138 0.000552585 0)
(0.928289 0.000361477 0)
(0.93094 0.000214929 0)
(0.932393 9.35776e-05 0)
(0.932805 -1.74449e-05 0)
(0.932213 -0.000131476 0)
(0.930532 -0.000262725 0)
(0.927543 -0.000429474 0)
(0.922831 -0.00065824 0)
(0.915713 -0.000997846 0)
(0.904867 -0.00152286 0)
(0.888538 -0.00249667 0)
(0.859741 -0.00407679 0)
(0.820133 -0.00970488 0)
(0.675615 -0.021746 0)
(0.591359 -0.197077 0)
(0.842745 0.0656902 0)
(0.884818 0.00445932 0)
(0.937851 0.00165112 0)
(0.952205 0.000691278 0)
(0.962269 0.000424726 0)
(0.968326 0.000265534 0)
(0.972381 0.000176336 0)
(0.975129 0.00011868 0)
(0.977002 7.95112e-05 0)
(0.978256 5.13841e-05 0)
(0.979048 2.99211e-05 0)
(0.979473 1.21805e-05 0)
(0.97958 -4.08e-06 0)
(0.979377 -2.08682e-05 0)
(0.978839 -4.03197e-05 0)
(0.977895 -6.52073e-05 0)
(0.976414 -9.95435e-05 0)
(0.974182 -0.000151033 0)
(0.970768 -0.000230594 0)
(0.965643 -0.000384581 0)
(0.956351 -0.000625177 0)
(0.944084 -0.00165233 0)
(0.888963 -0.00435271 0)
(0.851516 -0.0657956 0)
)
;

boundaryField
{
    movingWall
    {
        type            fixedValue;
        value           uniform (1 0 0);
    }
    fixedWalls
    {
        type            noSlip;
    }
    frontAndBack
    {
        type            empty;
    }
}


// ************************************************************************* //
