/*--------------------------------*- C++ -*----------------------------------*\
  =========                 |
  \\      /  F ield         | OpenFOAM: The Open Source CFD Toolbox
   \\    /   O peration     | Website:  https://openfoam.org
    \\  /    A nd           | Version:  7
     \\/     M anipulation  |
\*---------------------------------------------------------------------------*/
FoamFile
{
    version     2.0;
    format      ascii;
    class       volScalarField;
    location    "4.3";
    object      T;
}
// * * * * * * * * * * * * * * * * * * * * * * * * * * * * * * * * * * * * * //

dimensions      [0 0 0 1 0 0 0];

internalField   nonuniform List<scalar> 
32100
(
4.61829e+126
5.09459e+125
-8.85487e+124
5.59814e+123
5.25314e+122
-1.44249e+122
-2.8312e+120
1.22803e+120
-8.44596e+118
-8.52978e+117
1.35915e+117
2.91611e+114
-7.02744e+112
-1.93041e+113
-5.54259e+112
5.9472e+125
-9.67715e+124
5.76832e+123
5.69091e+122
-1.4853e+122
-3.0325e+120
1.26366e+120
-8.52125e+118
-7.88178e+117
2.68166e+117
5.41014e+116
1.04671e+115
-1.63907e+114
-1.96592e+113
-5.06766e+112
-1.069e+125
6.03846e+123
6.31048e+122
-1.54502e+122
-3.24586e+120
1.31513e+120
-8.90772e+118
-8.77219e+117
2.4517e+117
1.96691e+116
1.26608e+116
4.96624e+114
-2.67736e+114
-1.10249e+113
-4.25875e+112
6.38753e+123
7.66847e+122
-1.6073e+122
-4.09193e+120
1.41122e+120
-8.31536e+118
-1.17131e+118
2.01758e+117
6.11303e+115
-9.97038e+114
2.47072e+115
-1.41944e+114
-2.47973e+114
-1.82063e+112
-3.05622e+112
1.11668e+123
-1.29145e+122
-3.27016e+120
9.80927e+119
-4.87578e+118
-4.36057e+117
-2.53587e+116
-3.26518e+116
-3.02227e+115
1.47892e+114
-1.29498e+114
-3.06205e+114
-1.58785e+114
4.134e+112
-1.78303e+112
6.22641e+121
3.71682e+121
2.59309e+120
-5.38865e+119
2.49423e+118
8.11987e+117
-2.46869e+117
-4.18329e+116
2.2244e+114
-1.95601e+114
-2.63111e+114
-2.00087e+114
-7.2375e+113
6.17364e+112
-7.98099e+111
2.23375e+122
4.26429e+121
1.18768e+120
-4.4616e+119
3.15394e+118
6.21539e+117
-2.36977e+117
-3.91956e+116
-1.78487e+114
-2.02798e+113
-1.1466e+114
-7.50519e+113
-2.04728e+113
5.34914e+112
-2.85713e+111
2.14534e+122
3.96456e+121
1.48607e+120
-4.15943e+119
2.27127e+118
6.56971e+117
-2.128e+117
-4.01129e+116
-4.30912e+114
7.52745e+113
-3.64867e+113
-1.02648e+113
-3.41332e+111
3.31972e+112
-1.35663e+111
1.9578e+122
3.8347e+121
1.71243e+120
-3.97781e+119
1.61248e+118
6.95923e+117
-1.9114e+117
-4.04349e+116
-7.35008e+114
9.9981e+113
-1.71145e+113
5.15394e+112
3.16506e+112
1.46545e+112
-1.28821e+111
1.79636e+122
3.68962e+121
1.91268e+120
-3.73456e+119
9.68027e+117
7.19964e+117
-1.68441e+117
-4.03866e+116
-1.05974e+115
1.03424e+114
-1.63361e+113
3.76461e+112
2.07694e+112
3.82702e+111
-1.23946e+111
1.64619e+122
3.5447e+121
2.10501e+120
-3.46139e+119
3.33134e+117
7.32505e+117
-1.45503e+117
-3.99666e+116
-1.37461e+115
1.02424e+114
-1.53029e+113
1.85002e+112
1.02704e+112
-1.13333e+110
-8.9514e+110
1.50764e+122
3.4147e+121
2.26205e+120
-3.15498e+119
-2.62942e+117
7.33022e+117
-1.22878e+117
-3.91904e+116
-1.66817e+115
9.72664e+113
-1.27487e+113
9.36415e+111
6.65962e+111
-4.30671e+110
-4.50397e+110
1.38311e+122
3.25399e+121
2.28678e+120
-2.80134e+119
-7.50452e+117
7.21464e+117
-1.01407e+117
-3.80952e+116
-1.92947e+115
8.74416e+113
-1.00563e+113
5.06659e+111
5.419e+111
-1.186e+108
-1.35933e+110
1.23341e+122
2.71131e+121
1.99005e+120
-2.13646e+119
-1.05324e+118
6.8376e+117
-8.28045e+116
-3.66169e+116
-2.14355e+115
7.41099e+113
-8.13464e+112
1.39305e+111
3.93269e+111
8.79182e+109
-5.2917e+109
8.63732e+121
2.03803e+121
1.72507e+120
-1.55105e+119
-1.17794e+118
5.64223e+117
-6.08269e+116
-3.30232e+116
-2.30063e+115
6.07961e+113
-6.68187e+112
-1.0384e+111
4.14114e+111
1.66922e+110
-3.08792e+109
6.18053e+121
1.67441e+121
1.61406e+120
-1.21687e+119
-1.28822e+118
4.73458e+117
-3.93756e+116
-2.9671e+116
-2.50182e+115
4.67745e+113
-5.00484e+112
-3.4321e+111
5.12768e+111
2.89588e+110
-2.46611e+109
5.26989e+121
1.51606e+121
1.57554e+120
-9.99389e+118
-1.43464e+118
4.40213e+117
-2.2936e+116
-2.78969e+116
-2.75754e+115
2.88441e+113
-3.03675e+112
-6.25241e+111
5.43175e+111
4.16919e+110
-2.33271e+109
4.64197e+121
1.42382e+121
1.59719e+120
-8.17507e+118
-1.59852e+118
4.11002e+117
-9.42393e+115
-2.65466e+116
-3.0368e+115
5.61561e+112
-9.36109e+111
-8.90222e+111
5.1982e+111
5.22587e+110
-2.14011e+109
4.12438e+121
1.33999e+121
1.61616e+120
-6.25205e+118
-1.74825e+118
3.76081e+117
3.23534e+115
-2.52212e+116
-3.32591e+115
-2.31359e+113
1.15648e+112
-1.10251e+112
4.66214e+111
6.02084e+110
-1.7174e+109
3.67906e+121
1.25785e+121
1.62872e+120
-4.17739e+118
-1.87987e+118
3.34698e+117
1.54626e+116
-2.36871e+116
-3.61038e+115
-5.75288e+113
3.09942e+112
-1.26155e+112
4.117e+111
6.77154e+110
-1.07562e+109
3.26786e+121
1.1718e+121
1.62922e+120
-2.00716e+118
-1.98267e+118
2.86719e+117
2.70943e+116
-2.18695e+116
-3.88447e+115
-9.79539e+113
4.80118e+112
-1.34279e+112
3.45564e+111
7.34071e+110
-2.29805e+108
2.87377e+121
1.07937e+121
1.62048e+120
2.1888e+117
-2.04772e+118
2.32404e+117
3.77831e+116
-1.97899e+116
-4.15147e+115
-1.45435e+114
6.14919e+112
-1.33926e+112
2.66278e+111
7.51494e+110
7.19189e+108
2.50159e+121
9.85033e+120
1.60493e+120
2.48253e+118
-2.06888e+118
1.72231e+117
4.71485e+116
-1.74529e+116
-4.41383e+115
-2.01785e+114
7.0282e+112
-1.27336e+112
1.93379e+111
7.52166e+110
1.65633e+109
2.15684e+121
8.91982e+120
1.58147e+120
4.76623e+118
-2.03804e+118
1.06379e+117
5.48702e+116
-1.48575e+116
-4.66693e+115
-2.6891e+114
7.29536e+112
-1.1511e+112
1.28097e+111
7.52229e+110
2.55505e+109
1.84564e+121
8.04516e+120
1.55235e+120
7.05724e+118
-1.95063e+118
3.63636e+116
6.06412e+116
-1.19787e+116
-4.90014e+115
-3.47716e+114
6.68825e+112
-9.67224e+111
6.54328e+110
7.5565e+110
3.47191e+109
1.56805e+121
7.22759e+120
1.51447e+120
9.329e+118
-1.80157e+118
-3.57136e+116
6.40739e+116
-8.7948e+115
-5.09843e+115
-4.397e+114
4.82354e+112
-7.14002e+111
1.55963e+109
7.66288e+110
4.54408e+109
1.32738e+121
6.46375e+120
1.46886e+120
1.15722e+119
-1.58582e+118
-1.07876e+117
6.48098e+116
-5.31981e+115
-5.24058e+115
-5.46327e+114
1.17756e+112
-3.63187e+111
-6.62187e+110
7.69832e+110
5.81155e+109
1.12344e+121
5.78363e+120
1.42424e+120
1.38148e+119
-1.29739e+118
-1.77792e+117
6.24457e+116
-1.58406e+115
-5.29016e+115
-6.73256e+114
-4.90307e+112
9.0868e+110
-1.33246e+111
7.41554e+110
7.0764e+109
9.48353e+120
5.1948e+120
1.3852e+120
1.60694e+119
-9.2872e+117
-2.42752e+117
5.66453e+116
2.35475e+115
-5.21552e+115
-8.19627e+114
-1.42682e+113
6.21848e+111
-1.94284e+111
6.90346e+110
8.30451e+109
7.93737e+120
4.6538e+120
1.34444e+120
1.82627e+119
-4.73792e+117
-2.992e+117
4.69704e+116
6.40136e+115
-4.99778e+115
-9.83046e+114
-2.79213e+113
1.19995e+112
-2.46106e+111
6.18019e+110
9.506e+109
6.54989e+120
4.0972e+120
1.28387e+120
2.0257e+119
6.75938e+116
-3.42553e+117
3.29649e+116
1.04252e+116
-4.59782e+115
-1.16733e+115
-4.74312e+113
1.75039e+112
-2.73528e+111
5.10175e+110
1.04409e+110
5.33799e+120
3.52263e+120
1.1938e+120
2.19966e+119
6.9352e+117
-3.6735e+117
1.42681e+116
1.41885e+116
-3.95857e+115
-1.36837e+115
-7.53162e+113
2.14224e+112
-2.69016e+111
3.85813e+110
1.12673e+110
4.35005e+120
3.01212e+120
1.10359e+120
2.34532e+119
1.401e+118
-3.66982e+117
-9.22764e+115
1.72905e+116
-3.01025e+115
-1.57972e+115
-1.15488e+114
2.26299e+112
-2.43362e+111
2.57281e+110
1.26106e+110
3.55242e+120
2.62488e+120
1.04142e+120
2.47206e+119
2.19146e+118
-3.34144e+117
-3.69791e+116
1.91755e+116
-1.70593e+115
-1.78059e+115
-1.72854e+114
1.74227e+112
-1.80489e+111
8.90667e+109
1.49186e+110
2.88316e+120
2.31215e+120
9.92595e+119
2.58851e+119
3.07222e+118
-2.59636e+117
-6.73291e+116
1.91334e+116
-4.51669e+113
-1.93961e+115
-2.53579e+114
-3.15363e+111
-3.16187e+110
-1.61616e+110
1.81331e+110
2.32032e+120
2.00293e+120
9.31154e+119
2.69594e+119
4.04872e+118
-1.31633e+117
-9.66676e+116
1.64933e+116
1.91432e+115
-2.00371e+115
-3.62661e+114
-5.59671e+112
2.58511e+111
-5.21086e+110
2.16501e+110
1.85085e+120
1.71049e+120
8.63682e+119
2.79921e+119
5.13048e+118
6.09401e+116
-1.20894e+117
1.08687e+116
4.02048e+115
-1.90721e+115
-4.98454e+114
-1.73813e+113
7.29622e+111
-9.64693e+110
2.36088e+110
1.45711e+120
1.45759e+120
8.03068e+119
2.89502e+119
6.30591e+118
3.24375e+117
-1.35928e+117
2.06655e+115
5.9977e+115
-1.59338e+115
-6.47832e+114
-3.86182e+113
1.26193e+112
-1.28701e+111
2.04709e+110
1.12827e+120
1.23899e+120
7.47192e+119
2.96605e+119
7.49185e+118
6.54794e+117
-1.36318e+117
-9.77563e+115
7.43036e+115
-1.02351e+115
-7.85012e+114
-7.19455e+113
1.49939e+112
-1.11039e+111
8.18379e+109
8.55328e+119
1.04745e+120
6.93895e+119
3.00471e+119
8.50536e+118
1.03904e+118
-1.15956e+117
-2.38163e+116
7.83759e+115
-2.13968e+114
-8.77268e+114
-1.18799e+114
7.08657e+111
1.31378e+110
-1.7207e+110
6.31291e+119
8.70798e+119
6.36169e+119
2.98303e+119
9.27995e+118
1.45648e+118
-7.01401e+116
-3.80354e+116
6.8589e+115
7.42576e+114
-8.95987e+114
-1.78153e+114
-2.67898e+112
3.26581e+111
-5.52616e+110
4.52872e+119
7.02669e+119
5.69501e+119
2.8766e+119
9.89585e+118
1.88533e+118
2.02519e+115
-5.00913e+116
4.43304e+115
1.7166e+115
-8.20845e+114
-2.39146e+114
-8.99748e+112
7.51537e+111
-8.34939e+110
3.19345e+119
5.50415e+119
4.94475e+119
2.71302e+119
1.03705e+119
2.30682e+118
9.77535e+116
-5.67853e+116
6.96954e+114
2.55551e+115
-6.37566e+114
-2.76748e+114
-1.72819e+113
1.13539e+112
-7.8695e+110
2.23942e+119
4.2482e+119
4.2015e+119
2.539e+119
1.07039e+119
2.70741e+118
2.11552e+117
-5.73218e+116
-3.94145e+115
3.09078e+115
-3.95295e+114
-2.94931e+114
-2.69022e+113
1.37121e+112
-3.99702e+110
1.57371e+119
3.28102e+119
3.56585e+119
2.37329e+119
1.0928e+119
3.08515e+118
3.38178e+117
-5.13146e+116
-8.52088e+115
3.09145e+115
-1.43468e+114
-2.93525e+114
-3.30671e+113
1.49786e+112
1.06545e+111
1.11062e+119
2.55335e+119
3.04225e+119
2.21359e+119
1.10853e+119
3.44799e+118
4.75431e+117
-3.98804e+116
-1.26116e+116
2.74706e+115
8.02237e+113
-2.54466e+114
-3.24468e+113
7.69342e+111
1.26317e+111
7.8168e+118
1.99638e+119
2.61554e+119
2.06918e+119
1.11964e+119
3.80652e+118
6.2432e+117
-2.44346e+116
-1.59939e+116
2.32537e+115
2.46866e+114
-2.12082e+114
-2.96129e+113
2.72755e+111
6.9021e+110
5.46355e+118
1.5581e+119
2.25393e+119
1.93783e+119
1.1245e+119
4.14602e+118
7.84337e+117
-4.28689e+115
-1.92341e+116
1.87629e+115
3.90951e+114
-1.87977e+114
-2.8793e+113
5.21474e+110
5.65296e+110
3.74299e+118
1.2019e+119
1.92272e+119
1.80198e+119
1.11693e+119
4.43126e+118
9.46177e+117
2.14908e+116
-2.22168e+116
1.34294e+115
5.14759e+114
-1.73993e+114
-2.99643e+113
-1.11969e+111
5.62235e+110
2.51323e+118
9.13664e+118
1.62227e+119
1.66363e+119
1.09868e+119
4.67148e+118
1.10749e+118
5.32165e+116
-2.45044e+116
6.68175e+114
6.29384e+114
-1.62939e+114
-3.18571e+113
-3.00686e+111
5.52408e+110
1.64537e+118
6.85812e+118
1.36472e+119
1.53297e+119
1.07687e+119
4.90857e+118
1.28378e+118
9.16067e+116
-2.6069e+116
-1.62045e+114
7.30609e+114
-1.50496e+114
-3.31567e+113
-5.41976e+111
3.1787e+110
1.04303e+118
5.06391e+118
1.13999e+119
1.39518e+119
1.05273e+119
5.14767e+118
1.48336e+118
1.39196e+117
-2.6726e+116
-1.15193e+115
8.05903e+114
-1.33045e+114
-3.26717e+113
-8.12862e+111
-3.84286e+110
6.45249e+117
3.64572e+118
9.27454e+118
1.24835e+119
1.02434e+119
5.39103e+118
1.70048e+118
1.98164e+117
-2.60151e+116
-2.27216e+115
8.46853e+114
-1.11886e+114
-3.02825e+113
-1.06922e+112
-1.62684e+111
3.87116e+117
2.55854e+118
7.34251e+118
1.10523e+119
9.97968e+118
5.64578e+118
1.93779e+118
2.69849e+117
-2.33713e+116
-3.46754e+115
8.50897e+114
-9.02267e+113
-2.64004e+113
-1.29843e+112
-3.81564e+111
2.18135e+117
1.75238e+118
5.73426e+118
9.72404e+118
9.69521e+118
5.88861e+118
2.19507e+118
3.55528e+117
-1.82198e+116
-4.65064e+115
8.10456e+114
-7.04554e+113
-2.13014e+113
-1.47638e+112
-7.22056e+111
1.1107e+117
1.15168e+118
4.37057e+118
8.43149e+118
9.27371e+118
6.09912e+118
2.47395e+118
4.5665e+117
-9.96115e+115
-5.66736e+115
7.13431e+114
-5.37965e+113
-1.53498e+113
-1.20203e+112
-8.49991e+111
4.7533e+116
7.09214e+117
3.20622e+118
7.11011e+118
8.71155e+118
6.26644e+118
2.78074e+118
5.78456e+117
1.94931e+115
-6.15463e+115
5.44863e+114
-3.77807e+113
-7.8674e+112
-6.39342e+111
-8.04068e+111
1.4581e+116
4.00614e+117
2.23943e+118
5.8066e+118
8.0043e+118
6.35832e+118
3.09606e+118
7.21864e+117
1.77958e+116
-6.0203e+115
3.49024e+114
-2.09662e+113
-3.57882e+112
-5.6623e+111
-7.92557e+111
1.00419e+115
2.00092e+117
1.46207e+118
4.55061e+118
7.14024e+118
6.34597e+118
3.4109e+118
8.782e+117
3.80866e+116
-5.86151e+115
1.88449e+114
-4.2108e+112
-5.07198e+112
-5.17076e+111
-9.5314e+111
-2.34586e+115
8.27958e+116
8.66778e+117
3.37812e+118
6.15944e+118
6.22355e+118
3.72722e+118
1.02814e+118
6.46839e+116
-7.70493e+115
1.72646e+114
-9.0362e+112
-7.14257e+112
-4.36809e+112
-3.28348e+112
-1.33801e+115
2.37121e+116
4.38117e+117
2.32537e+118
5.1137e+118
5.98876e+118
4.03651e+118
1.14709e+118
9.94449e+116
-1.17862e+116
5.44071e+114
-2.13235e+113
8.10788e+112
7.77024e+111
-3.252e+112
6.85587e+114
3.184e+115
1.62188e+117
1.41469e+118
4.03801e+118
5.63366e+118
4.32692e+118
1.24023e+118
1.3854e+117
-4.97916e+115
4.84603e+114
-1.44217e+113
-3.02125e+113
-1.58628e+112
-1.59864e+111
1.6071e+115
3.53323e+115
2.26116e+116
6.70508e+117
2.9475e+118
5.13757e+118
4.58138e+118
1.38059e+118
1.96544e+117
2.24974e+116
-2.64894e+115
-1.32838e+115
-1.41013e+115
-1.04311e+115
-3.95843e+114
1.95607e+115
5.87254e+115
-1.06179e+116
1.35722e+117
1.86458e+118
4.48543e+118
4.76135e+118
1.55382e+118
2.53829e+117
7.73123e+116
3.10008e+116
2.86334e+116
4.11712e+116
5.22713e+116
3.0401e+116
4.70551e+115
9.1617e+115
-7.77972e+115
-1.21487e+117
8.61677e+117
3.69669e+118
4.8159e+118
1.68426e+118
2.62394e+117
8.20791e+116
1.1218e+117
1.02895e+117
1.3162e+117
1.04639e+117
5.77174e+116
2.55158e+116
8.04416e+115
-2.76189e+116
-1.31185e+117
1.6433e+117
2.83345e+118
4.65639e+118
1.76698e+118
2.61255e+117
5.40985e+115
2.31462e+116
4.85815e+116
4.59733e+116
3.98265e+116
5.51759e+116
-5.01871e+117
-2.37463e+117
-1.13639e+117
-1.4235e+117
1.61691e+117
1.97529e+118
4.21367e+118
1.79921e+118
3.04612e+117
1.59073e+114
2.15944e+114
4.12397e+115
6.95466e+115
1.24784e+116
4.70526e+116
2.17786e+117
2.92267e+117
-1.00208e+117
-1.89879e+117
7.22601e+117
2.38493e+118
3.65359e+118
1.74801e+118
4.23359e+117
1.62403e+117
6.28247e+116
2.94727e+116
1.88468e+116
1.37808e+116
3.82462e+116
8.68186e+119
2.7546e+119
1.19374e+119
6.97528e+118
4.42387e+118
4.31845e+118
4.59883e+118
1.64172e+118
6.04587e+117
2.64689e+117
1.13601e+117
5.23999e+116
2.81907e+116
1.57145e+116
3.26317e+116
-2.61264e+120
-4.81115e+119
3.28734e+119
3.39444e+119
2.59033e+119
1.73715e+119
9.6965e+118
4.78504e+118
1.8216e+118
6.67147e+117
2.51719e+117
1.02984e+117
4.69075e+116
2.20901e+116
2.7047e+116
-7.75877e+121
-1.61322e+121
-5.21776e+120
-1.82293e+120
-5.26019e+119
-6.40818e+118
7.39275e+118
6.2145e+118
3.07178e+118
1.22725e+118
4.71248e+117
1.88449e+117
8.1006e+116
3.76429e+116
5.28313e+116
6.30948e+122
2.91123e+121
-2.44101e+121
-1.22706e+121
-5.59426e+120
-1.81019e+120
-2.62442e+119
1.3429e+118
2.40783e+118
1.08186e+118
3.52271e+117
7.44406e+116
-6.52864e+115
-1.4373e+116
-1.42559e+116
5.55554e+123
9.94691e+122
1.72498e+122
1.16291e+121
-4.95854e+120
-2.67218e+120
-4.69072e+119
-1.90185e+118
1.35497e+118
9.13455e+117
5.03743e+117
2.72302e+117
1.2936e+117
3.91358e+116
-4.28214e+116
-1.69336e+125
-6.28196e+122
1.28468e+123
8.30903e+121
9.47029e+118
6.1492e+119
-5.51574e+119
-7.67468e+118
-2.93483e+118
-4.24215e+118
-4.06301e+118
-3.20509e+118
-2.06314e+118
-1.05601e+118
-5.75149e+117
-2.66387e+125
-1.72108e+125
-3.00865e+122
9.01166e+122
-1.53544e+122
-6.84209e+120
-4.6171e+120
-6.65666e+120
-5.75836e+120
-4.79592e+120
-3.78633e+120
-2.73247e+120
-1.70254e+120
-8.45931e+119
-3.20694e+119
1.62308e+127
-3.66351e+125
-1.67154e+125
7.53801e+123
4.15594e+122
-2.30623e+122
-6.14722e+121
-4.44437e+121
-3.40306e+121
-2.34989e+121
-1.58095e+121
-1.04462e+121
-6.57264e+120
-3.73675e+120
-1.44386e+120
-1.12872e+128
1.48393e+127
-4.08311e+125
-1.50771e+125
6.95278e+123
5.18524e+122
-2.60855e+121
1.62137e+122
1.75458e+122
1.6372e+122
1.40625e+122
1.06606e+122
6.70455e+121
3.17229e+121
1.08329e+121
1.61268e+128
-9.71345e+127
1.3768e+127
-4.08528e+125
-1.41968e+125
9.27887e+123
2.21824e+123
1.01629e+123
7.0087e+122
3.61183e+122
1.45778e+122
4.92692e+121
2.47652e+121
2.71867e+121
1.31059e+121
6.24171e+129
1.00152e+128
-8.62106e+127
1.30973e+127
-4.0672e+125
-1.37867e+125
9.45514e+123
3.27862e+123
2.81441e+123
3.01107e+123
2.76452e+123
2.23613e+123
1.55553e+123
8.75676e+122
3.67704e+122
6.98241e+129
5.83481e+129
6.398e+127
-7.91982e+127
1.28022e+127
-1.58036e+125
1.06294e+125
2.46596e+125
2.2786e+125
2.03662e+125
1.72592e+125
1.36897e+125
9.78378e+124
6.06593e+124
2.98333e+124
-1.7117e+132
1.63002e+130
1.61949e+130
3.02901e+128
-2.34746e+128
4.57768e+127
5.91611e+126
4.74018e+126
3.89152e+126
2.75277e+126
1.82723e+126
1.21805e+126
8.09639e+125
5.39877e+125
4.15323e+125
1.68064e+133
-1.5974e+132
1.02973e+130
1.57869e+130
4.65366e+128
-2.38832e+128
4.83995e+127
6.4145e+126
3.34649e+126
2.53147e+126
1.71471e+126
9.4641e+125
4.86296e+125
3.87051e+125
2.61773e+125
-4.6943e+133
1.47229e+133
-1.51086e+132
9.59828e+129
1.61443e+130
5.86978e+128
-3.09243e+128
-1.59583e+127
-3.81042e+127
-2.95515e+127
-2.01679e+127
-1.24803e+127
-6.65029e+126
-3.07443e+126
-1.65638e+126
-7.00638e+134
-3.50961e+133
1.35072e+133
-1.36272e+132
-7.06804e+130
1.69535e+130
1.36352e+129
-1.22449e+129
-6.18544e+128
-3.52061e+128
-2.15176e+128
-1.16747e+128
-5.50192e+127
-2.15428e+127
-1.01254e+127
-1.07246e+135
-6.80339e+134
-2.83374e+133
1.21147e+133
-1.28563e+132
2.15197e+129
7.22775e+129
-1.42095e+129
-1.05973e+129
-5.49779e+128
-3.63666e+128
-2.4038e+128
-1.48437e+128
-7.70923e+127
-4.02309e+127
-7.2441e+134
-3.11446e+133
1.34887e+133
-1.55516e+132
-1.77628e+130
6.09723e+129
-3.40993e+129
-2.34586e+129
-1.12634e+129
-6.29336e+128
-3.56726e+128
-2.39793e+128
-1.86497e+128
-1.25634e+128
-7.64122e+127
-4.90717e+133
1.6563e+133
-1.26416e+132
-9.67881e+130
-1.16204e+130
-7.28084e+129
-4.46117e+129
-2.52064e+129
-1.43676e+129
-8.01179e+128
-4.25269e+128
-2.57992e+128
-1.94511e+128
-1.38421e+128
-8.66765e+127
1.2062e+133
4.32129e+131
-8.09194e+130
-4.37481e+130
-2.10952e+130
-1.06088e+130
-5.48257e+129
-2.94482e+129
-1.62887e+129
-9.09628e+128
-5.19292e+128
-3.47599e+128
-1.95355e+128
-1.00621e+128
-4.49408e+127
-6.93348e+131
-1.35108e+131
-4.43561e+130
-1.80413e+130
-7.87687e+129
-3.73406e+129
-1.87838e+129
-9.82722e+128
-5.20663e+128
-3.00831e+128
-2.08353e+128
-2.11346e+128
2.6562e+127
1.78866e+127
7.50506e+126
-7.59019e+129
-1.80477e+129
6.1763e+128
6.51206e+128
5.12483e+128
3.94929e+128
3.01323e+128
2.38572e+128
2.69617e+128
4.17449e+128
4.8827e+127
-3.13131e+127
-4.8383e+126
-6.86346e+125
-3.5903e+125
2.40535e+129
7.41864e+128
4.39701e+128
3.0023e+128
2.04197e+128
1.41806e+128
1.04725e+128
8.18198e+127
1.37759e+128
3.63016e+128
2.64121e+128
1.37993e+128
2.58314e+127
1.13391e+127
5.38786e+126
2.68093e+128
1.12315e+128
3.2293e+127
5.75971e+126
-4.05228e+126
-6.08497e+126
5.8882e+126
1.65151e+127
1.16924e+127
2.00541e+128
2.3314e+128
1.6239e+128
9.80213e+127
5.89874e+127
3.45086e+127
-6.6934e+127
-2.56276e+127
-1.0599e+127
-5.6299e+126
-3.4959e+126
-1.98297e+126
-8.58511e+125
-1.69318e+124
5.87534e+125
3.97112e+126
2.84806e+127
3.75026e+127
3.08125e+127
2.25905e+127
1.63974e+127
5.88937e+126
2.14351e+126
1.15147e+126
7.97215e+125
6.23757e+125
4.59066e+125
2.13427e+125
9.02739e+123
-9.33794e+124
-4.45073e+125
1.03579e+126
2.01156e+126
1.97261e+126
1.68767e+126
1.4443e+126
1.52353e+125
7.66749e+124
1.07406e+124
-9.64266e+123
-1.74282e+124
-1.77668e+124
-2.38297e+123
1.08731e+124
1.38985e+124
2.13227e+124
-1.58191e+125
-2.17923e+125
-1.83416e+125
-1.44571e+125
-1.16856e+125
-7.7191e+124
-2.93444e+124
-1.46513e+124
-9.39457e+123
-6.96455e+123
-5.02395e+123
-2.92828e+123
-9.15666e+122
2.47251e+123
9.68807e+123
1.20504e+124
4.68462e+123
3.43986e+122
-9.83637e+122
-1.14439e+123
1.41715e+123
3.99239e+122
4.11581e+122
3.9767e+122
3.59948e+122
2.32796e+122
-8.34178e+121
-3.59259e+122
-4.2538e+122
1.64693e+122
3.33718e+123
4.4956e+123
3.9818e+123
3.18901e+123
2.45341e+123
5.62264e+122
2.18874e+122
8.90626e+121
4.74733e+121
2.94143e+121
1.73078e+121
5.13652e+120
-2.45546e+121
-1.11208e+122
-2.99481e+122
-5.31827e+122
-4.99291e+122
-3.87901e+122
-2.94227e+122
-2.23119e+122
-5.79755e+121
-2.02041e+121
-1.25907e+121
-9.83487e+120
-7.95877e+120
-5.31251e+120
-1.46856e+120
1.66707e+120
1.44363e+120
-9.46983e+120
-3.4235e+121
-4.11886e+121
-3.56624e+121
-2.82889e+121
-2.18938e+121
-6.07854e+120
-2.45104e+120
-6.28692e+119
-9.72913e+118
6.45569e+118
2.10923e+118
-1.60148e+119
-9.21362e+118
6.34423e+119
2.35607e+120
4.51517e+120
4.4782e+120
3.52289e+120
2.52306e+120
1.56801e+120
1.55348e+120
5.70133e+119
3.01653e+119
2.10387e+119
1.60705e+119
1.05778e+119
3.19744e+118
-6.27925e+118
-1.76121e+119
-2.38167e+119
-1.95698e+119
-1.2694e+119
-1.30818e+119
-2.26596e+119
-4.50417e+119
2.7482e+118
1.50468e+118
-2.22802e+117
-7.60695e+117
-7.86433e+117
-3.46084e+117
4.71944e+117
8.8416e+117
-8.3379e+116
-3.25667e+118
-7.03319e+118
-8.35967e+118
-1.07002e+119
-1.83676e+119
-3.59915e+119
-2.61288e+118
-1.03063e+118
-4.03421e+117
-1.9524e+117
-1.0767e+117
-5.25925e+116
8.1893e+115
1.45868e+117
4.35759e+117
8.13097e+117
9.05448e+117
5.14097e+116
-2.35308e+118
-8.74596e+118
-2.28292e+119
3.16283e+117
1.20144e+117
6.09931e+116
4.01396e+116
2.8968e+116
1.78137e+116
4.73409e+115
-5.68004e+115
-2.92608e+115
3.42769e+116
9.49281e+116
6.67583e+116
-5.10312e+117
-3.6779e+118
-1.24621e+119
-2.86931e+115
-6.24079e+114
-1.9359e+115
-2.15003e+115
-1.95954e+115
-1.29824e+115
-3.06423e+114
-7.30534e+113
-1.88245e+115
-5.28225e+115
-8.58284e+115
-7.40492e+115
-3.38446e+116
-2.59961e+117
-1.04202e+118
-3.7175e+115
-1.48201e+115
-7.33893e+114
-4.63375e+114
-3.37914e+114
-2.47869e+114
-1.59403e+114
-1.19697e+114
-3.77551e+113
2.00096e+115
5.70655e+115
1.02853e+116
1.59203e+116
1.38368e+116
-2.47372e+116
1.24177e+114
4.38147e+113
3.48591e+113
3.02168e+113
2.44093e+113
1.23253e+113
-2.41412e+113
-1.94367e+114
-4.28265e+114
1.81391e+115
6.15293e+115
1.12257e+116
1.78522e+116
2.68412e+116
3.76577e+116
2.79008e+113
1.19525e+113
4.84992e+112
2.3191e+112
1.26042e+112
-2.54083e+111
-1.98351e+113
-1.92166e+114
-4.49666e+114
2.17224e+115
7.15959e+115
1.30424e+116
2.05085e+116
3.01551e+116
4.22303e+116
-3.68298e+112
-1.4861e+112
-8.17769e+111
-5.61645e+111
-4.44558e+111
-1.29086e+112
-2.12427e+113
-2.17157e+114
-4.84018e+114
2.24213e+115
7.59653e+115
1.43829e+116
2.30966e+116
3.42249e+116
4.78616e+116
-4.08362e+110
-2.74958e+110
1.01416e+110
2.36691e+110
6.57839e+109
-9.58383e+111
-2.25017e+113
-2.51369e+114
-5.87633e+114
1.65076e+115
6.51982e+115
1.31614e+116
2.20979e+116
3.37916e+116
4.84863e+116
5.43161e+110
2.41229e+110
1.45886e+110
1.3163e+110
-2.28968e+109
-8.81924e+111
-2.32748e+113
-2.92847e+114
-8.05724e+114
4.44488e+114
4.40419e+115
9.90328e+115
1.73013e+116
2.71515e+116
3.99897e+116
-5.19475e+108
1.17021e+109
2.50347e+109
5.65487e+109
-1.93666e+109
-7.46446e+111
-2.25892e+113
-3.4439e+114
-8.91708e+114
-6.58805e+114
1.77744e+115
5.36222e+115
1.01014e+116
1.63537e+116
2.45812e+116
3.38485e+106
1.35081e+109
3.25602e+109
7.01905e+109
3.9199e+109
-6.07065e+111
-2.03442e+113
-3.96983e+114
-9.66292e+114
-1.21382e+115
-4.09851e+114
1.197e+115
3.51727e+115
6.5903e+115
1.06247e+116
8.85786e+108
1.98636e+109
3.952e+109
8.07461e+109
8.10526e+109
-5.10071e+111
-1.78832e+113
-4.79783e+114
-9.76416e+114
-1.24872e+115
-1.21368e+115
-8.30388e+114
-8.13994e+113
1.03545e+115
2.60327e+115
9.18113e+108
2.29019e+109
4.63125e+109
9.33324e+109
1.27133e+110
-4.44253e+111
-1.82576e+113
-4.11146e+114
-8.47372e+114
-1.10276e+115
-1.26144e+115
-1.32151e+115
-1.26619e+115
-1.07998e+115
-7.23969e+114
1.09103e+109
2.74851e+109
5.57719e+109
1.1042e+110
1.84627e+110
-3.44085e+111
-1.91488e+113
-2.81253e+114
-5.88105e+114
-7.95172e+114
-9.66797e+114
-1.1099e+115
-1.23054e+115
-1.3287e+115
-1.38595e+115
1.27031e+109
3.24033e+109
6.61139e+109
1.28991e+110
2.38262e+110
-1.99632e+111
-2.12865e+113
-1.74648e+114
-3.20975e+114
-4.40493e+114
-5.50655e+114
-6.55925e+114
-7.62954e+114
-8.73879e+114
-9.82481e+114
1.45364e+109
3.74697e+109
7.67603e+109
1.47889e+110
2.78722e+110
-5.99328e+110
-1.47697e+113
-7.97903e+113
-1.35413e+114
-1.85262e+114
-2.3306e+114
-2.82803e+114
-3.37471e+114
-3.9719e+114
-4.60172e+114
1.66104e+109
4.32381e+109
8.89202e+109
1.69399e+110
3.11546e+110
1.16588e+110
-3.7516e+112
-2.55573e+113
-4.35069e+113
-5.9026e+113
-7.40205e+113
-9.02893e+113
-1.09015e+114
-1.3009e+114
-1.52969e+114
1.89143e+109
4.98049e+109
1.03191e+110
1.95625e+110
3.46236e+110
2.68134e+110
-1.3161e+112
-5.42451e+112
-9.42454e+112
-1.29256e+113
-1.62837e+113
-2.0085e+113
-2.44765e+113
-2.9387e+113
-3.47522e+113
2.1353e+109
5.67944e+109
1.18503e+110
2.24876e+110
4.00163e+110
3.44905e+110
-1.40278e+111
-5.47849e+111
-9.94906e+111
-1.43766e+112
-1.89424e+112
-2.40966e+112
-2.99851e+112
-3.65667e+112
-4.38225e+112
2.33691e+109
6.42692e+109
1.3849e+110
2.68205e+110
4.83172e+110
7.6842e+110
1.031e+111
1.12786e+111
1.09948e+111
1.01458e+111
8.87586e+110
7.25635e+110
5.24267e+110
2.75954e+110
-2.95244e+109
1.89638e+109
5.42687e+109
1.15776e+110
2.0976e+110
3.38853e+110
4.92381e+110
6.29108e+110
7.13554e+110
7.66428e+110
8.14302e+110
8.62692e+110
9.15165e+110
9.70994e+110
1.02704e+111
1.08102e+111
9.06097e+108
2.90225e+109
6.10516e+109
1.02284e+110
1.4628e+110
1.86425e+110
2.15158e+110
2.29199e+110
2.34121e+110
2.37188e+110
2.40785e+110
2.44927e+110
2.49287e+110
2.53503e+110
2.57457e+110
3.71639e+107
6.52597e+108
1.62671e+109
2.74331e+109
3.76192e+109
4.57175e+109
5.11277e+109
5.3806e+109
5.45786e+109
5.44916e+109
5.40806e+109
5.34359e+109
5.25242e+109
5.13524e+109
4.99597e+109
-2.12328e+108
-1.54681e+108
-9.03834e+106
1.67822e+108
3.3921e+108
4.85073e+108
5.98024e+108
6.76989e+108
7.27599e+108
7.59176e+108
7.77919e+108
7.8585e+108
7.83715e+108
7.72571e+108
7.53414e+108
-1.22262e+108
-1.47819e+108
-1.46309e+108
-1.31132e+108
-1.08183e+108
-8.35307e+107
-6.01521e+107
-3.9474e+107
-2.20313e+107
-7.64581e+106
4.13679e+106
1.37158e+107
2.13763e+107
2.7342e+107
3.17022e+107
-3.22125e+107
-4.13948e+107
-4.38573e+107
-4.32132e+107
-4.05833e+107
-3.70541e+107
-3.31705e+107
-2.93262e+107
-2.58775e+107
-2.29231e+107
-2.03393e+107
-1.8011e+107
-1.58871e+107
-1.39492e+107
-1.22034e+107
-4.18916e+106
-5.62516e+106
-6.03071e+106
-6.01173e+106
-5.74247e+106
-5.35584e+106
-4.91136e+106
-4.44735e+106
-4.02934e+106
-3.68394e+106
-3.37997e+106
-3.09553e+106
-2.82499e+106
-2.56812e+106
-2.32623e+106
-4.3841e+104
-2.32626e+105
-3.22617e+105
-3.52582e+105
-3.49775e+105
-3.3138e+105
-3.05869e+105
-2.78173e+105
-2.53373e+105
-2.32767e+105
-2.14023e+105
-1.96058e+105
-1.78811e+105
-1.62408e+105
-1.46827e+105
1.24114e+105
9.36049e+104
6.18723e+104
4.09763e+104
2.73153e+104
1.83645e+104
1.24297e+104
8.42603e+103
5.70575e+103
3.86598e+103
2.61715e+103
1.75387e+103
1.15108e+103
7.26732e+102
4.64891e+102
3.58095e+104
3.07639e+104
2.34524e+104
1.78974e+104
1.37354e+104
1.06411e+104
8.32236e+103
6.61e+103
5.36672e+103
4.43459e+103
3.69629e+103
3.09049e+103
2.5861e+103
2.16382e+103
1.81586e+103
6.5048e+103
5.42182e+103
4.1036e+103
3.14564e+103
2.4404e+103
1.91973e+103
1.53025e+103
1.24375e+103
1.03347e+103
8.7054e+102
7.36851e+102
6.2392e+102
5.27576e+102
4.45306e+102
3.75941e+102
9.49262e+102
7.41623e+102
5.18566e+102
3.75449e+102
2.79437e+102
2.12905e+102
1.66282e+102
1.33964e+102
1.10707e+102
9.27081e+101
7.80104e+101
6.57029e+101
5.52976e+101
4.64855e+101
3.90905e+101
7.67579e+101
7.28166e+101
5.27994e+101
3.78762e+101
2.73986e+101
2.0224e+101
1.53349e+101
1.20106e+101
9.64551e+100
7.84093e+100
6.40534e+100
5.24469e+100
4.29993e+100
3.52969e+100
2.90212e+100
-1.129e+101
-3.68656e+100
-4.16497e+99
6.29948e+99
8.73691e+99
8.55748e+99
7.68477e+99
6.73022e+99
5.78402e+99
4.88407e+99
4.07202e+99
3.36698e+99
2.76821e+99
2.26844e+99
1.84884e+99
-4.24124e+100
-2.71901e+100
-1.51526e+100
-8.75627e+99
-5.24751e+99
-3.2763e+99
-2.14067e+99
-1.45893e+99
-1.02454e+99
-7.32579e+98
-5.2949e+98
-3.85538e+98
-2.82371e+98
-2.0787e+98
-1.54949e+98
-4.49541e+99
-3.54765e+99
-2.2976e+99
-1.50836e+99
-1.01227e+99
-7.04536e+98
-5.12505e+98
-3.85699e+98
-2.95108e+98
-2.27331e+98
-1.75752e+98
-1.36222e+98
-1.05797e+98
-8.23551e+97
-6.43297e+97
5.98806e+97
-3.21838e+97
-5.4485e+97
-5.18289e+97
-4.34421e+97
-3.55113e+97
-2.91895e+97
-2.40875e+97
-1.97617e+97
-1.60808e+97
-1.30014e+97
-1.04613e+97
-8.38686e+96
-6.71028e+96
-5.35592e+96
5.77294e+97
3.7143e+97
2.10099e+97
1.23166e+97
7.54994e+96
4.85366e+96
3.2626e+96
2.2697e+96
1.61318e+96
1.16029e+96
8.40402e+95
6.11662e+95
4.4693e+95
3.2761e+95
2.42588e+95
9.86778e+96
5.84857e+96
3.33306e+96
2.01584e+96
1.29645e+96
8.83687e+95
6.32325e+95
4.67452e+95
3.52314e+95
2.68187e+95
2.05056e+95
1.57137e+95
1.2058e+95
9.26464e+94
7.15288e+94
2.14048e+96
1.10707e+96
5.48696e+95
3.00292e+95
1.79107e+95
1.14668e+95
7.78796e+94
5.53343e+94
4.0431e+94
2.99823e+94
2.24153e+94
1.68401e+94
1.26883e+94
9.58588e+93
7.29803e+93
3.34333e+95
1.87002e+95
9.4258e+94
5.23921e+94
3.15324e+94
2.02536e+94
1.37145e+94
9.64674e+93
6.93363e+93
5.03561e+93
3.67725e+93
2.6947e+93
1.98013e+93
1.46008e+93
1.0849e+93
1.5689e+94
1.21967e+94
7.26184e+93
4.59634e+93
3.04993e+93
2.11046e+93
1.51041e+93
1.10505e+93
8.15588e+92
6.02803e+92
4.45186e+92
3.28445e+92
2.42243e+92
1.78996e+92
1.3298e+92
-3.8363e+93
-1.57193e+93
-6.08124e+92
-2.45885e+92
-1.01749e+92
-4.01053e+91
-1.2874e+91
-9.41075e+89
3.95615e+90
5.58059e+90
5.68747e+90
5.12911e+90
4.34484e+90
3.56378e+90
2.85548e+90
-8.05252e+92
-4.05889e+92
-1.88977e+92
-9.95666e+91
-5.77759e+91
-3.60292e+91
-2.37246e+91
-1.62225e+91
-1.1325e+91
-7.98191e+90
-5.65218e+90
-4.01691e+90
-2.86688e+90
-2.05919e+90
-1.49751e+90
-3.57024e+91
-2.55458e+91
-1.33286e+91
-7.97198e+90
-5.12871e+90
-3.46461e+90
-2.4188e+90
-1.72263e+90
-1.23667e+90
-8.89187e+89
-6.39369e+89
-4.60204e+89
-3.32241e+89
-2.41577e+89
-1.77488e+89
1.35758e+91
5.73175e+90
2.2356e+90
9.2177e+89
3.99762e+89
1.80492e+89
8.41003e+88
4.01447e+88
1.9554e+88
9.63894e+87