/*--------------------------------*- C++ -*----------------------------------*\
  =========                 |
  \\      /  F ield         | OpenFOAM: The Open Source CFD Toolbox
   \\    /   O peration     | Website:  https://openfoam.org
    \\  /    A nd           | Version:  7
     \\/     M anipulation  |
\*---------------------------------------------------------------------------*/
FoamFile
{
    version     2.0;
    format      ascii;
    class       volScalarField;
    location    "3.3";
    object      T;
}
// * * * * * * * * * * * * * * * * * * * * * * * * * * * * * * * * * * * * * //

dimensions      [0 0 0 1 0 0 0];

internalField   nonuniform List<scalar> 
32100
(
1.80034e+93
-3.4276e+92
2.62662e+91
4.50372e+90
-3.78022e+89
-4.55697e+88
6.96867e+87
-6.98456e+86
-1.0326e+86
1.06385e+85
8.16458e+83
-2.83222e+82
2.56938e+80
1.79561e+80
7.04059e+79
-3.81079e+92
2.67543e+91
4.8125e+90
-3.85463e+89
-4.79539e+88
7.23254e+87
-7.05788e+86
-1.05914e+86
1.14136e+85
1.6889e+84
2.09042e+83
-3.89444e+82
1.08471e+81
1.38817e+80
4.90178e+79
2.64421e+91
5.26716e+90
-3.96096e+89
-5.06428e+88
7.64032e+87
-7.16422e+86
-1.10734e+86
1.12648e+85
1.30179e+84
-1.83028e+83
2.19726e+82
-2.31065e+82
1.41e+81
1.574e+80
4.04948e+79
5.85935e+90
-4.14658e+89
-5.59225e+88
8.53174e+87
-6.42405e+86
-1.17689e+86
1.01609e+85
1.33316e+84
-2.15456e+83
-2.27844e+81
-1.04311e+82
-9.5185e+81
1.381e+81
1.91286e+80
3.06626e+79
-4.09184e+89
-6.82236e+88
8.16758e+87
-2.00639e+86
-3.86673e+85
8.14252e+84
1.09731e+83
-2.34246e+83
-2.9305e+81
-6.4122e+81
-5.01921e+81
-2.32397e+81
1.13638e+81
1.88965e+80
1.90542e+79
-6.98472e+88
3.9215e+87
-1.1884e+87
3.79092e+86
9.34762e+85
-1.27187e+84
-1.52269e+84
-3.35712e+82
-1.27455e+82
-4.72843e+81
-1.35731e+80
2.35069e+80
7.94678e+80
1.46358e+80
9.00117e+78
1.19972e+88
-5.76534e+87
-6.40107e+86
4.86554e+86
8.43925e+85
-2.16522e+84
-1.3029e+84
-5.50026e+82
-1.41871e+82
-3.90838e+81
5.64526e+80
6.58111e+80
4.63028e+80
8.79238e+79
2.03983e+78
5.15856e+86
-4.69087e+87
-5.48109e+86
4.43499e+86
8.33342e+85
-1.09352e+84
-1.29626e+84
-6.54483e+82
-1.27879e+82
-4.07845e+81
2.71018e+80
4.2037e+80
2.15625e+80
3.92264e+79
-1.5398e+78
8.55984e+86
-4.0688e+87
-6.0638e+86
4.07132e+86
8.38584e+85
-2.26511e+83
-1.26588e+84
-7.25353e+82
-1.15426e+82
-4.18962e+81
-4.97718e+79
1.71909e+80
7.60084e+79
1.11292e+79
-2.4201e+78
8.31091e+86
-3.63326e+87
-6.48686e+86
3.71853e+86
8.37301e+85
6.61198e+83
-1.22026e+84
-7.9705e+82
-1.02893e+82
-4.05775e+81
-1.9349e+80
7.49885e+79
1.95288e+79
3.00695e+77
-1.85846e+78
6.43054e+86
-3.2239e+87
-6.81555e+86
3.36504e+86
8.32596e+85
1.5445e+84
-1.16356e+84
-8.65968e+82
-9.14e+81
-3.7989e+81
-2.44264e+80
4.82015e+79
4.89838e+78
-1.50991e+78
-9.69982e+77
4.55913e+86
-2.89389e+87
-6.97697e+86
3.01283e+86
8.2507e+85
2.4044e+84
-1.09702e+84
-9.29476e+82
-8.19068e+81
-3.48887e+81
-2.58533e+80
3.7355e+79
3.97536e+78
-6.51548e+77
-3.20812e+77
1.72909e+85
-2.61862e+87
-6.43489e+86
2.72618e+86
8.14333e+85
3.2209e+84
-1.02261e+84
-9.84293e+82
-7.48166e+81
-3.1711e+81
-2.60399e+80
2.87507e+79
3.943e+78
-2.30715e+76
-4.03581e+76
-9.05103e+86
-2.03742e+87
-4.96155e+86
2.18596e+86
7.29477e+85
3.86897e+84
-9.3511e+83
-1.02843e+83
-7.02141e+81
-2.86565e+81
-2.7105e+80
2.26351e+79
3.11238e+78
6.71218e+76
6.8899e+75
-1.05744e+87
-1.36131e+87
-4.13941e+86
1.6018e+86
5.98045e+85
3.86205e+84
-7.755e+83
-1.00963e+83
-6.59544e+81
-2.6302e+81
-2.99133e+80
2.1328e+79
3.51047e+78
1.25553e+77
2.22433e+76
-2.6443e+86
-9.80557e+86
-3.92368e+86
1.21763e+86
5.09915e+85
3.83356e+84
-6.28766e+83
-9.87308e+82
-6.24272e+81
-2.46341e+81
-3.33652e+80
1.97124e+79
4.65616e+78
1.88273e+77
3.33867e+76
-3.57793e+85
-8.34667e+86
-3.82395e+86
9.89063e+85
4.70955e+85
4.16439e+84
-5.34557e+83
-1.00635e+83
-6.19139e+81
-2.30716e+81
-3.61567e+80
1.49726e+79
5.36684e+78
2.49041e+77
4.1231e+76
-1.27245e+86
-7.41359e+86
-3.77977e+86
8.35393e+85
4.52591e+85
4.56563e+84
-4.52677e+83
-1.04281e+83
-6.45871e+81
-2.14837e+81
-3.83732e+80
8.86343e+78
5.67443e+78
3.06706e+77
4.47649e+76
-1.58285e+86
-6.47572e+86
-3.65217e+86
7.0038e+85
4.34804e+85
4.9964e+84
-3.67014e+83
-1.08558e+83
-6.97348e+81
-1.98751e+81
-4.00997e+80
2.11688e+78
5.70161e+78
3.58431e+77
4.4685e+76
-1.88542e+86
-5.57006e+86
-3.48234e+86
5.66196e+85
4.15132e+85
5.43763e+84
-2.71415e+83
-1.1233e+83
-7.70706e+81
-1.82892e+81
-4.13979e+80
-4.90511e+78
5.71891e+78
4.14447e+77
4.28927e+76
-2.22289e+86
-4.72922e+86
-3.28029e+86
4.33727e+85
3.93565e+85
5.87665e+84
-1.63869e+83
-1.14992e+83
-8.6555e+81
-1.68081e+81
-4.22093e+80
-1.21483e+79
5.55807e+78
4.66939e+77
3.96659e+76
-2.47205e+86
-3.94596e+86
-3.06259e+86
3.07057e+85
3.70061e+85
6.30792e+84
-4.36596e+82
-1.16354e+83
-9.839e+81
-1.55272e+81
-4.26369e+80
-1.92717e+79
5.11315e+78
5.03066e+77
3.54261e+76
-2.60006e+86
-3.23892e+86
-2.83803e+86
1.88985e+85
3.44804e+85
6.72333e+84
8.93229e+82
-1.16134e+83
-1.12879e+82
-1.45418e+81
-4.2917e+80
-2.63656e+79
4.64212e+78
5.35332e+77
3.17e+76
-2.63397e+86
-2.6151e+86
-2.60644e+86
8.02471e+84
3.17484e+85
7.08636e+84
2.3518e+83
-1.13949e+83
-1.30238e+82
-1.39214e+81
-4.3203e+80
-3.37559e+79
4.19642e+78
5.74615e+77
2.94344e+76
-2.60166e+86
-2.08488e+86
-2.37414e+86
-1.82538e+84
2.88414e+85
7.38671e+84
3.94238e+83
-1.09105e+83
-1.50577e+82
-1.37058e+81
-4.34226e+80
-4.17903e+79
3.71727e+78
6.25713e+77
2.90961e+76
-2.51674e+86
-1.64061e+86
-2.13671e+86
-1.05275e+85
2.57981e+85
7.6262e+84
5.66131e+83
-1.00678e+83
-1.73888e+82
-1.40074e+81
-4.34987e+80
-5.11322e+79
3.14879e+78
6.95101e+77
3.10457e+76
-2.40177e+86
-1.26246e+86
-1.89884e+86
-1.81105e+85
2.26457e+85
7.79862e+84
7.50864e+83
-8.77621e+82
-1.99831e+82
-1.49605e+81
-4.32177e+80
-6.15186e+79
2.36449e+78
7.74474e+77
3.50133e+76
-2.30716e+86
-9.49688e+85
-1.67429e+86
-2.46542e+85
1.94108e+85
7.89183e+84
9.4803e+83
-6.9248e+82
-2.27215e+82
-1.68747e+81
-4.24847e+80
-7.16829e+79
1.25834e+78
8.39062e+77
4.02189e+76
-2.23725e+86
-7.16148e+85
-1.4685e+86
-3.01052e+85
1.61126e+85
7.90034e+84
1.15809e+84
-4.38589e+82
-2.54771e+82
-2.0001e+81
-4.14266e+80
-8.19973e+79
-1.54033e+77
8.93942e+77
4.7006e+76
-2.15044e+86
-5.59283e+85
-1.27492e+86
-3.42436e+85
1.27592e+85
7.81202e+84
1.3805e+84
-9.96009e+81
-2.81445e+82
-2.46249e+81
-4.02558e+80
-9.26818e+79
-1.93383e+78
9.40741e+77
5.55662e+76
-2.00282e+86
-4.46057e+85
-1.07955e+86
-3.69143e+85
9.39045e+84
7.60824e+84
1.614e+84
3.46422e+82
-3.04759e+82
-3.12846e+81
-3.93432e+80
-1.01978e+80
-4.02787e+78
9.50276e+77
6.47858e+76
-1.79832e+86
-3.37637e+85
-8.78328e+85
-3.82673e+85
6.07706e+84
7.27383e+84
1.8549e+84
9.24811e+82
-3.1999e+82
-4.04892e+81
-3.94612e+80
-1.09043e+80
-6.30025e+78
9.30903e+77
7.58502e+76
-1.60398e+86
-2.35865e+85
-6.97104e+85
-3.83927e+85
2.86264e+84
6.78923e+84
2.0941e+84
1.65824e+83
-3.18819e+82
-5.28514e+81
-4.21418e+80
-1.18325e+80
-9.28007e+78
9.18983e+77
9.36211e+76
-1.46322e+86
-1.75421e+85
-5.50613e+85
-3.74498e+85
-2.18092e+83
6.14879e+84
2.32184e+84
2.55661e+83
-2.8944e+82
-6.86375e+81
-4.9383e+80
-1.33018e+80
-1.3912e+79
8.92736e+77
1.24664e+77
-1.34235e+86
-1.6696e+85
-4.28606e+85
-3.56008e+85
-3.1062e+84
5.35259e+84
2.52091e+84
3.60526e+83
-2.17244e+82
-8.76778e+81
-6.39969e+80
-1.47784e+80
-2.05292e+79
7.53679e+77
1.75489e+77
-1.21251e+86
-1.74837e+85
-3.1713e+85
-3.29974e+85
-5.73356e+84
4.38609e+84
2.64623e+84
4.76931e+83
-8.54484e+81
-1.0854e+82
-9.07183e+80
-1.61909e+80
-2.9699e+79
3.26934e+77
2.53226e+77
-1.08288e+86
-1.78473e+85
-2.19177e+85
-2.98688e+85
-8.0402e+84
3.25166e+84
2.6782e+84
6.01989e+83
1.22097e+82
-1.27903e+82
-1.35111e+81
-1.76291e+80
-4.18561e+79
-7.1677e+77
3.60065e+77
-9.58764e+85
-1.89605e+85
-1.40884e+85
-2.62407e+85
-9.91674e+84
1.99719e+84
2.6201e+84
7.30886e+83
4.18215e+82
-1.40757e+82
-2.01559e+81
-1.91179e+80
-5.49151e+79
-2.74259e+78
4.7509e+77
-8.37056e+85
-2.12147e+85
-8.2556e+84
-2.20542e+85
-1.11473e+85
6.87418e+83
2.46243e+84
8.55508e+83
8.0417e+82
-1.39518e+82
-2.90301e+81
-2.21664e+80
-6.67627e+79
-6.0671e+78
5.43147e+77
-7.15128e+85
-2.41559e+85
-4.47769e+84
-1.75909e+85
-1.14748e+85
-5.95059e+83
2.19362e+84
9.64368e+83
1.26113e+83
-1.15503e+82
-3.94727e+81
-2.89631e+80
-7.63211e+79
-1.11748e+79
4.50027e+77
-5.89329e+85
-2.68139e+85
-2.73351e+84
-1.31578e+85
-1.1002e+85
-1.75276e+84
1.81528e+84
1.03384e+84
1.75845e+83
-6.34619e+81
-5.01453e+81
-4.17531e+80
-7.99721e+79
-1.82273e+79
-3.11135e+76
-4.63717e+85
-2.77325e+85
-2.60743e+84
-9.08897e+84
-1.00559e+85
-2.70074e+84
1.35997e+84
1.06296e+84
2.29069e+83
1.72047e+81
-5.87907e+81
-6.1286e+80
-7.23706e+79
-2.38501e+79
-9.60763e+77
-3.52563e+85
-2.6453e+85
-3.30777e+84
-5.76653e+84
-8.8246e+84
-3.3929e+84
8.64013e+83
1.03201e+84
2.86854e+83
1.23613e+82
-6.17618e+81
-8.25881e+80
-6.17374e+79
-2.64648e+79
-2.17751e+78
-2.64476e+85
-2.39243e+85
-4.11064e+84
-3.37612e+84
-7.43755e+84
-3.82381e+84
3.71522e+83
9.51158e+83
3.21789e+83
2.45748e+82
-5.99216e+81
-1.03605e+81
-5.64387e+79
-2.68887e+79
-3.57025e+78
-1.9821e+85
-2.12322e+85
-4.90622e+84
-1.83047e+84
-6.02462e+84
-4.02727e+84
-8.28321e+82
8.37871e+83
3.35315e+83
3.50634e+82
-5.54296e+81
-1.20421e+81
-5.6923e+79
-2.84678e+79
-7.15464e+78
-1.48896e+85
-1.88417e+85
-5.75055e+84
-9.12033e+83
-4.69173e+84
-4.05566e+84
-4.86452e+83
7.11736e+83
3.42628e+83
4.3269e+82
-4.38673e+81
-1.20692e+81
-5.12958e+79
-1.67901e+79
-4.65243e+78
-1.10996e+85
-1.67042e+85
-6.61777e+84
-4.81245e+83
-3.49757e+84
-3.95282e+84
-8.36046e+83
5.9359e+83
3.44211e+83
5.08657e+82
-3.16446e+81
-1.14705e+81
-4.64449e+79
-9.16254e+78
-2.36436e+78
-8.12425e+84
-1.46508e+85
-7.45501e+84
-4.74186e+83
-2.45691e+84
-3.71951e+84
-1.12744e+84
4.81916e+83
3.5117e+83
5.84149e+82
-2.22691e+81
-1.1424e+81
-4.57676e+79
-6.02e+78
-1.70554e+78
-5.75265e+84
-1.2592e+85
-8.05496e+84
-7.6341e+83
-1.56667e+84
-3.35064e+84
-1.34818e+84
3.66534e+83
3.59425e+83
6.69723e+82
-1.36419e+81
-1.17733e+81
-4.99837e+79
-4.94187e+78
-1.7062e+78
-3.92711e+84
-1.05649e+85
-8.34695e+84
-1.23374e+84
-8.39832e+83
-2.8966e+84
-1.50772e+84
2.41571e+83
3.61358e+83
7.58618e+82
-4.5531e+80
-1.22568e+81
-5.71556e+79
-4.80147e+78
-2.01389e+78
-2.55415e+84
-8.69277e+84
-8.46904e+84
-1.88236e+84
-3.0293e+83
-2.41448e+84
-1.63297e+84
1.07744e+83
3.57601e+83
8.45463e+82
5.33895e+80
-1.26054e+81
-6.49461e+79
-5.08916e+78
-2.39246e+78
-1.54451e+84
-6.97594e+84
-8.41836e+84
-2.62433e+84
4.29557e+82
-1.9044e+84
-1.71789e+84
-3.40602e+82
3.48844e+83
9.26875e+82
1.59126e+81
-1.24731e+81
-7.0468e+79
-5.45852e+78
-2.61063e+78
-8.55972e+83
-5.38805e+84
-7.98623e+84
-3.31387e+84
2.10849e+83
-1.36632e+84
-1.73811e+84
-1.823e+83
3.33757e+83
1.00253e+83
2.62932e+81
-1.17901e+81
-7.21473e+79
-5.96185e+78
-2.83097e+78
-4.08147e+83
-4.01818e+84
-7.25484e+84
-3.95118e+84
1.76991e+83
-8.21692e+83
-1.68628e+84
-3.33314e+83
3.10463e+83
1.06641e+83
3.54984e+81
-1.06482e+81
-6.99233e+79
-6.78406e+78
-3.58605e+78
-1.16269e+83
-2.90074e+84
-6.44567e+84
-4.56662e+84
-1.02678e+83
-2.94006e+83
-1.5511e+84
-4.80467e+83
2.77985e+83
1.11251e+83
4.20778e+81
-9.06904e+80
-6.41399e+79
-7.84148e+78
-4.96999e+78
6.2697e+82
-1.97539e+84
-5.55583e+84
-5.09135e+84
-5.99693e+83
1.77952e+83
-1.32785e+84
-6.16647e+83
2.35988e+83
1.13648e+83
4.38894e+81
-6.97648e+80
-5.64121e+79
-7.03073e+78
-5.09689e+78
1.52878e+83
-1.21902e+84
-4.57453e+84
-5.40183e+84
-1.26722e+84
5.39774e+83
-1.0162e+84
-7.37162e+83
1.84643e+83
1.09828e+83
3.86827e+81
-4.25085e+80
-4.25221e+79
-4.70053e+78
-4.62886e+78
1.73569e+83
-6.43898e+83
-3.54996e+84
-5.44408e+84
-2.05899e+84
7.35299e+83
-6.05944e+83
-8.24446e+83
1.26716e+83
9.97447e+82
2.85841e+81
-1.53212e+80
-3.63324e+79
-5.5597e+78
-4.64722e+78
1.50062e+83
-2.47047e+83
-2.54225e+84
-5.19358e+84
-2.8845e+84
7.11283e+83
-1.04469e+83
-8.49897e+83
6.35741e+82
8.71147e+82
1.96237e+81
2.30915e+79
-5.02571e+79
-9.78489e+78
-6.32479e+78
1.07641e+83
-1.13714e+82
-1.61521e+84
-4.65112e+84
-3.65516e+84
4.10924e+83
4.55712e+83
-7.77794e+83
1.99606e+81
9.8891e+82
2.38117e+81
1.8332e+79
-6.0801e+79
-2.92596e+79
-1.67672e+79
6.20012e+82
9.55738e+82
-8.21177e+83
-3.85392e+84
-4.30904e+84
-2.25641e+83
1.0156e+84
-5.72064e+83
-4.88305e+82
1.73583e+83
9.59471e+81
-4.51039e+80
-1.74746e+80
-1.24435e+80
-5.60096e+79
2.17832e+82
1.01784e+83
-2.11321e+83
-2.83343e+84
-4.76777e+84
-1.24515e+84
1.45808e+84
-2.3934e+83
-1.19151e+83
1.80864e+83
2.85308e+82
2.74977e+81
2.8428e+81
1.69459e+81
5.158e+80
1.47123e+81
3.98093e+82
1.52651e+83
-1.63121e+84
-4.88406e+84
-2.61488e+84
1.61678e+84
2.04716e+83
-2.10994e+83
1.65007e+83
6.98415e+82
2.08531e+82
1.72112e+82
1.46828e+82
6.53122e+81
4.11624e+80
1.07308e+82
2.02349e+83
-3.81604e+83
-4.44033e+84
-4.15113e+84
1.34082e+84
7.59059e+83
-2.54521e+83
7.54683e+82
7.56303e+82
2.70844e+82
4.83535e+81
7.69667e+81
1.67755e+82
9.82909e+81
1.26539e+82
1.48277e+83
4.27383e+83
-3.25738e+84
-5.5156e+84
5.82572e+83
1.28405e+84
-1.51366e+83
1.33017e+82
-1.86874e+82
-4.107e+82
-5.39344e+82
1.07451e+82
1.49019e+82
3.30989e+82
1.10245e+82
2.01224e+83
4.05507e+83
-1.84823e+84
-6.09866e+84
-4.57416e+83
1.55105e+84
4.47819e+82
4.07172e+82
6.28994e+81
-2.40023e+82
2.7114e+82
4.74018e+82
8.46683e+81
2.60332e+84
1.06287e+84
6.2704e+83
7.32596e+82
-1.86951e+84
-5.3203e+84
-1.12234e+84
1.49865e+84
2.53269e+83
4.80247e+81
-6.113e+80
-7.36095e+81
1.28595e+82
3.18186e+82
1.09845e+82
-2.31142e+85
-9.61415e+84
-3.26656e+84
-1.35833e+84
-3.84626e+84
-5.13752e+84
9.86584e+82
1.56752e+84
4.93303e+83
7.39058e+82
-3.66232e+81
-7.19528e+80
1.37335e+80
1.38375e+82
9.57075e+81
-1.18449e+86
-3.42665e+85
-2.69379e+85
-2.21252e+85
-1.55523e+85
-2.74185e+84
5.24974e+84
2.87117e+84
7.54319e+83
1.05906e+83
3.24321e+81
-3.7122e+81
-1.44281e+81
7.81248e+81
6.81946e+81
6.09026e+87
1.54672e+87
4.86618e+86
1.97003e+86
9.48086e+85
5.16136e+85
2.31353e+85
6.86629e+84
1.31712e+84
9.26809e+82
-5.83745e+82
-3.68152e+82
-1.51575e+82
4.67546e+80
-3.68843e+80
-2.69784e+88
-2.34698e+87
2.22502e+87
1.58522e+87
9.18979e+86
5.11098e+86
2.03773e+86
5.0862e+85
1.06523e+85
2.04942e+84
4.13319e+83
1.3061e+83
7.56015e+82
5.97035e+82
1.30169e+83
-5.77236e+89
-9.62513e+88
-2.37825e+88
-5.1279e+87
-3.12455e+86
5.2441e+86
2.83871e+86
8.35484e+85
1.97337e+85
4.28179e+84
8.38068e+83
1.19701e+83
2.53293e+81
3.40423e+82
1.62041e+83
3.15928e+90
-2.84924e+89
-1.97712e+89
-5.23565e+88
-1.13001e+88
-8.2153e+86
1.95947e+86
4.25401e+85
-1.22607e+85
-2.14283e+85
-1.91257e+85
-1.43434e+85
-9.339e+84
-5.16026e+84
-4.03763e+84
2.59015e+91
3.84191e+90
-2.79471e+89
-1.62712e+89
-1.34044e+88
-2.00221e+87
-1.6736e+86
-1.27836e+86
-1.3535e+86
-9.59084e+85
-6.14235e+85
-3.96527e+85
-2.53574e+85
-1.5499e+85
-1.23372e+85
-5.95719e+92
2.11466e+91
4.0917e+90
-8.7026e+89
-4.00725e+88
1.14968e+88
-7.62521e+86
-3.25207e+85
4.08775e+85
3.19322e+85
4.05618e+85
3.53612e+85
1.94483e+85
1.4748e+84
-7.59246e+84
1.64403e+93
-5.62927e+92
3.06583e+91
2.08756e+90
-8.89885e+89
-2.16959e+88
2.05531e+87
-1.10999e+88
-9.79009e+87
-8.5187e+87
-6.93513e+87
-5.06785e+87
-3.14942e+87
-1.55786e+87
-5.5444e+86
3.42955e+94
1.22e+93
-5.07232e+92
2.81205e+91
1.67375e+90
-9.3412e+89
-7.23008e+88
-2.12829e+88
-1.38443e+88
-6.14447e+85
6.34881e+87
7.06999e+87
4.56564e+87
1.47054e+87
3.41089e+86
-1.12294e+95
3.23875e+94
9.80093e+92
-4.79107e+92
2.86064e+91
3.12109e+90
5.90179e+89
1.342e+90
1.24602e+90
1.06181e+90
8.62271e+89
6.43536e+89
4.16392e+89
2.16454e+89
8.22062e+88
-1.5487e+96
-8.79918e+94
3.07398e+94
8.64193e+92
-4.39121e+92
4.16634e+91
1.27219e+91
7.16723e+90
5.55279e+90
3.65553e+90
2.24301e+90
1.36715e+90
8.41646e+89
5.2833e+89
2.37344e+89
2.2727e+97
-1.48139e+96
-7.18478e+94
2.97568e+94
7.96622e+92
-4.37797e+92
1.94846e+91
-1.03857e+91
-1.48994e+91
-1.37583e+91
-1.23393e+91
-1.02801e+91
-7.49126e+90
-4.5773e+90
-2.24118e+90
-2.87064e+98
6.32045e+97
-4.0635e+96
-2.45509e+95
8.40529e+94
2.94849e+93
-1.23603e+93
3.21122e+92
3.5739e+92
3.95668e+92
3.97133e+92
3.49706e+92
2.70788e+92
1.98696e+92
1.44624e+92
-2.86799e+99
-2.73438e+98
6.07553e+97
-3.81568e+96
-2.88231e+95
8.78313e+94
9.57505e+93
3.32941e+93
4.2628e+93
3.53193e+93
2.46607e+93
1.66825e+93
1.16077e+93
7.83788e+92
4.63497e+92
1.99259e+100
-2.8081e+99
-2.34262e+98
5.81373e+97
-3.31403e+96
-2.97148e+95
1.16496e+95
3.27918e+94
1.84529e+94
1.47604e+94
1.05959e+94
7.03291e+93
4.15719e+93
2.20992e+93
1.24187e+93
1.89529e+101
1.6909e+100
-2.822e+99
-2.68084e+98
5.19538e+97
1.89369e+96
-7.84973e+95
1.86921e+95
1.2721e+95
6.55457e+94
4.23076e+94
2.58379e+94
1.36837e+94
6.23214e+93
3.09921e+93
-4.00837e+102
1.89151e+101
1.54529e+100
-2.57785e+99
-1.86421e+98
4.33239e+97
-2.74862e+96
-1.73687e+95
7.10804e+94
3.88578e+94
3.38212e+94
2.85053e+94
2.09032e+94
1.28736e+94
7.85054e+93
1.97316e+101
1.74338e+100
-2.98282e+99
-2.4911e+98
5.13677e+97
-5.379e+96
-1.0832e+96
-2.16638e+95
-8.54448e+94
-2.00907e+94
7.97823e+93
1.94565e+94
2.05181e+94
1.68109e+94
1.27307e+94
2.1222e+100
-2.80408e+99
-3.99311e+98
9.83485e+96
-7.34785e+96
-3.18613e+96
-1.16211e+96
-4.4354e+95
-1.67047e+95
-5.74493e+94
-1.14453e+94
1.49498e+94
2.14893e+94
2.01899e+94
1.63197e+94
-1.74774e+99
-3.24992e+98
-8.28952e+97
-2.54693e+97
-7.90833e+96
-2.55795e+96
-8.37675e+95
-2.54566e+95
-5.54056e+94
8.96289e+93
3.32017e+94
5.57394e+94
3.7808e+94
2.45751e+94
1.52673e+94
-1.73045e+98
-2.4264e+97
9.97558e+95
2.40097e+96
1.63256e+96
1.01257e+96
6.18887e+95
3.79409e+95
2.35136e+95
1.64412e+95
1.42899e+95
1.68252e+95
1.0997e+94
5.36438e+92
-1.82175e+92
1.8918e+97
5.22732e+96
1.8553e+96
8.35834e+95
4.16557e+95
2.22766e+95
1.27787e+95
7.77242e+94
5.22728e+94
1.11745e+95
3.73811e+94
-5.63693e+92
1.32406e+93
1.86878e+92
7.12641e+91
-4.95969e+95
-1.48655e+95
-1.05179e+95
-7.47599e+94
-5.17656e+94
-3.70506e+94
-2.76523e+94
-2.25702e+94
-3.32307e+94
4.41029e+94
9.12161e+94
-9.31042e+93
-6.7326e+93
-3.45606e+93
-1.71843e+93
-8.98954e+94
-3.30957e+94
-1.21785e+94
-6.19954e+93
-3.48335e+93
-1.71083e+93
-1.88217e+93
-1.55687e+93
2.94848e+93
-1.78599e+93
7.08056e+94
4.58559e+94
2.57473e+94
1.4123e+94
7.80291e+93
9.64684e+93
3.05608e+93
2.05405e+93
1.694e+93
1.48189e+93
1.1584e+93
5.36756e+92
4.94595e+91
-3.13507e+92
-1.60532e+93
2.19194e+93
7.8715e+93
9.22973e+93
7.86566e+93
6.02451e+93
1.46125e+93
6.12284e+92
2.22573e+92
9.03185e+91
3.55119e+91
1.0334e+91
3.39513e+91
5.35977e+91
3.78623e+91
1.35519e+92
-4.30971e+92
-6.9564e+92
-6.23501e+92
-5.09066e+92
-4.27232e+92
-2.49858e+92
-9.47829e+91
-4.70821e+91
-3.03026e+91
-2.24918e+91
-1.60024e+91
-7.88454e+90
-9.65941e+89
4.27949e+90
2.91771e+91
6.22769e+91
4.44152e+91
2.4827e+91
1.57266e+91
1.12954e+91
4.49437e+90
9.71763e+89
1.39595e+90
1.50856e+90
1.46007e+90
1.15655e+90
2.39947e+89
-5.56884e+89
-8.00057e+89
1.81738e+89
1.07947e+91
1.45569e+91
1.27828e+91
1.03597e+91
8.16393e+90
2.55451e+90
1.00052e+90
3.93575e+89
2.0421e+89
1.21744e+89
7.12444e+88
4.43623e+88
-5.41771e+87
-1.58318e+89
-5.30596e+89
-1.02194e+90
-9.08518e+89
-6.68166e+89
-4.93595e+89
-3.70895e+89
-2.91972e+89
-1.00152e+89
-6.58354e+88
-5.30772e+88
-4.47494e+88
-3.27983e+88
-1.41234e+88
3.56155e+87
1.58242e+88
-2.72105e+87
-8.55275e+88
-1.20923e+89
-1.09661e+89
-8.7996e+88
-6.6924e+88
-3.96064e+88
-1.60982e+88
-5.32945e+87
-1.8773e+87
-6.71041e+86
-6.29211e+86
-1.59275e+87
-1.81649e+87
5.04856e+86
7.16006e+87
1.8075e+88
1.90121e+88
1.54292e+88
1.18847e+88
9.2687e+87
7.66592e+87
2.87639e+87
1.42611e+87
9.26617e+86
6.68534e+86
4.03508e+86
5.12e+85
-4.09841e+86
-1.03537e+87
-1.55674e+87
-1.48945e+87
-1.00287e+87
-6.89635e+86
-4.72532e+86
-1.29325e+86
-1.3084e+86
-3.3286e+85
-4.73925e+85
-4.98424e+85
-4.27452e+85
-2.15388e+85
9.78191e+84
1.6564e+85
-4.48249e+85
-2.13303e+86
-4.3066e+86
-4.77442e+86
-4.4748e+86
-3.74633e+86
-1.47923e+86
-8.03851e+85
-3.11699e+85
-1.082e+85
-4.52305e+84
-1.98811e+84
-6.52428e+83
8.46141e+83
5.57382e+84
1.59157e+85
2.64308e+85
1.98192e+85
-1.82842e+85
-7.71986e+85
-1.2396e+86
-4.98324e+85
1.24411e+85
4.62065e+84
2.59206e+84
1.83761e+84
1.41073e+84
9.40273e+83
3.61981e+83
-1.12974e+83
-2.57938e+82
1.50228e+84
1.27179e+83
-1.91101e+85
-6.68667e+85
-1.37249e+86
-1.4452e+86
4.72496e+83
1.90966e+83
4.50145e+82
5.12064e+81
-2.15959e+81
1.47235e+82
4.98952e+82
5.77121e+82
-2.02295e+82
-2.20137e+83
-3.43418e+83
-1.67982e+84
-2.10075e+85
-9.39897e+85
-1.86411e+86
-1.21413e+83
-4.53837e+82
-2.62299e+82
-1.9435e+82
-1.53762e+82
-1.02106e+82
-1.93436e+81
8.78131e+81
1.5658e+82
-2.8259e+82
1.1277e+82
3.49468e+83
2.44897e+83
-9.22555e+84
-4.71296e+85
-6.67928e+81
-3.23639e+81
-7.4014e+80
1.6448e+80
3.85202e+80
1.92278e+80
-3.71945e+80
-3.32697e+81
-1.94794e+82
-1.15537e+83
-1.9657e+83
-1.94246e+83
1.56298e+83
1.0913e+84
1.4473e+84
2.53674e+81
1.06586e+81
4.32528e+80
2.11432e+80
1.071e+80
3.48964e+79
-1.1135e+80
-3.35688e+81
-2.41187e+82
-1.52221e+83
-2.71454e+83
-3.59866e+83
-3.97458e+83
-2.18929e+83
5.40211e+83
-3.25558e+80
-1.29445e+80
-7.31396e+79
-4.81296e+79
-4.27246e+79
-4.89713e+79
-1.24767e+80
-3.67552e+81
-2.74412e+82
-1.82054e+83
-3.22827e+83
-4.38096e+83
-5.57561e+83
-6.63448e+83
-6.76874e+83
-9.95586e+78
-4.3253e+78
9.20666e+76
4.25307e+78
-1.99972e+78
-2.48451e+79
-1.1018e+80
-4.2251e+81
-3.12292e+82
-2.00548e+83
-3.57916e+83
-5.02734e+83
-6.62469e+83
-8.43261e+83
-1.01888e+84
2.14199e+78
1.04743e+78
1.99244e+78
5.44159e+78
-4.22565e+77
-3.24309e+79
-1.05845e+80
-4.89781e+81
-3.68188e+82
-1.91322e+83
-3.48711e+83
-5.10112e+83
-6.9598e+83
-9.20415e+83
-1.18434e+84
-5.45068e+77
8.56585e+76
1.66185e+78
5.6633e+78
1.73152e+78
-4.38263e+79
-9.81762e+79
-5.66565e+81
-3.03974e+82
-1.55842e+83
-3.02405e+83
-4.5777e+83
-6.31253e+83
-8.38987e+83
-1.08894e+84
-9.5146e+77
-2.50232e+76
1.96863e+78
6.3597e+78
4.68877e+78
-5.1936e+79
-9.21729e+79
-6.67912e+81
-2.80426e+82
-1.11288e+83
-2.23394e+83
-3.47494e+83
-4.7961e+83
-6.29857e+83
-8.0299e+83
-1.02171e+78
2.9055e+76
2.34064e+78
7.00947e+78
6.96828e+78
-5.43062e+79
-8.40553e+79
-7.92025e+81
-2.85195e+82
-7.009e+82
-1.30556e+83
-2.09199e+83
-2.97554e+83
-3.94641e+83
-5.02291e+83
-1.16003e+78
8.98192e+76
2.76004e+78
7.66207e+78
8.60769e+78
-5.48401e+79
-8.02076e+79
-9.38094e+81
-2.56196e+82
-4.36848e+82
-7.05982e+82
-1.09119e+83
-1.57026e+83
-2.1204e+83
-2.74806e+83
-1.32547e+78
2.11108e+77
3.39111e+78
8.54728e+78
1.06737e+79
-5.7574e+79
-9.3701e+79
-6.27801e+81
-1.87134e+82
-2.7908e+82
-3.95664e+82
-5.53029e+82
-7.59648e+82
-1.01664e+83
-1.32252e+83
-1.55191e+78
3.48401e+77
4.21754e+78
9.68435e+78
1.32644e+79
-5.90434e+79
-1.06339e+80
-2.6097e+81
-1.03854e+82
-1.58254e+82
-2.10804e+82
-2.71916e+82
-3.49121e+82
-4.47358e+82
-5.67525e+82
-1.80215e+78
4.69044e+77
5.0659e+78
1.08612e+79
1.50951e+79
-5.40319e+79
-1.344e+80
-7.02699e+80
-3.93068e+81
-6.84481e+81
-9.26922e+81
-1.16564e+82
-1.43846e+82
-1.77031e+82
-2.17156e+82
-2.05006e+78
6.09864e+77
5.92998e+78
1.20534e+79
1.56338e+79
-4.17843e+79
-2.68155e+80
-1.41425e+79
-7.91857e+80
-1.9229e+81
-2.94444e+81
-3.90643e+81
-4.90142e+81
-5.99216e+81
-7.21985e+81
-2.32169e+78
7.99145e+77
6.9368e+78
1.3394e+79
1.47675e+79
-2.71201e+79
-3.86826e+80
-2.9809e+80
-9.29892e+79
-3.098e+80
-6.03135e+80
-9.14075e+80
-1.24354e+81
-1.59241e+81
-1.95959e+81
-2.62289e+78
1.02193e+78
8.09197e+78
1.49357e+79
1.29627e+79
-2.76843e+79
-3.16982e+80
-4.50595e+80
-2.13953e+80
-1.3947e+80
-1.3833e+80
-1.76621e+80
-2.40735e+80
-3.20729e+80
-4.09031e+80
-2.93213e+78
1.37041e+78
9.74824e+78
1.78083e+79
1.60458e+79
-2.75092e+79
-1.44117e+80
-2.34051e+80
-1.93981e+80
-1.44189e+80
-1.0852e+80
-8.84519e+79
-8.00108e+79
-7.97604e+79
-8.49529e+79
-3.49446e+78
1.33038e+78
1.1704e+79
2.34572e+79
2.90003e+79
1.86657e+79
-7.77786e+78
-4.25228e+79
-6.10644e+79
-6.17268e+79
-5.58729e+79
-4.86376e+79
-4.15243e+79
-3.52204e+79
-2.99443e+79
-4.70882e+78
-1.7364e+78
7.01259e+78
1.87468e+79
2.95059e+79
3.46524e+79
3.0146e+79
1.85168e+79
7.17637e+78
-2.56169e+77
-4.57098e+78
-6.74995e+78
-7.51493e+78
-7.36323e+78
-6.67834e+78
-5.1855e+78
-5.56884e+78
-2.04495e+78
3.82089e+78
9.8406e+78
1.40217e+79
1.5258e+79
1.40023e+79
1.16475e+79
9.22894e+78
7.08257e+78
5.28164e+78
3.82937e+78
2.71209e+78
1.86623e+78
-3.31727e+78
-5.42286e+78
-5.71332e+78
-4.5381e+78
-2.61911e+78
-6.82498e+77
8.83053e+77
1.90159e+78
2.39895e+78
2.53445e+78
2.45066e+78
2.23855e+78
1.96165e+78
1.66462e+78
1.36705e+78
-5.99328e+77
-2.06197e+78
-2.97257e+78
-3.21115e+78
-2.93831e+78
-2.41788e+78
-1.83205e+78
-1.29288e+78
-8.54763e+77
-5.23798e+77
-2.83167e+77
-1.13314e+77
2.0994e+75
7.49562e+76
1.15293e+77
6.63988e+77
2.19015e+77
-2.3809e+77
-5.25427e+77
-6.53319e+77
-6.75567e+77
-6.35192e+77
-5.64024e+77
-4.84089e+77
-4.06206e+77
-3.33999e+77
-2.68885e+77
-2.11724e+77
-1.63193e+77
-1.22365e+77
4.82775e+77
4.45674e+77
3.27973e+77
2.16544e+77
1.25689e+77
5.87105e+76
1.28788e+76
-1.64921e+76
-3.42114e+76
-4.39889e+76
-4.82459e+76
-4.8711e+76
-4.66868e+76
-4.31729e+76
-3.8587e+76
1.39993e+77
1.51878e+77
1.36418e+77
1.15099e+77
9.30261e+76
7.315e+76
5.63301e+76
4.26e+76
3.19289e+76
2.38564e+76
1.76404e+76
1.27762e+76
8.97298e+75
6.03049e+75
3.8344e+75
2.16284e+76
2.415e+76
2.30287e+76
2.09944e+76
1.85135e+76
1.5991e+76
1.36176e+76
1.14871e+76
9.71652e+75
8.29228e+75
7.08639e+75
6.03025e+75
5.10188e+75
4.29022e+75
3.58962e+75
2.13928e+75
2.15291e+75
1.90653e+75
1.70331e+75
1.51882e+75
1.34755e+75
1.18876e+75
1.05101e+75
9.40491e+74
8.49905e+74
7.68735e+74
6.92483e+74
6.20319e+74
5.52422e+74
4.89319e+74
1.08051e+74
1.48395e+74
1.20417e+74
8.97096e+73
6.54217e+73
4.81721e+73
3.62236e+73
2.81593e+73
2.28239e+73
1.91582e+73
1.64518e+73
1.43382e+73
1.26231e+73
1.1195e+73
9.97903e+72
-5.41195e+73
-2.19824e+73
-4.70417e+72
1.79286e+72
3.75285e+72
3.95556e+72
3.53841e+72
2.99203e+72
2.46992e+72
1.99159e+72
1.56796e+72
1.20945e+72
9.17163e+71
6.86607e+71
5.04478e+71
-1.93164e+73
-1.33907e+73
-7.79709e+72
-4.51568e+72
-2.616e+72
-1.51265e+72
-8.65738e+71
-4.83537e+71
-2.55054e+71
-1.17203e+71
-3.42657e+70
1.42452e+70
4.07183e+70
5.32787e+70
5.62844e+70
-2.44983e+72
-2.07641e+72
-1.47235e+72
-1.03048e+72
-7.23201e+71
-5.14458e+71
-3.73544e+71
-2.78521e+71
-2.1191e+71
-1.62548e+71
-1.24812e+71
-9.56911e+70
-7.31993e+70
-5.58736e+70
-4.26705e+70
-1.1219e+71
-1.11124e+71
-9.0635e+70
-7.12151e+70
-5.52814e+70
-4.32011e+70
-3.4428e+70
-2.81206e+70
-2.32811e+70
-1.93311e+70
-1.6028e+70
-1.32543e+70
-1.09281e+70
-8.98591e+69
-7.37647e+69
1.54804e+68
-1.53645e+67
-1.38534e+68
-1.93787e+68
-2.08481e+68
-2.04854e+68
-1.96023e+68
-1.86106e+68
-1.74734e+68
-1.61851e+68
-1.48039e+68
-1.33891e+68
-1.19883e+68
-1.06413e+68
-9.37771e+67
2.72422e+67
2.80528e+67
2.32063e+67
1.86508e+67
1.4862e+67
1.20237e+67
1.00084e+67
8.50445e+66
7.26755e+66
6.20197e+66
5.27692e+66
4.47473e+66
3.78117e+66
3.18535e+66
2.67764e+66
-1.26559e+66
-6.86249e+65
-3.45962e+65
-1.8871e+65
-1.10328e+65
-6.85674e+64
-4.51386e+64
-3.12522e+64
-2.24396e+64
-1.64872e+64
-1.2296e+64
-9.26979e+63
-7.04812e+63
-5.39566e+63
-4.18547e+63
-2.14244e+65
-1.32813e+65
-7.30051e+64
-4.28823e+64
-2.67123e+64
-1.76063e+64
-1.22104e+64
-8.78947e+63
-6.46584e+63
-4.81192e+63
-3.60654e+63
-2.71741e+63
-2.05638e+63
-1.56281e+63
-1.19558e+63
-1.41961e+64
-1.04723e+64
-6.41953e+63
-4.11322e+63
-2.7543e+63
-1.93578e+63
-1.41582e+63
-1.05941e+63
-8.01506e+62
-6.09124e+62
-4.63638e+62
-3.53228e+62
-2.69326e+62
-2.05697e+62
-1.57477e+62
8.90615e+62
3.35863e+62
1.05929e+62
2.05943e+61
-1.04654e+61
-2.1247e+61
-2.37221e+61
-2.2588e+61
-1.99633e+61
-1.69156e+61
-1.39695e+61
-1.13325e+61
-9.06595e+60
-7.18832e+60
-5.64184e+60
3.27717e+62
1.80341e+62
9.26862e+61
5.18382e+61
3.1259e+61
2.00826e+61
1.35977e+61
9.57422e+60
6.89939e+60
5.02863e+60
3.68544e+60
2.70917e+60
1.99574e+60
1.47368e+60
1.09751e+60
4.77113e+61
2.69259e+61
1.39127e+61
7.85827e+60
4.79841e+60
3.12412e+60
2.14216e+60
1.52515e+60
1.10897e+60
8.14159e+59
6.0026e+59
4.43514e+59
3.28283e+59
2.43638e+59
1.82327e+59
4.83936e+60
2.79869e+60
1.46583e+60
8.38766e+59
5.17923e+59
3.40075e+59
2.34147e+59
1.66528e+59
1.20469e+59
8.77623e+58
6.40928e+58
4.68577e+58
3.43119e+58
2.5213e+58
1.87045e+58
3.33016e+59
1.93161e+59
1.01158e+59
5.86654e+58
3.68552e+58
2.46002e+58
1.71705e+58
1.23435e+58
9.00055e+57
6.59365e+57
4.83353e+57
3.54294e+57
2.59959e+57
1.91483e+57
1.42454e+57
6.84042e+57
5.42704e+57
3.07584e+57
1.92679e+57
1.27662e+57
8.81089e+56
6.25916e+56
4.52284e+56
3.28723e+56
2.38907e+56
1.734e+56
1.25831e+56
9.15052e+55
6.69824e+55
4.95301e+55
-3.24531e+57
-1.40523e+57
-5.87066e+56
-2.69036e+56
-1.34928e+56
-7.29771e+55
-4.21698e+55
-2.58002e+55
-1.65043e+55
-1.08957e+55
-7.35719e+54
-5.056e+54
-3.52434e+54
-2.4819e+54
-1.79105e+54
-6.44054e+56
-3.2099e+56
-1.47928e+56
-7.63179e+55
-4.32423e+55
-2.63444e+55
-1.69614e+55
-1.13529e+55
-7.77696e+54
-5.39471e+54
-3.77177e+54
-2.65467e+54
-1.88169e+54
-1.34606e+54
-9.77411e+53
-5.59221e+55
-3.0412e+55
-1.47601e+55
-8.0114e+54
-4.73979e+54
-2.99238e+54
-1.98205e+54
-1.35544e+54
-9.43376e+53
-6.62496e+53
-4.67893e+53
-3.32228e+53
-2.37453e+53
-1.71302e+53
-1.25203e+53
-1.40487e+54
-1.01534e+54
-5.68123e+53
-3.41687e+53
-2.17316e+53
-1.44402e+53
-9.91505e+52
-6.95096e+52
-4.92039e+52
-3.49703e+52
-2.49233e+52
-1.78257e+52
-1.2823e+52
-9.30933e+51
-6.82874e+51
1.96234e+53
9.26287e+52
3.92178e+52
1.84678e+52
9.44814e+51
5.16997e+51
2.99204e+51
1.80931e+51
1.12949e+51
7.21406e+50
4.68848e+50
3.08829e+50
2.05414e+50
1.37585e+50
9.40434e+49
1.82573e+52
1.11989e+52
5.86032e+51
3.28753e+51
1.9677e+51
1.24445e+51
8.22695e+50
5.60771e+50
3.89002e+50
2.7261e+50
1.92507e+50
1.36918e+50
9.81149e+49
7.08841e+49
5.1712e+49
1.20105e+51
5.75199e+50
2.88809e+50
1.57082e+50
9.36643e+49
6.00592e+49
4.0673e+49
2.85499e+49
2.04269e+49
1.47591e+49
1.07354e+49
7.85366e+48
5.77881e+48
4.27731e+48
3.19006e+48
3.19307e+50
1.28461e+50
4.90457e+49
2.13213e+49
1.04332e+49
5.63622e+48
3.30116e+48
2.05597e+48
1.33598e+48
8.93452e+47
6.0982e+47
4.22469e+47
2.96274e+47
2.1021e+47
1.51863e+47
4.14126e+49
1.93383e+49
8.12394e+48
3.89192e+48
2.07352e+48
1.2002e+48
7.39203e+47
4.74969e+47
3.13549e+47
2.10956e+47
1.43927e+47
9.91913e+46
6.89929e+46
4.84692e+46
3.44295e+46
2.03668e+48
9.38035e+47
4.1492e+47
2.11665e+47
1.20791e+47
7.45515e+46
4.85506e+46
3.26746e+46
2.24172e+46
1.55928e+46
1.09633e+46
7.76941e+45
5.54443e+45
3.98439e+45
2.87611e+45
5.86264e+46
6.45103e+45
-4.3284e+45
-3.656e+45
-2.36098e+45