/*--------------------------------*- C++ -*----------------------------------*\
  =========                 |
  \\      /  F ield         | OpenFOAM: The Open Source CFD Toolbox
   \\    /   O peration     | Website:  https://openfoam.org
    \\  /    A nd           | Version:  7
     \\/     M anipulation  |
\*---------------------------------------------------------------------------*/
FoamFile
{
    version     2.0;
    format      ascii;
    class       volScalarField;
    location    "1.1";
    object      T;
}
// * * * * * * * * * * * * * * * * * * * * * * * * * * * * * * * * * * * * * //

dimensions      [0 0 0 1 0 0 0];

internalField   nonuniform List<scalar> 
32100
(
-1.80599e+20
-1.4346e+19
2.88543e+18
-1.89425e+17
-1.26219e+16
4.5685e+15
8.05634e+13
-4.22916e+13
3.04499e+12
1.56909e+11
-4.32886e+10
1.41319e+08
2.02388e+06
4.49387e+06
1.30871e+06
-1.6942e+19
3.15629e+18
-1.9632e+17
-1.38458e+16
4.70481e+15
8.71151e+13
-4.35336e+13
3.08611e+12
1.33338e+11
-8.59435e+10
-1.63278e+10
-3.74695e+06
3.72936e+07
4.49856e+06
1.1875e+06
3.49153e+18
-2.07268e+17
-1.5575e+16
4.89628e+15
9.42501e+13
-4.52343e+13
3.23704e+12
1.60066e+11
-7.70086e+10
-4.07124e+09
-3.6595e+09
4.19143e+07
6.01546e+07
2.68181e+06
987317
-2.226e+17
-1.96265e+16
5.10826e+15
1.22982e+14
-4.8244e+13
3.14851e+12
2.58281e+11
-6.42211e+10
-4.37939e+08
1.89233e+08
-5.79946e+08
1.05206e+08
5.58757e+07
773790
713432
-3.114e+16
4.03282e+15
1.10567e+14
-3.31216e+13
2.30132e+12
9.56374e+10
1.61703e+10
1.16581e+10
5.481e+08
-1.00883e+07
6.13886e+07
9.54253e+07
3.62233e+07
-507044
421881
-2.77946e+15
-1.24787e+15
-7.20394e+13
1.9624e+13
-6.29762e+11
-1.77835e+11
8.85176e+10
1.27641e+10
-1.69811e+08
3.11905e+07
6.65666e+07
5.26315e+07
1.70035e+07
-1.01415e+06
193161
-7.83666e+15
-1.42083e+15
-2.34058e+13
1.60648e+13
-7.187e+11
-1.1768e+11
8.37481e+10
1.23413e+10
-6.5801e+07
-1.61501e+07
2.67072e+07
1.85945e+07
5.24634e+06
-943420
67026.6
-7.49888e+15
-1.32207e+15
-3.45163e+13
1.5243e+13
-4.44241e+11
-1.33616e+11
7.66983e+10
1.26781e+10
2.21437e+07
-3.97562e+07
7.53862e+06
2.41744e+06
453904
-612592
22714.2
-6.84092e+15
-1.283e+15
-4.25836e+13
1.46672e+13
-2.4499e+11
-1.48542e+11
7.00193e+10
1.28639e+10
1.25385e+08
-4.63874e+07
2.68304e+06
-1.58671e+06
-598696
-287762
15960.3
-6.27548e+15
-1.23775e+15
-5.0006e+13
1.38844e+13
-4.70676e+10
-1.59298e+11
6.29994e+10
1.29356e+10
2.34599e+08
-4.7383e+07
2.35982e+06
-1.42529e+06
-507796
-89802.2
15758.2
-5.7489e+15
-1.19241e+15
-5.71893e+13
1.30066e+13
1.48517e+11
-1.66445e+11
5.58523e+10
1.28883e+10
3.41901e+08
-4.66279e+07
2.14092e+06
-970702
-322685
-11916.5
12254.5
-5.26309e+15
-1.1516e+15
-6.326e+13
1.20095e+13
3.32588e+11
-1.69774e+11
4.87534e+10
1.27257e+10
4.43302e+08
-4.43122e+07
1.6442e+06
-662817
-231300
338.475
6697.95
-4.82466e+15
-1.09879e+15
-6.5164e+13
1.08606e+13
4.87131e+11
-1.69172e+11
4.19829e+10
1.24579e+10
5.34972e+08
-4.04833e+07
1.10862e+06
-461388
-183426
-3516.29
2283.61
-4.29096e+15
-9.1566e+14
-5.75813e+13
8.49594e+12
5.66435e+11
-1.60185e+11
3.59711e+10
1.20578e+10
6.11983e+08
-3.56003e+07
671478
-314673
-133067
-4049.08
1000.52
-2.99583e+15
-6.89183e+14
-5.07818e+13
6.30795e+12
5.69174e+11
-1.30875e+11
2.80414e+10
1.09527e+10
6.71803e+08
-3.1e+07
217658
-266683
-141273
-5738
682.44
-2.14717e+15
-5.68377e+14
-4.83131e+13
5.04331e+12
5.74404e+11
-1.10346e+11
2.03505e+10
9.92802e+09
7.45313e+08
-2.64587e+07
-333763
-231060
-177441
-9193.78
635.799
-1.83432e+15
-5.16174e+14
-4.77814e+13
4.24943e+12
6.07423e+11
-1.03533e+11
1.48619e+10
9.42719e+09
8.35211e+08
-2.07107e+07
-929651
-156135
-191879
-13019.9
650.715
-1.61569e+15
-4.85718e+14
-4.89648e+13
3.62412e+12
6.55946e+11
-9.61753e+10
1.05121e+10
9.07015e+09
9.32741e+08
-1.32924e+07
-1.55597e+06
-75038.2
-188707
-16314
612.932
-1.43522e+15
-4.57821e+14
-5.0017e+13
2.97563e+12
7.02757e+11
-8.64536e+10
6.49405e+09
8.72835e+09
1.03416e+09
-4.09529e+06
-2.18304e+06
-3986.81
-175359
-18895.2
492.606
-1.27967e+15
-4.30371e+14
-5.0862e+13
2.27411e+12
7.446e+11
-7.44715e+10
2.62043e+09
8.32391e+09
1.13517e+09
6.95524e+06
-2.777e+06
47728.9
-162186
-21423.5
300.496
-1.1359e+15
-4.01456e+14
-5.13153e+13
1.53553e+12
7.777e+11
-6.02364e+10
-1.07114e+09
7.83138e+09
1.23416e+09
1.99882e+07
-3.30278e+06
79104.6
-144865
-23454.2
44.0797
-9.98169e+14
-3.70246e+14
-5.1458e+13
7.74946e+11
7.99115e+11
-4.37961e+10
-4.47588e+09
7.25881e+09
1.33239e+09
3.53212e+07
-3.72927e+06
89043.2
-121881
-24281.8
-243.411
-8.68212e+14
-3.38286e+14
-5.13567e+13
-1.79079e+09
8.06905e+11
-2.52429e+10
-7.4738e+09
6.60874e+09
1.43097e+09
5.35302e+07
-4.03344e+06
76429.1
-100868
-24613
-526.989
-7.47961e+14
-3.06685e+14
-5.09718e+13
-7.90121e+11
7.98242e+11
-4.6958e+09
-9.95699e+09
5.88209e+09
1.5289e+09
7.52698e+07
-4.17782e+06
40655
-82895.2
-24973.4
-799.932
-6.39512e+14
-2.76925e+14
-5.03726e+13
-1.58506e+12
7.71583e+11
1.73765e+10
-1.18216e+10
5.07029e+09
1.62337e+09
1.00932e+08
-4.07733e+06
-20009.3
-66472.9
-25515.8
-1080.69
-5.42866e+14
-2.49049e+14
-4.94553e+13
-2.37839e+12
7.25216e+11
4.03782e+10
-1.29402e+10
4.16453e+09
1.71025e+09
1.31086e+08
-3.60812e+06
-110449
-50748.7
-26412.6
-1412.75
-4.59146e+14
-2.22961e+14
-4.82549e+13
-3.16698e+12
6.57414e+11
6.37274e+10
-1.31871e+10
3.16896e+09
1.78344e+09
1.66331e+08
-2.59375e+06
-236574
-34395
-27228.5
-1810.02
-3.88227e+14
-1.99714e+14
-4.70613e+13
-3.95849e+12
5.66064e+11
8.66977e+10
-1.24235e+10
2.09275e+09
1.83162e+09
2.086e+08
-817198
-394618
-17425.1
-27107
-2212.71
-3.27334e+14
-1.79554e+14
-4.60267e+13
-4.75669e+12
4.48419e+11
1.08461e+11
-1.05196e+10
9.56101e+08
1.84539e+09
2.57885e+08
1.99697e+06
-581875
-2234.37
-26356.7
-2612.44
-2.73579e+14
-1.60958e+14
-4.49014e+13
-5.53913e+12
3.01926e+11
1.27889e+11
-7.31318e+09
-2.08317e+08
1.82019e+09
3.13708e+08
6.18005e+06
-792974
9658.31
-25083.8
-3015.04
-2.25411e+14
-1.41747e+14
-4.30718e+13
-6.26205e+12
1.26007e+11
1.43488e+11
-2.63297e+09
-1.3562e+09
1.74512e+09
3.77686e+08
1.22456e+07
-999665
15522.9
-22680.6
-3345.75
-1.8344e+14
-1.21899e+14
-4.02145e+13
-6.90554e+12
-7.91085e+10
1.53476e+11
3.66776e+09
-2.41053e+09
1.60336e+09
4.49071e+08
2.10163e+07
-1.16173e+06
12114.7
-19775.1
-3656.23
-1.49288e+14
-1.04285e+14
-3.73311e+13
-7.45846e+12
-3.13208e+11
1.55655e+11
1.16493e+10
-3.24684e+09
1.37294e+09
5.26601e+08
3.37782e+07
-1.26783e+06
-2337.92
-17244.4
-4158.91
-1.21714e+14
-9.09282e+13
-3.53815e+13
-7.9518e+12
-5.77021e+11
1.47626e+11
2.11811e+10
-3.68905e+09
1.03761e+09
6.04619e+08
5.22141e+07
-1.22559e+06
-36066.8
-14502.8
-5032.32
-9.8575e+13
-8.00965e+13
-3.38575e+13
-8.41358e+12
-8.72997e+11
1.2637e+11
3.17751e+10
-3.51324e+09
5.94934e+08
6.74311e+08
7.85306e+07
-738207
-103775
-10420.5
-6319.36
-7.91427e+13
-6.93495e+13
-3.18725e+13
-8.84744e+12
-1.20349e+12
8.78297e+10
4.22032e+10
-2.5062e+09
6.01548e+07
7.19738e+08
1.147e+08
725235
-225947
-4507.91
-7937.33
-6.29606e+13
-5.91858e+13
-2.96596e+13
-9.26824e+12
-1.57237e+12
2.79857e+10
5.11312e+10
-5.24411e+08
-5.20466e+08
7.20233e+08
1.60715e+08
4.21727e+06
-420938
2042.43
-9476.91
-4.94093e+13
-5.03917e+13
-2.76615e+13
-9.66391e+12
-1.97664e+12
-5.57289e+10
5.73013e+10
2.52137e+09
-1.0617e+09
6.57428e+08
2.12952e+08
1.07707e+07
-652784
2954.33
-9997.74
-3.81139e+13
-4.27777e+13
-2.58031e+13
-9.97543e+12
-2.38969e+12
-1.62944e+11
5.89204e+10
6.61143e+09
-1.43723e+09
5.16677e+08
2.63547e+08
2.13253e+07
-814344
-13981.6
-8348.18
-2.8763e+13
-3.60946e+13
-2.40085e+13
-1.01743e+13
-2.75154e+12
-2.8996e+11
5.38618e+10
1.14997e+10
-1.49996e+09
2.98301e+08
3.02109e+08
3.6471e+07
-685290
-68460.4
-3381.98
-2.1118e+13
-2.99264e+13
-2.20339e+13
-1.01602e+13
-3.03844e+12
-4.30209e+11
4.0361e+10
1.65025e+10
-1.13468e+09
2.76005e+07
3.19148e+08
5.60393e+07
234205
-188647
4975.71
-1.50638e+13
-2.40691e+13
-1.97269e+13
-9.84578e+12
-3.27427e+12
-5.7644e+11
1.79418e+10
2.08879e+10
-3.03589e+08
-2.55011e+08
3.06924e+08
7.66817e+07
2.13613e+06
-344168
11130.4
-1.0562e+13
-1.87877e+13
-1.71174e+13
-9.3234e+12
-3.46247e+12
-7.22232e+11
-1.26768e+10
2.35301e+10
9.87684e+08
-5.01919e+08
2.57949e+08
9.02094e+07
4.73888e+06
-485567
8381.56
-7.36453e+12
-1.44507e+13
-1.45304e+13
-8.75362e+12
-3.60149e+12
-8.62759e+11
-4.9759e+10
2.41497e+10
2.53169e+09
-6.59695e+08
1.88342e+08
9.76466e+07
7.80684e+06
-581715
-4855.24
-5.14515e+12
-1.11227e+13
-1.23175e+13
-8.20187e+12
-3.70117e+12
-9.96891e+11
-9.15671e+10
2.25822e+10
4.0253e+09
-6.68104e+08
1.15404e+08
9.86439e+07
9.85159e+06
-660296
-57753.6
-3.60831e+12
-8.62496e+12
-1.04929e+13
-7.66257e+12
-3.77543e+12
-1.12685e+12
-1.37273e+11
1.92144e+10
5.38117e+09
-5.79188e+08
4.28562e+07
8.68317e+07
9.84966e+06
-387251
-56156.1
-2.52138e+12
-6.71685e+12
-9.00381e+12
-7.16988e+12
-3.83105e+12
-1.25583e+12
-1.87082e+11
1.46404e+10
6.52737e+09
-4.59461e+08
-1.46093e+07
7.35371e+07
9.10856e+06
-181634
-30927.7
-1.74787e+12
-5.21909e+12
-7.73993e+12
-6.71685e+12
-3.86236e+12
-1.37883e+12
-2.40917e+11
8.6115e+09
7.68349e+09
-3.20612e+08
-6.11673e+07
6.62634e+07
8.93934e+06
-91482.7
-24016.8
-1.1857e+12
-4.00575e+12
-6.58291e+12
-6.24392e+12
-3.84817e+12
-1.484e+12
-2.95959e+11
7.2672e+08
8.80612e+09
-1.45225e+08
-9.99157e+07
6.23781e+07
9.36687e+06
-34422.2
-23369.8
-7.86905e+11
-3.02829e+12
-5.53574e+12
-5.75989e+12
-3.79483e+12
-1.57432e+12
-3.51545e+11
-9.20286e+09
9.72457e+09
8.01278e+07
-1.35345e+08
5.94946e+07
1.00117e+07
24200.9
-23640.2
-5.07857e+11
-2.25921e+12
-4.63964e+12
-5.30034e+12
-3.7269e+12
-1.66373e+12
-4.12651e+11
-2.14034e+10
1.04345e+10
3.57538e+08
-1.6688e+08
5.60964e+07
1.04683e+07
101093
-16731.2
-3.16195e+11
-1.65669e+12
-3.85897e+12
-4.81432e+12
-3.64859e+12
-1.7539e+12
-4.82066e+11
-3.6655e+10
1.08885e+10
6.87539e+08
-1.91559e+08
5.08045e+07
1.0363e+07
195196
6612.2
-1.91335e+11
-1.18356e+12
-3.12424e+12
-4.29696e+12
-3.55339e+12
-1.84567e+12
-5.5812e+11
-5.57266e+10
1.09396e+10
1.06211e+09
-2.06878e+08
4.39457e+07
9.65416e+06
292175
49453
-1.11535e+11
-8.23472e+11
-2.4603e+12
-3.79304e+12
-3.463e+12
-1.94134e+12
-6.41874e+11
-7.91617e+10
1.03993e+10
1.46333e+09
-2.11646e+08
3.65474e+07
8.46824e+06
384730
125572
-6.01713e+10
-5.58349e+11
-1.91022e+12
-3.32507e+12
-3.3625e+12
-2.03257e+12
-7.33395e+11
-1.07486e+11
9.07513e+09
1.86173e+09
-2.03444e+08
2.93188e+07
6.8934e+06
460996
243292
-2.83826e+10
-3.6236e+11
-1.44611e+12
-2.87004e+12
-3.21169e+12
-2.11196e+12
-8.33349e+11
-1.41309e+11
6.76346e+09
2.20757e+09
-1.78559e+08
2.25173e+07
5.05043e+06
386853
288083
-1.02085e+10
-2.19439e+11
-1.05233e+12
-2.40687e+12
-3.00993e+12
-2.17516e+12
-9.4389e+11
-1.82444e+11
3.27047e+09
2.37042e+09
-1.33459e+08
1.52467e+07
2.69932e+06
217410
272997
-1.42586e+09
-1.21051e+11
-7.27898e+11
-1.95261e+12
-2.75617e+12
-2.21037e+12
-1.05839e+12
-2.31337e+11
-1.50897e+09
2.31742e+09
-8.12951e+07
7.63762e+06
1.39485e+06
214820
270695
1.60481e+09
-5.82407e+10
-4.69436e+11
-1.51794e+12
-2.44729e+12
-2.20705e+12
-1.17371e+12
-2.85315e+11
-7.74015e+09
2.24791e+09
-3.89332e+07
956560
1.98906e+06
244426
333618
1.7796e+09
-2.24481e+10
-2.73722e+11
-1.11549e+12
-2.09824e+12
-2.16264e+12
-1.29022e+12
-3.38102e+11
-1.59578e+10
2.91096e+09
-4.28179e+07
2.35198e+06
2.68132e+06
1.54206e+06
1.10765e+06
8.9054e+08
-5.23159e+09
-1.34804e+11
-7.57524e+11
-1.72773e+12
-2.07575e+12
-1.40443e+12
-3.81695e+11
-2.69165e+10
4.64305e+09
-1.12874e+08
1.17761e+07
-204512
1.24599e+06
1.5731e+06
-7.29672e+07
-2.62356e+07
-4.72513e+10
-4.51483e+11
-1.34868e+12
-1.94307e+12
-1.51119e+12
-4.18304e+11
-4.01358e+10
2.68916e+09
-1.88412e+07
3.0707e+07
2.28331e+07
9.82693e+06
3.82002e+06
-4.79431e+08
-9.86471e+08
-4.73612e+09
-2.05379e+11
-9.6768e+11
-1.75755e+12
-1.60277e+12
-4.72692e+11
-5.97732e+10
-5.86695e+09
1.30586e+09
6.29012e+08
6.16827e+08
4.61979e+08
1.79433e+08
-6.15719e+08
-1.88826e+09
3.60967e+09
-3.29105e+10
-5.94537e+11
-1.51566e+12
-1.66404e+12
-5.39623e+11
-7.97037e+10
-2.38342e+10
-9.30081e+09
-8.93054e+09
-1.31627e+10
-1.66966e+10
-9.5967e+09
-1.56929e+09
-2.98296e+09
2.31126e+09
4.53436e+10
-2.56033e+11
-1.22762e+12
-1.67668e+12
-5.91683e+11
-8.46793e+10
-2.57413e+10
-3.63104e+10
-3.33502e+10
-4.26171e+10
-3.3424e+10
-1.84215e+10
-8.26327e+09
-2.62531e+09
8.41886e+09
4.63849e+10
-2.82623e+10
-9.19735e+11
-1.61164e+12
-6.24778e+11
-8.77073e+10
-8.09025e+08
-7.32395e+09
-1.55142e+10
-1.41569e+10
-1.22941e+10
-1.76413e+10
1.53491e+11
7.31557e+10
3.48251e+10
5.40529e+10
-2.87915e+10
-6.28634e+11
-1.45011e+12
-6.37167e+11
-1.05947e+11
-1.77065e+08
1.45069e+08
-1.2176e+09
-2.04247e+09
-3.71236e+09
-1.49969e+10
2.18356e+11
1.81986e+10
8.48634e+10
9.01358e+10
-2.0852e+11
-7.75699e+11
-1.26627e+12
-6.18469e+11
-1.50208e+11
-5.53599e+10
-2.08377e+10
-9.50806e+09
-6.01391e+09
-4.3074e+09
-1.21905e+10
-3.01248e+13
-9.58154e+12
-3.98697e+12
-2.24718e+12
-1.40362e+12
-1.47949e+12
-1.64628e+12
-5.98985e+11
-2.14783e+11
-9.11584e+10
-3.82477e+10
-1.73089e+10
-9.19591e+09
-5.02782e+09
-1.04131e+10
4.88852e+13
5.97993e+12
-1.51511e+13
-1.3451e+13
-9.82592e+12
-6.48995e+12
-3.56713e+12
-1.71278e+12
-6.38202e+11
-2.28525e+11
-8.4582e+10
-3.40586e+10
-1.53308e+10
-7.1121e+09
-8.61174e+09
3.41538e+15
6.82261e+14
1.96172e+14
6.31651e+13
1.64741e+13
7.67274e+11
-3.26215e+12
-2.35509e+12
-1.10653e+12
-4.30072e+11
-1.62031e+11
-6.40259e+10
-2.73677e+10
-1.26482e+10
-1.79064e+10
-3.81718e+16
-2.73826e+15
7.04201e+14
4.17441e+14
1.9162e+14
6.03449e+13
7.94871e+12
-8.49158e+11
-9.5353e+11
-4.19609e+11
-1.45581e+11
-4.10843e+10
-7.79774e+09
-1.12156e+09
-3.00675e+09
-1.00881e+17
-4.16051e+16
-9.74186e+15
-1.32917e+15
1.24096e+13
7.72772e+13
1.37107e+13
-4.17887e+11
-1.15761e+12
-8.07518e+11
-5.30769e+11
-3.452e+11
-2.06319e+11
-1.06074e+11
-6.69044e+10
5.24826e+18
8.00442e+16
-5.34188e+16
-5.02949e+15
-4.68406e+14
-4.1181e+13
1.14103e+13
-3.21045e+12
-3.09162e+12
-1.50051e+12
-6.60964e+11
-2.98893e+11
-1.73818e+11
-1.33653e+11
-1.40878e+11
1.58439e+19
5.47267e+18
7.13428e+16
-5.22395e+16
5.92388e+15
1.06963e+14
1.53641e+14
2.29654e+14
2.01723e+14
1.7031e+14
1.35624e+14
9.82894e+13
6.11813e+13
3.01229e+13
1.12008e+13
-4.97943e+20
1.87938e+19
5.26515e+18
-1.95344e+17
-3.37005e+16
9.44149e+15
2.53376e+15
1.99688e+15
1.57763e+15
1.14507e+15
8.07801e+14
5.49381e+14
3.44652e+14
1.87959e+14
7.0507e+13
4.13798e+21
-4.51191e+20
1.96035e+19
4.77013e+18
-1.70797e+17
-2.7277e+16
9.91211e+15
1.26558e+15
-2.1871e+14
-9.3957e+14
-1.2287e+15
-1.08338e+15
-6.75256e+14
-2.41874e+14
-5.93894e+13
-5.29867e+21
3.60649e+21
-4.16147e+20
1.94688e+19
4.60285e+18
-1.7484e+17
-2.20658e+16
2.46047e+16
2.29568e+16
2.43241e+16
2.25436e+16
1.79067e+16
1.17472e+16
5.97156e+15
2.26972e+15
-1.71973e+23
-3.09417e+21
3.23377e+21
-3.93039e+20
1.98744e+19
4.93388e+18
1.50893e+17
2.0365e+17
1.67572e+17
9.9185e+16
5.53089e+16
3.01222e+16
1.69291e+16
1.0915e+16
5.03369e+15
-1.16532e+24
-1.61045e+23
-1.78674e+21
2.99848e+21
-3.81249e+20
1.22798e+19
-2.95819e+18
-7.86469e+18
-7.59499e+18
-6.94998e+18
-6.00737e+18
-4.82712e+18
-3.47225e+18
-2.15088e+18
-1.05641e+18
7.412e+25
-3.12539e+24
-4.47434e+23
-9.59641e+21
8.73199e+21
-1.46282e+21
-2.34263e+20
-2.09713e+20
-1.7674e+20
-1.32983e+20
-9.50315e+19
-6.78303e+19
-4.71742e+19
-3.24763e+19
-2.4631e+19
-6.06716e+26
6.93974e+25
-2.79947e+24
-4.4133e+23
-1.58651e+22
8.38702e+21
-1.85639e+21
-4.87287e+20
-3.59448e+20
-2.88651e+20
-2.01008e+20
-1.26944e+20
-8.1026e+19
-5.708e+19
-3.51317e+19
1.04275e+27
-5.24941e+26
6.46708e+25
-2.67334e+24
-4.78729e+23
-2.05887e+22
9.52565e+21
-5.03478e+20
4.28505e+20
3.41031e+20
2.03951e+20
9.79256e+19
2.87581e+19
-1.31314e+18
-2.64365e+18
2.5803e+28
6.6692e+26
-4.76433e+26
5.90766e+25
4.94979e+23
-7.33884e+23
-4.11872e+22
3.58036e+22
1.70729e+22
9.21664e+21
5.52811e+21
2.89288e+21
1.29862e+21
4.67753e+20
2.14984e+20
1.64617e+29
2.47156e+28
4.62438e+26
-4.24956e+26
5.4536e+25
-1.84703e+24
-1.85824e+23
4.56e+22
3.4e+22
1.67978e+22
1.0832e+22
6.99386e+21
4.22711e+21
2.12822e+21
1.0741e+21
2.65899e+28
5.04809e+26
-4.6853e+26
6.65559e+25
-1.50981e+24
-7.79314e+22
1.32661e+23
8.57912e+22
3.96895e+22
2.1154e+22
1.13432e+22
7.18184e+21
5.50679e+21
3.63757e+21
2.13518e+21
1.10711e+27
-5.96993e+26
5.95834e+25
2.72461e+24
5.66239e+23
3.25538e+23
1.82132e+23
9.70993e+22
5.28248e+22
2.83263e+22
1.43678e+22
7.96419e+21
5.77339e+21
3.96e+21
2.34528e+21
-4.41742e+26
-9.59902e+24
4.86893e+24
2.20633e+24
9.38793e+23
4.30163e+23
2.07598e+23
1.05514e+23
5.57178e+22
2.98118e+22
1.61043e+22
9.77594e+21
5.25343e+21
2.4624e+21
8.90977e+20
3.23233e+25
5.91804e+24
1.58349e+24
5.6281e+23
2.22054e+23
9.61927e+22
4.43368e+22
2.11116e+22
9.87068e+21
4.61857e+21
2.00678e+21
1.10658e+21
-1.47078e+21
-7.30706e+20
-2.95786e+20
-4.84448e+23
-1.46775e+23
-9.69301e+22
-5.58304e+22
-3.44152e+22
-2.28798e+22
-1.59277e+22
-1.18101e+22
-1.22054e+22
-1.98155e+22
-3.24003e+21
1.23262e+21
1.57703e+20
2.20302e+19
1.19576e+19
-6.21505e+22
-1.84634e+22
-1.18499e+22
-8.57024e+21
-5.96702e+21
-4.18583e+21
-3.10986e+21
-2.41891e+21
-4.3376e+21
-1.54359e+22
-1.33458e+22
-5.09135e+21
-8.05086e+20
-3.42381e+20
-1.60465e+20
-9.38868e+21
-3.91892e+21
-1.12063e+21
-1.99921e+20
1.44002e+20
2.16646e+20
-2.01443e+20
-5.68381e+20
-4.95372e+20
-7.72937e+21
-1.13816e+22
-7.77794e+21
-4.63127e+21
-2.74427e+21
-1.59096e+21
2.33623e+21
8.93413e+20
3.76685e+20
2.02921e+20
1.28486e+20
7.58151e+19
3.72529e+19
8.83051e+18
-1.68867e+19
-1.10982e+20
-1.19304e+21
-1.71656e+21
-1.49199e+21
-1.1266e+21
-8.27664e+20
-1.91536e+20
-7.05767e+19
-3.66771e+19
-2.46435e+19
-1.88221e+19
-1.34975e+19
-5.54693e+18
9.68738e+17
3.57709e+18
1.66421e+19
-2.74004e+19
-5.89117e+19
-5.89959e+19
-5.07468e+19
-4.35165e+19
-1.60543e+18
-1.12191e+18
2.93007e+17
6.54786e+17
7.78632e+17
7.24165e+17
2.32881e+17
-1.78707e+17
-3.23316e+17
-1.93357e+17
6.15416e+18
7.97435e+18
6.61064e+18
5.19616e+18
4.19704e+18
2.22838e+18
8.24079e+17
4.32055e+17
2.95212e+17
2.296e+17
1.73059e+17
1.10168e+17
4.82852e+16
-5.27932e+16
-2.23138e+17
-1.94099e+17
3.46673e+16
1.32374e+17
1.42702e+17
1.23271e+17
2.89094e+16
1.83557e+16
-1.86881e+15
-8.38388e+15
-1.00114e+16
-7.1351e+15
3.38811e+15
1.32727e+16
1.80059e+16
6.49114e+15
-8.40418e+16
-1.21191e+17
-1.09098e+17
-8.77326e+16
-6.74686e+16
-3.14849e+16
-1.22943e+16
-5.28025e+15
-2.91772e+15
-1.87758e+15
-1.15792e+15
-4.69565e+14
7.89892e+14
4.06238e+15
1.08648e+16
1.91024e+16
1.77919e+16
1.37577e+16
1.04102e+16
7.88551e+15
2.73747e+15
9.82868e+14
5.63478e+14
4.13299e+14
3.20762e+14
2.01609e+14
3.46203e+13
-9.90073e+13
-9.52413e+13
3.10439e+14
1.25465e+15
1.52674e+15
1.32449e+15
1.0496e+15
8.09569e+14
1.60862e+14
6.67322e+13
1.20259e+13
-3.50463e+12
-7.58049e+12
-4.74938e+12
2.07635e+12
-2.46073e+12
-3.46595e+13
-1.05248e+14
-1.87161e+14
-1.81479e+14
-1.42325e+14
-1.03402e+14
-6.77584e+13
-5.50766e+13
-2.03822e+13
-1.04329e+13
-7.06282e+12
-5.30541e+12
-3.49555e+12
-1.15289e+12
1.82587e+12
5.09343e+12
5.81981e+12
2.66231e+12
1.00661e+11
6.57027e+11
4.12427e+12
1.15359e+13
-4.3111e+10
-1.60693e+11
2.22533e+11
3.35133e+11
3.1331e+11
1.42388e+11
-1.55966e+11
-3.19468e+11
-1.16815e+09
1.1283e+12
2.48018e+12
2.86279e+12
3.40651e+12
5.51489e+12
1.07245e+13
7.98732e+11
3.16628e+11
1.2207e+11
5.73592e+10
3.07295e+10
1.51168e+10
-2.14234e+09
-4.72358e+10
-1.50301e+11
-2.96367e+11
-3.6554e+11
-1.3464e+11
5.30991e+11
2.33998e+12
6.48261e+12
-1.0255e+11
-3.91627e+10
-1.93551e+10
-1.24134e+10
-8.77478e+09
-5.2569e+09
-1.14885e+09
2.30999e+09
1.87762e+09
-9.68979e+09
-3.04429e+10
-2.9678e+10
1.04081e+11
9.33841e+11
3.39816e+12
2.22279e+09
7.28384e+08
8.60645e+08
8.23366e+08
7.16613e+08
4.80032e+08
1.48284e+08
5.71726e+07
5.40911e+08
1.14127e+09
1.72309e+09
2.96153e+08
1.96844e+09
4.33551e+10
2.1109e+11
1.09037e+09
4.33106e+08
2.14382e+08
1.36347e+08
1.00634e+08
7.59567e+07
5.24632e+07
3.51881e+07
-1.16085e+08
-1.51659e+09
-3.38044e+09
-5.39538e+09
-8.1248e+09
-1.09172e+10
-9.4302e+09
-3.47198e+07
-1.16941e+07
-1.03617e+07
-9.50615e+06
-7.91836e+06
-4.21084e+06
6.94949e+06
5.02785e+07
-2.19489e+07
-1.67789e+09
-3.84913e+09
-6.09741e+09
-8.8829e+09
-1.2697e+10
-1.78765e+10
-1.01883e+07
-4.39952e+06
-1.79455e+06
-845818
-457796
-25586.1
5.56233e+06
4.76348e+07
-3.86516e+07
-2.01939e+09
-4.52865e+09
-7.16258e+09
-1.03937e+10
-1.45715e+10
-1.99152e+10
1.37833e+06
566891
294998
190957
138668
330062
5.9722e+06
5.38722e+07
-5.30768e+07
-2.19613e+09
-4.93512e+09
-8.05657e+09
-1.19213e+10
-1.68886e+10
-2.31739e+10
-26630.7
-8112.77
-11750.6
-13165
-12138.9
217618
6.28936e+06
6.26169e+07
-5.96414e+07
-1.96765e+09
-4.55941e+09
-7.74956e+09
-1.18444e+10
-1.71512e+10
-2.39065e+10
-15571
-7049.31
-4195.08
-4110.96
-5016.23
193544
6.44943e+06
7.32322e+07
7.15198e+07
-1.33258e+09
-3.58736e+09
-6.35836e+09
-9.84721e+09
-1.43275e+10
-2.002e+10
539.924
-153.158
-739.059
-2174.92
-5344.3
150609
6.1706e+06
8.5694e+07
1.2836e+08
-6.17565e+08
-2.19564e+09
-4.13693e+09
-6.46741e+09
-9.35265e+09
-1.29373e+10
-83.3446
-440.29
-1080.24
-2708.18
-7105.13
109312
5.449e+06
9.80671e+07
1.59127e+08
-8.9072e+07
-8.04217e+08
-1.8333e+09
-3.10853e+09
-4.63281e+09
-6.46364e+09
-253.736
-586.233
-1289.86
-3118.79
-8453.35
81156.9
4.6781e+06
1.19702e+08
1.95869e+08
1.44017e+08
-7.46011e+07
-4.64095e+08
-1.00502e+09
-1.67993e+09
-2.51078e+09
-274.66
-682.965
-1528.8
-3657.5
-10050.8
61325
4.7197e+06
1.09384e+08
2.0411e+08
2.22723e+08
1.86293e+08
9.16392e+07
-6.6018e+07
-2.89763e+08
-5.88998e+08
-325.892
-821.019
-1856.62
-4397.93
-12072.8
33746.9
4.90042e+06
7.72928e+07
1.56689e+08
1.98509e+08
2.20714e+08
2.24684e+08
2.1054e+08
1.763e+08
1.15484e+08
-379.843
-970.148
-2217.07
-5219.54
-14096.4
-1856.4
5.41946e+06
4.78739e+07
8.88514e+07
1.20171e+08
1.46344e+08
1.68339e+08
1.8744e+08
2.03424e+08
2.13706e+08
-435.185
-1124.56
-2592.24
-6076.5
-16000.7
-34693.3
3.51342e+06
2.09887e+07
3.70496e+07
5.13761e+07
6.4768e+07
7.82421e+07
9.25079e+07
1.07416e+08
1.22258e+08
-497.614
-1300.71
-3025.47
-7077.51
-18094.1
-49834.9
594900
5.82971e+06
1.08701e+07
1.53767e+07
1.97515e+07
2.4461e+07
2.98243e+07
3.57957e+07
4.22092e+07
-567.159
-1501.97
-3538.11
-8316.1
-20862.9
-54026.2
36725.3
753679
1.71341e+06
2.64102e+06
3.56672e+06
4.61719e+06
5.83293e+06
7.20144e+06
8.7123e+06
-640.201
-1713.44
-4082
-9677.44
-24548.5
-63734
-131497
-152308
-108295
-36325.5
52360.1
157770
282800
428809
597780
-700.429
-1922.85
-4692.26
-11098.7
-25380.7
-51182.2
-84957.5
-114468
-135335
-150131
-161114
-170654
-179085
-185912
-190493
-581.896
-1553.37
-3488.31
-6985.15
-12647.6
-20464.4
-28675.9
-35168.3
-40173.5
-44630.3
-48818.3
-53006.6
-57208
-61282.6
-65138.9
-327.273
-830.036
-1665.82
-2838.9
-4230.21
-5669.14
-6905.39
-7759.76
-8327.88
-8816.48
-9300.54
-9778.68
-10238.2
-10663.5
-11050.5
-99.3691
-256.606
-480.396
-735.951
-974.95
-1175.75
-1323.31
-1412.54
-1459.64
-1488.2
-1510.44
-1527.4
-1536.8
-1537.46
-1529.88
-5.08353
-32.3263
-67.434
-102.732
-132.491
-155.33
-171.359
-181.25
-186.657
-189.61
-191.196
-191.505
-190.376
-187.775
-183.814
9.47344
8.38347
5.38246
2.12888
-0.874275
-3.41335
-5.44919
-7.02791
-8.25058
-9.20653
-9.94105
-10.4746
-10.822
-11.0007
-11.0198
4.20765
4.70175
4.5054
4.14165
3.70035
3.25521
2.83314
2.45003
2.12294
1.85277
1.62489
1.42633
1.25014
1.09265
0.954108
0.958818
1.0894
1.04721
0.968367
0.875097
0.782104
0.693767
0.611795
0.542152
0.486578
0.439822
0.398075
0.359911
0.324793
0.292749
0.130126
0.153733
0.148272
0.135832
0.120954
0.10629
0.0927552
0.080683
0.0707559
0.0629187
0.0562949
0.0503877
0.0450382
0.0401796
0.0357901
0.00617465
0.00972878
0.0107704
0.010588
0.00978461
0.00874441
0.00766705
0.00670033
0.00591541
0.00527069
0.0047013
0.0041805
0.00370254
0.0032664
0.00287083
-0.00116068
-0.000876839
-0.000520708
-0.000272856
-0.000114247
-1.76047e-05
3.94476e-05
7.29025e-05
9.24893e-05
0.000102715
0.000106153
0.000104899
0.000100507
9.41758e-05
8.65293e-05
-0.000277684
-0.00025125
-0.00020427
-0.000162616
-0.000128507
-0.000101782
-8.10899e-05
-6.55514e-05
-5.39803e-05
-4.49477e-05
-3.75458e-05
-3.13417e-05
-2.61111e-05
-2.17052e-05
-1.80492e-05
-5.41333e-05
-3.73502e-05
-2.57004e-05
-1.89499e-05
-1.45563e-05
-1.14691e-05
-9.2429e-06
-7.65633e-06
-6.48386e-06
-5.5492e-06
-4.76083e-06
-4.07869e-06
-3.48398e-06
-2.96591e-06
-2.52182e-06
-1.1873e-05
-8.02409e-06
-4.79231e-06
-3.01085e-06
-1.98309e-06
-1.36527e-06
-9.80585e-07
-7.35806e-07
-5.72947e-07
-4.56796e-07
-3.69124e-07
-3.00711e-07
-2.46285e-07
-2.02486e-07
-1.67437e-07
-1.08132e-06
-1.01881e-06
-7.17291e-07
-4.94196e-07
-3.42154e-07
-2.42127e-07
-1.76857e-07
-1.33747e-07
-1.03442e-07
-8.08311e-08
-6.34559e-08
-4.99602e-08
-3.94237e-08
-3.11852e-08
-2.4741e-08
1.63926e-07
5.77176e-08
9.81834e-09
-5.88759e-09
-9.93847e-09
-1.01987e-08
-9.42047e-09
-8.38153e-09
-7.24928e-09
-6.13557e-09
-5.11965e-09
-4.23193e-09
-3.47476e-09
-2.84081e-09
-2.30934e-09
4.9636e-08
3.21695e-08
1.79394e-08
1.04995e-08
6.41597e-09
4.10881e-09
2.76636e-09
1.94079e-09
1.39605e-09
1.01777e-09
7.48051e-10
5.53132e-10
4.11062e-10
3.06979e-10
2.31264e-10
2.73534e-09
2.601e-09
1.80988e-09
1.24356e-09
8.65444e-10
6.22007e-10
4.64079e-10
3.55552e-10
2.75283e-10
2.1371e-10
1.66074e-10
1.29158e-10
1.00535e-10
7.83771e-11
6.12118e-11
-4.98711e-10
-2.43981e-10
-1.02981e-10
-4.36889e-11
-1.75916e-11
-5.53158e-12
1.52048e-13
2.69907e-12
3.64835e-12
3.80862e-12
3.59553e-12
3.21888e-12
2.78902e-12
2.36692e-12
1.96709e-12
-9.50855e-11
-6.18392e-11
-3.53779e-11
-2.12226e-11
-1.34311e-11
-8.98122e-12
-6.29451e-12
-4.55098e-12
-3.35102e-12
-2.49133e-12
-1.86139e-12
-1.3953e-12
-1.04862e-12
-7.90342e-13
-5.99091e-13
-1.01496e-11
-6.1668e-12
-3.43216e-12
-2.05352e-12
-1.32049e-12
-9.05271e-13
-6.51969e-13
-4.85156e-13
-3.67054e-13
-2.79443e-13
-2.13182e-13
-1.62672e-13
-1.24022e-13
-9.45586e-14
-7.23023e-14
-1.76787e-12
-8.04807e-13
-3.4265e-13
-1.67074e-13
-9.28499e-14
-5.70978e-14
-3.78285e-14
-2.64415e-14
-1.90669e-14
-1.39622e-14
-1.03066e-14
-7.64471e-15
-5.68799e-15
-4.24856e-15
-3.19228e-15
-2.27201e-13
-7.48637e-14
-2.93137e-14
-1.46595e-14
-8.59978e-15
-5.30245e-15
-3.38423e-15
-2.20311e-15
-1.43322e-15
-9.22922e-16
-5.87955e-16
-3.71192e-16
-2.32471e-16
-1.45227e-16
-8.87384e-17
5.09043e-14
2.19881e-14
9.27063e-15
3.76657e-15
1.69577e-15
8.43904e-16
4.51269e-16
2.60883e-16
1.63299e-16
1.09094e-16
7.63717e-17
5.52877e-17
4.10022e-17
3.0838e-17
2.39647e-17
2.9293e-14
8.8231e-15
3.30384e-15
1.52184e-15
8.44591e-16
5.11617e-16
3.28691e-16
2.20184e-16
1.50981e-16
1.04677e-16
7.3017e-17
5.12163e-17
3.61568e-17
2.57322e-17
1.858e-17
2.21996e-15
8.62012e-16
2.68783e-16
1.54608e-16
9.8323e-17
6.48167e-17
4.46621e-17
3.16577e-17
2.27099e-17
1.63473e-17
1.17817e-17
8.5049e-18
6.15745e-18
4.4871e-18
3.30493e-18
-1.57387e-15
-3.16499e-16
-6.90396e-17
-1.29144e-17
-2.12109e-18
1.54554e-19
5.11412e-19
4.29678e-19
2.98816e-19
2.04383e-19
1.45623e-19
1.07781e-19
8.17537e-20
6.3587e-20
4.88633e-20
-2.80714e-16
-9.91658e-17
-2.62629e-17
-9.6332e-18
-4.10511e-18
-1.89672e-18
-9.51332e-19
-5.14835e-19
-2.96887e-19
-1.80524e-19
-1.15204e-19
-7.6779e-20
-5.30051e-20
-3.77446e-20
-2.78605e-20
6.84717e-17
1.07963e-17
7.23472e-19
-9.81429e-19
-9.001e-19
-6.24508e-19
-4.03917e-19
-2.54497e-19
-1.58666e-19
-9.89521e-20
-6.22076e-20
-3.95489e-20
-2.54436e-20
-1.66012e-20
-1.09406e-20
1.97493e-17
7.20871e-18
2.10081e-18
7.13378e-19
2.58095e-19
9.18093e-20
2.85965e-20
4.57272e-21
-3.88488e-21
-6.10148e-21
-5.92612e-21
-4.98004e-21
-3.93015e-21
-3.00829e-21
-2.24489e-21
-1.23273e-18
5.22225e-20
1.50355e-19
1.22329e-19
8.16268e-20
5.19997e-20
3.28239e-20
2.06829e-20
1.30156e-20
8.19892e-21
5.1859e-21
3.29843e-21
2.1103e-21
1.36071e-21
8.82498e-22
-7.61202e-19
-2.91375e-19
-9.52252e-20
-3.41878e-20
-1.28622e-20
-4.78269e-21
-1.58156e-21
-3.02732e-22
1.79302e-22
3.25769e-22
3.35419e-22
2.95568e-22
2.43674e-22
1.94116e-22
1.49871e-22
-3.9743e-20
-2.67013e-20
-1.32924e-20
-7.21501e-21
-4.14396e-21
-2.49369e-21
-1.55708e-21
-9.95839e-22
-6.4494e-22
-4.20986e-22
-2.7682e-22
-1.83289e-22
-1.22165e-22
-8.20172e-23
-5.54584e-23
7.54506e-21
2.91901e-21
9.708e-22
3.37436e-22
1.13673e-22
2.99114e-23
-1.78161e-24
-1.27915e-23
-1.52805e-23
-1.43984e-23
-1.23874e-23
-1.01896e-23
-8.18074e-24
-6.47151e-24
-5.0361e-24
7.31903e-22
3.85993e-22
1.80081e-22
9.42871e-23
5.38419e-23
3.28752e-23
2.10955e-23
1.39809e-23
9.44415e-24
6.46326e-24
4.46528e-24
3.10552e-24
2.17402e-24
1.53322e-24
1.08901e-24
8.29235e-24
4.82009e-24
2.48173e-24
1.4171e-24
8.73923e-25
5.72315e-25
3.9171e-25
2.75737e-25
1.97352e-25
1.42916e-25
1.04411e-25
7.67284e-26
5.66608e-26
4.2046e-26
3.13102e-26
8.16806e-27
4.19681e-27
1.85478e-27
9.04072e-28
4.87441e-28
2.86318e-28
1.79073e-28
1.16746e-28
7.81758e-29
5.33828e-29
3.69954e-29
2.58965e-29
1.82735e-29
1.29921e-29
9.30116e-30
9.01464e-28
3.11082e-28
1.17107e-28
4.99673e-29
2.52075e-29
1.44187e-29
8.97802e-30
5.8921e-30
3.99116e-30
2.76205e-30
1.94128e-30
1.3788e-30
9.86697e-31
7.098e-31
5.12757e-31
1.94777e-28
6.02803e-29
1.77141e-29
6.3999e-30
2.75927e-30
1.35182e-30
7.27398e-31
4.17754e-31
2.50831e-31
1.5558e-31
9.9043e-32
6.44001e-32
4.2627e-32
2.87126e-32
1.97607e-32
8.79938e-30
4.51065e-30
1.64015e-30
7.72286e-31
4.10932e-31
2.36925e-31
1.43455e-31
8.95079e-32
5.7058e-32
3.70353e-32
2.44087e-32
1.62868e-32
1.0967e-32
7.42662e-33
5.02263e-33
-2.63528e-30
-8.38174e-31
-2.53698e-31
-8.80567e-32
-3.37824e-32
-1.41182e-32
-6.36658e-33
-3.03504e-33
-1.4921e-33
-7.37776e-34
-3.58055e-34
-1.65497e-34
-7.04265e-35
-2.70158e-35
-1.35418e-35
-2.82258e-31
-1.42114e-31
-5.40191e-32
-2.27135e-32
-1.07435e-32
-5.70748e-33
-3.29249e-33
-2.00462e-33
-1.26614e-33
-8.21336e-34
-5.43606e-34
-3.65298e-34
-2.48048e-34
-1.69256e-34
-1.15813e-34
-3.91824e-32
-1.36831e-32
-4.6026e-33
-1.60361e-33
-6.91805e-34
-3.60022e-34
-2.09717e-34
-1.30635e-34
-8.48843e-35
-5.67505e-35
-3.87024e-35
-2.67482e-35
-1.86183e-35
-1.29688e-35
-9.02355e-36
-1.42554e-32
-3.24978e-33
-7.38515e-34
-2.08916e-34
-7.98169e-35
-3.66777e-35
-1.87827e-35
-1.03239e-35
-5.96055e-36
-3.57291e-36
-2.20947e-36
-1.40353e-36
-9.12807e-37
-6.06409e-37
-4.10663e-37
-1.12574e-33
-2.4729e-34
-4.86235e-35
-2.06735e-35
-1.12848e-35
-6.40812e-36
-3.7399e-36
-2.24396e-36
-1.38209e-36
-8.70866e-37
-5.58246e-37
-3.61798e-37
-2.3559e-37
-1.53251e-37
-9.84022e-38