/*--------------------------------*- C++ -*----------------------------------*\
  =========                 |
  \\      /  F ield         | OpenFOAM: The Open Source CFD Toolbox
   \\    /   O peration     | Website:  https://openfoam.org
    \\  /    A nd           | Version:  7
     \\/     M anipulation  |
\*---------------------------------------------------------------------------*/
FoamFile
{
    version     2.0;
    format      ascii;
    class       volScalarField;
    location    "3.6";
    object      T;
}
// * * * * * * * * * * * * * * * * * * * * * * * * * * * * * * * * * * * * * //

dimensions      [0 0 0 1 0 0 0];

internalField   nonuniform List<scalar> 
32100
(
1.48587e+103
-1.87554e+102
-6.10155e+100
2.42954e+100
-1.57538e+99
-1.46511e+98
3.16217e+97
3.15814e+95
-4.73105e+95
4.07502e+94
1.32761e+93
-1.15993e+92
6.12913e+89
2.5523e+89
1.27744e+89
-1.98678e+102
-7.32085e+100
2.58938e+100
-1.61446e+99
-1.55209e+98
3.24379e+97
3.65449e+95
-4.85425e+95
4.27623e+94
3.01444e+93
2.15009e+92
-1.42166e+92
9.83421e+89
1.3414e+89
6.89573e+88
-9.17162e+100
2.82551e+100
-1.68181e+99
-1.67086e+98
3.36665e+97
4.21997e+95
-5.0471e+95
4.32334e+94
2.13025e+93
-7.52116e+92
-8.91687e+91
-8.86537e+91
5.41831e+89
2.9556e+89
5.8675e+88
3.14624e+100
-1.78118e+99
-2.00271e+98
3.44409e+97
7.3116e+95
-5.28564e+95
4.05691e+94
2.68577e+93
-6.98296e+92
-8.06755e+91
-7.1159e+91
-4.33554e+91
6.86556e+89
5.17316e+89
4.29483e+88
-1.62671e+99
-2.52987e+98
1.89881e+97
2.48586e+95
-3.26865e+95
3.83688e+94
-7.73936e+92
-2.81568e+92
4.59853e+91
-2.37733e+91
-2.94802e+91
-1.60221e+91
1.17932e+90
5.88347e+89
2.17762e+88
-1.07715e+98
-3.47691e+96
-1.63325e+97
-1.05511e+96
2.56992e+95
-1.38459e+93
-3.95774e+93
3.81722e+92
7.01203e+91
-1.22646e+91
-5.36974e+90
-3.54561e+90
1.33136e+90
4.77927e+89
3.31746e+87
1.62628e+98
-3.6999e+97
-1.72906e+97
-5.49854e+95
2.06667e+95
-2.2076e+93
-3.28188e+93
3.34662e+92
6.46874e+91
-5.39422e+90
-4.66089e+88
4.77315e+89
1.01633e+90
2.87371e+89
-7.64475e+87
1.1157e+98
-3.43667e+97
-1.60995e+97
-7.09011e+95
1.93752e+95
1.03732e+93
-3.2743e+93
2.66059e+92
6.80565e+91
-4.20897e+90
4.07544e+89
8.66738e+89
5.38774e+89
1.24759e+89
-1.07822e+88
9.86347e+97
-2.93853e+97
-1.55452e+97
-8.26316e+95
1.83143e+95
3.54149e+93
-3.24086e+93
2.09013e+92
6.90202e+91
-3.81663e+90
-1.89828e+89
4.01734e+89
1.92016e+89
3.35005e+88
-8.79151e+87
8.94805e+97
-2.53305e+97
-1.48974e+97
-9.35896e+95
1.70044e+95
5.94135e+93
-3.15022e+93
1.5085e+92
6.91703e+91
-3.02712e+90
-5.17455e+89
1.53173e+89
3.87565e+88
2.68018e+85
-5.16765e+87
8.04083e+97
-2.15032e+97
-1.4236e+97
-1.04252e+96
1.55466e+95
8.20708e+93
-3.0183e+93
9.40907e+91
6.83145e+91
-2.0242e+90
-6.018e+89
8.70553e+88
-1.86101e+86
-5.35331e+87
-2.21962e+87
7.21251e+97
-1.82199e+97
-1.3532e+97
-1.13942e+96
1.39781e+95
1.02667e+94
-2.84931e+93
4.03757e+91
6.63197e+91
-1.03567e+90
-5.9452e+89
6.62548e+88
-1.74827e+86
-3.15671e+87
-6.2435e+86
6.32614e+97
-1.63796e+97
-1.24711e+97
-1.20176e+96
1.23578e+95
1.20433e+94
-2.65238e+93
-8.53467e+90
6.32308e+91
-1.6589e+89
-5.62095e+89
5.05602e+88
2.27789e+87
-1.30912e+87
-9.41707e+85
4.62628e+97
-1.37448e+97
-9.90326e+96
-1.08966e+96
9.7602e+94
1.31909e+94
-2.39744e+93
-4.89119e+91
5.89646e+91
5.76795e+89
-5.48256e+89
3.95212e+88
2.62118e+87
-7.30549e+86
-4.22531e+84
2.40513e+97
-9.48535e+96
-7.68367e+96
-9.30092e+95
7.01273e+94
1.23321e+94
-1.94553e+93
-7.97413e+91
5.34629e+91
1.29229e+90
-5.64718e+89
3.59629e+88
3.41919e+87
-6.7497e+86
8.93478e+84
2.02064e+97
-5.76124e+96
-6.43998e+96
-8.56361e+95
5.16272e+94
1.15721e+94
-1.55804e+93
-1.10691e+92
4.88358e+91
2.09352e+90
-5.83011e+89
3.09466e+88
5.12229e+87
-7.98785e+86
2.80272e+84
2.06335e+97
-3.85758e+96
-5.72445e+96
-8.37757e+95
3.94579e+94
1.18804e+94
-1.31534e+93
-1.42313e+92
4.52241e+91
2.90049e+90
-5.78621e+89
2.04341e+88
6.55998e+87
-8.77517e+86
-1.42079e+85
1.81276e+97
-2.85955e+96
-5.31963e+96
-8.49124e+95
2.88977e+94
1.23026e+94
-1.09004e+93
-1.71634e+92
4.13581e+91
3.69744e+90
-5.53304e+89
7.62584e+87
7.5139e+87
-8.47372e+86
-3.66842e+85
1.57577e+97
-2.12594e+96
-4.94018e+96
-8.61979e+95
1.76515e+94
1.2679e+94
-8.4596e+92
-1.9929e+92
3.68918e+91
4.46717e+90
-5.08975e+89
-5.92907e+87
8.06721e+87
-7.30879e+86
-5.96208e+85
1.35586e+97
-1.49019e+96
-4.54469e+96
-8.69532e+95
5.52014e+93
1.29242e+94
-5.7457e+92
-2.23532e+92
3.16912e+91
5.18061e+90
-4.46865e+89
-1.95646e+88
8.5326e+87
-5.76128e+86
-8.22745e+85
1.14155e+97
-9.5412e+95
-4.1308e+96
-8.71304e+95
-7.32815e+93
1.2976e+94
-2.75921e+92
-2.42969e+92
2.5749e+91
5.83388e+90
-3.66386e+89
-3.28545e+88
8.62292e+87
-3.85182e+86
-1.0206e+86
9.39951e+96
-5.03809e+95
-3.71544e+96
-8.69343e+95
-2.07612e+94
1.27932e+94
4.68722e+91
-2.56878e+92
1.91161e+91
6.43153e+90
-2.68437e+89
-4.49324e+88
8.13921e+87
-1.71999e+86
-1.13898e+86
7.60591e+96
-1.30201e+95
-3.31366e+96
-8.6289e+95
-3.46953e+94
1.2329e+94
3.88382e+92
-2.64308e+92
1.17798e+91
6.97769e+90
-1.53568e+89
-5.59356e+88
7.47398e+87
3.50998e+85
-1.18201e+86
6.0535e+96
1.74637e+95
-2.92689e+96
-8.50602e+95
-4.89987e+94
1.14901e+94
7.4211e+92
-2.64121e+92
3.67723e+90
7.45052e+90
-1.8936e+88
-6.61892e+88
6.71344e+87
2.33398e+86
-1.18055e+86
4.7395e+96
4.14864e+95
-2.56253e+96
-8.33528e+95
-6.35691e+94
1.02419e+94
1.10061e+93
-2.54448e+92
-5.25537e+90
7.78986e+90
1.40563e+89
-7.57648e+88
5.76846e+87
4.30882e+86
-1.16171e+86
3.64334e+96
5.89567e+95
-2.21737e+96
-8.10943e+95
-7.82605e+94
8.56994e+93
1.45281e+93
-2.3298e+92
-1.50258e+91
7.94777e+90
3.29467e+89
-8.49189e+88
4.5398e+87
6.41985e+86
-1.14429e+86
2.7604e+96
7.17329e+95
-1.89088e+96
-7.83203e+95
-9.29868e+94
6.43809e+93
1.78631e+93
-1.97661e+92
-2.55044e+91
7.8581e+90
5.5157e+89
-9.19284e+88
2.81148e+87
8.68067e+86
-1.10342e+86
2.0325e+96
8.17033e+95
-1.59096e+96
-7.52737e+95
-1.07615e+95
3.80198e+93
2.08466e+93
-1.46241e+92
-3.63032e+91
7.48517e+90
8.07228e+89
-9.37084e+88
4.45663e+86
1.07505e+87
-9.93555e+85
1.39883e+96
8.75559e+95
-1.32312e+96
-7.20247e+95
-1.2191e+95
6.1979e+92
2.32919e+93
-7.65887e+91
-4.69822e+91
6.67826e+90
1.09255e+90
-8.94427e+88
-2.49823e+87
1.25681e+87
-8.19862e+85
8.4991e+95
8.6689e+95
-1.08639e+96
-6.83349e+95
-1.35373e+95
-3.15165e+93
2.49304e+93
1.36015e+91
-5.70258e+91
5.30624e+90
1.40021e+90
-7.73633e+88
-6.06085e+87
1.41202e+87
-5.84891e+85
4.15284e+95
7.92533e+95
-8.73409e+95
-6.39034e+95
-1.47617e+95
-7.54721e+93
2.54015e+93
1.26799e+92
-6.5505e+91
3.25738e+90
1.72628e+90
-5.36744e+88
-9.94786e+87
1.48442e+87
-2.88985e+85
1.23697e+95
7.0269e+95
-6.73207e+95
-5.88672e+95
-1.58294e+95
-1.25891e+94
2.42164e+93
2.64254e+92
-7.0868e+91
3.68545e+89
2.06252e+90
-1.63632e+88
-1.37652e+88
1.46838e+87
3.64647e+84
-5.76739e+94
6.46118e+95
-4.90834e+95
-5.33913e+95
-1.66674e+95
-1.82832e+94
2.07268e+93
4.23531e+92
-7.06304e+91
-3.52562e+90
2.38981e+90
3.81227e+88
-1.82896e+88
1.41703e+87
4.23806e+85
-2.07148e+95
6.08609e+95
-3.3482e+95
-4.75946e+95
-1.72766e+95
-2.46383e+94
1.42226e+93
5.95373e+92
-6.15396e+91
-8.51698e+90
2.64838e+90
1.24807e+89
-2.43565e+88
1.27531e+87
1.0071e+86
-3.38078e+95
5.39664e+95
-2.09244e+95
-4.16286e+95
-1.76872e+95
-3.16487e+94
3.96132e+92
7.6084e+92
-3.99721e+91
-1.45264e+91
2.72134e+90
2.58016e+89
-3.08256e+88
8.29862e+86
1.95657e+86
-4.26592e+95
4.40147e+95
-1.07351e+95
-3.55715e+95
-1.78727e+95
-3.91855e+94
-1.06411e+93
8.92887e+92
-2.49299e+90
-2.10648e+91
2.41533e+90
4.56408e+89
-3.52835e+88
-2.82279e+86
3.45013e+86
-4.78479e+95
3.47804e+95
-2.20301e+94
-2.95988e+95
-1.78005e+95
-4.69148e+94
-2.97567e+93
9.62222e+92
5.30135e+91
-2.70011e+91
1.47354e+90
7.34721e+89
-3.18391e+88
-2.64775e+87
5.53693e+86
-5.06155e+95
2.6588e+95
4.6607e+94
-2.37906e+95
-1.74145e+95
-5.43095e+94
-5.35033e+93
9.3219e+92
1.2621e+92
-3.06041e+91
-3.45849e+89
1.03701e+90
-1.01845e+88
-6.66506e+87
7.66661e+86
-5.12284e+95
1.85306e+95
9.67248e+94
-1.80717e+95
-1.65797e+95
-6.03824e+94
-8.15899e+93
7.58477e+92
2.1184e+92
-2.94207e+91
-3.07689e+90
1.28259e+90
4.03508e+88
-1.21751e+88
8.3604e+86
-4.98544e+95
1.04297e+95
1.27355e+95
-1.26172e+95
-1.50844e+95
-6.45052e+94
-1.12686e+94
3.97765e+92
2.98042e+92
-2.09676e+91
-6.47296e+90
1.36788e+90
1.35113e+89
-1.8368e+88
4.70966e+86
-4.62868e+95
2.44114e+94
1.36165e+95
-7.71285e+94
-1.30486e+95
-6.64675e+94
-1.44322e+94
-1.76748e+92
3.69545e+92
-4.1511e+90
-1.00133e+91
1.17758e+90
2.89347e+89
-2.19996e+88
-8.4589e+86
-4.05494e+95
-4.28274e+94
1.2512e+95
-3.59906e+94
-1.0817e+95
-6.63205e+94
-1.73939e+94
-9.4415e+92
4.16333e+92
2.04703e+91
-1.28624e+91
5.96557e+89
4.35865e+89
-1.66091e+88
-3.10612e+87
-3.37459e+95
-8.57889e+94
1.01857e+95
-3.97728e+93
-8.60814e+94
-6.4271e+94
-1.99161e+94
-1.8355e+93
4.31266e+92
5.09638e+91
-1.38621e+91
-2.85603e+89
5.3028e+89
-3.7408e+86
-5.69405e+87
-2.72671e+95
-1.05398e+95
7.72229e+94
1.89279e+94
-6.5325e+94
-6.0664e+94
-2.1923e+94
-2.7968e+93
3.73181e+92
8.31481e+91
-1.31375e+91
-1.23439e+90
5.84352e+89
2.33179e+88
-8.21928e+87
-2.17728e+95
-1.1103e+95
5.59458e+94
3.35166e+94
-4.6548e+94
-5.60111e+94
-2.34221e+94
-3.7313e+93
2.62121e+92
1.06838e+92
-1.12016e+91
-2.04742e+90
5.4563e+89
5.50405e+88
-1.34524e+88
-1.73864e+95
-1.10835e+95
3.69699e+94
4.16355e+94
-3.01052e+94
-5.08147e+94
-2.45672e+94
-4.62217e+93
1.28983e+92
1.21608e+92
-7.42043e+90
-2.42801e+90
4.00667e+89
5.91307e+88
-7.33654e+87
-1.38859e+95
-1.08234e+95
1.97181e+94
4.52271e+94
-1.6121e+94
-4.54621e+94
-2.55546e+94
-5.57642e+93
-1.85232e+91
1.33058e+92
-3.68479e+90
-2.55369e+90
2.76513e+89
4.59902e+88
-3.25685e+87
-1.10294e+95
-1.03627e+95
3.17229e+93
4.47845e+94
-4.54093e+93
-3.98802e+94
-2.63075e+94
-6.58071e+93
-1.81768e+92
1.42957e+92
-5.28971e+89
-2.7203e+90
2.08862e+89
4.22192e+88
-1.95008e+87
-8.63669e+94
-9.68965e+94
-1.19168e+94
4.09005e+94
4.83442e+93
-3.37912e+94
-2.65001e+94
-7.57039e+93
-3.7223e+92
1.52893e+92
2.59525e+90
-2.91817e+90
1.69372e+89
4.39015e+88
-1.61602e+87
-6.65103e+94
-8.79931e+94
-2.39298e+94
3.51263e+94
1.23632e+94
-2.73068e+94
-2.60483e+94
-8.49498e+93
-5.91675e+92
1.60369e+92
5.97199e+90
-3.11275e+90
1.38008e+89
4.79445e+88
-1.57841e+87
-5.03096e+94
-7.80715e+94
-3.32373e+94
2.77598e+94
1.81349e+94
-2.08471e+94
-2.53249e+94
-9.39232e+93
-8.47797e+92
1.63638e+92
9.59447e+90
-3.24523e+90
1.04627e+89
5.02614e+88
-1.50099e+87
-3.71788e+94
-6.77933e+94
-4.08116e+94
1.86387e+94
2.20918e+94
-1.44767e+94
-2.44143e+94
-1.03479e+94
-1.15091e+93
1.61378e+92
1.32641e+91
-3.23031e+90
6.62245e+88
4.72985e+88
-1.25705e+87
-2.68903e+94
-5.70093e+94
-4.54646e+94
9.17237e+93
2.44224e+94
-8.09118e+93
-2.30539e+94
-1.13375e+94
-1.50543e+93
1.53276e+92
1.66033e+91
-3.0552e+90
2.85654e+88
3.94158e+88
-1.20304e+87
-1.90766e+94
-4.64703e+94
-4.66169e+94
1.62575e+92
2.52385e+94
-1.78709e+93
-2.11441e+94
-1.22894e+94
-1.91184e+93
1.38426e+92
1.92729e+91
-2.74697e+90
-1.91584e+87
2.87884e+88
-1.87284e+87
-1.31409e+94
-3.70383e+94
-4.56222e+94
-8.61601e+93
2.38367e+94
4.23218e+93
-1.85868e+94
-1.31365e+94
-2.36927e+93
1.16701e+92
2.07396e+91
-2.31353e+90
-2.30111e+88
1.73742e+88
-3.16327e+87
-8.65171e+93
-2.86362e+94
-4.31162e+94
-1.71947e+94
2.0008e+94
9.72152e+93
-1.53201e+94
-1.38001e+94
-2.87394e+93
8.97291e+91
2.02602e+91
-1.73508e+90
-3.65839e+88
5.91614e+87
-3.41854e+87
-5.31988e+93
-2.11082e+94
-3.90643e+94
-2.47319e+94
1.42072e+94
1.42763e+94
-1.13896e+94
-1.43012e+94
-3.41744e+93
5.78166e+91
1.70437e+91
-9.95949e+89
-4.38605e+88
-2.17258e+87
-3.00484e+87
-2.9892e+93
-1.46181e+94
-3.36592e+94
-3.04002e+94
6.69983e+93
1.73839e+94
-6.75567e+93
-1.45622e+94
-3.9923e+93
2.45752e+91
1.20939e+91
-2.90042e+89
-6.91831e+88
-7.4892e+87
-3.19856e+87
-1.49924e+93
-9.30901e+93
-2.73065e+94
-3.37738e+94
-1.91501e+93
1.86344e+94
-1.40223e+93
-1.43536e+94
-4.61974e+93
-1.52152e+91
8.09124e+90
8.77912e+88
-1.06474e+89
-2.00997e+88
-5.66864e+87
-6.31349e+92
-5.26716e+93
-2.05144e+94
-3.45616e+94
-1.07987e+94
1.76376e+94
4.49478e+93
-1.33913e+94
-5.38918e+93
-8.98912e+91
8.04072e+90
9.49213e+88
-1.30666e+89
-5.71114e+88
-2.26826e+88
-1.77057e+92
-2.41861e+93
-1.37906e+94
-3.28138e+94
-1.93468e+94
1.39198e+94
1.05929e+94
-1.12754e+94
-6.12377e+93
-2.77623e+92
2.79798e+91
-6.05943e+89
-7.10074e+88
-1.09508e+89
-6.12964e+88
2.71554e+90
-6.5403e+92
-7.64415e+93
-2.86145e+94
-2.70265e+94
6.95395e+93
1.61922e+94
-7.71332e+93
-6.14945e+93
-6.19066e+92
5.63437e+91
7.45396e+90
7.28517e+90
4.50034e+90
1.4669e+90
2.20287e+91
1.04352e+92
-2.66795e+93
-2.20055e+94
-3.29187e+94
-3.47123e+93
1.99699e+94
-3.12603e+93
-6.29849e+93
-1.46309e+93
-7.7961e+91
-6.81356e+91
-7.28703e+91
-4.97633e+91
-1.61382e+91
3.07401e+91
1.31913e+92
2.83174e+92
-1.32548e+94
-3.5386e+94
-1.64681e+94
2.05272e+94
2.32924e+93
-6.06156e+93
-2.28895e+93
-9.76075e+92
-6.94536e+92
-8.36863e+92
-1.08191e+93
-7.01161e+92
1.17855e+92
1.94972e+92
4.20081e+92
-4.42232e+93
-3.21888e+94
-2.98127e+94
1.69888e+94
7.90552e+93
-4.47323e+93
-2.03662e+93
-1.88095e+93
-1.75165e+93
-2.37202e+93
-2.18572e+93
-1.17549e+93
5.00742e+92
1.71041e+92
3.84654e+92
-2.07071e+93
-2.30124e+94
-3.96592e+94
9.70839e+93
1.18547e+94
-1.87351e+93
-7.37864e+92
-4.81601e+92
-1.05498e+93
-1.3955e+93
-1.10174e+93
-1.10826e+93
3.21788e+93
8.4967e+92
8.45936e+92
-4.54865e+93
-2.07137e+94
-3.72757e+94
1.9406e+93
1.30969e+94
5.52445e+92
1.26705e+92
-1.58407e+92
-1.5851e+92
-2.23726e+92
-3.94176e+92
-9.83756e+92
-1.62456e+95
-6.20049e+94
-2.87595e+94
-1.64801e+94
-2.88718e+94
-3.21759e+94
7.63795e+93
1.23322e+94
3.02896e+93
-5.53751e+92
-6.26149e+92
-4.80041e+92
-3.53013e+92
-3.1198e+92
-7.96685e+92
-3.78349e+95
-1.08506e+95
-1.46581e+95
-1.28832e+95
-9.15915e+94
-5.05281e+93
4.84226e+94
2.56811e+94
4.71388e+93
-2.27497e+92
-7.48768e+92
-6.05583e+92
-4.14926e+92
-2.94446e+92
-6.79351e+92
3.94892e+97
1.00489e+97
3.35741e+96
1.43759e+96
7.16439e+95
3.99992e+95
1.8092e+95
5.25777e+94
9.01548e+93
-1.01106e+93
-1.78608e+93
-1.20637e+93
-7.0829e+92
-4.16227e+92
-6.02116e+92
-3.74643e+98
-5.45607e+97
3.28647e+96
6.33922e+96
4.32482e+96
2.59805e+96
1.09365e+96
2.91281e+95
6.40039e+94
1.15025e+94
1.17145e+93
-3.01835e+92
-2.79569e+92
-1.76301e+92
-1.00781e+92
-1.66667e+99
-4.86529e+98
-1.98697e+98
-5.95434e+97
-1.45256e+97
-9.76587e+95
9.22982e+95
3.93358e+95
1.02964e+95
1.99508e+94
5.60172e+92
-2.72884e+93
-2.36247e+93
-1.3951e+93
-1.2637e+93
4.613e+100
2.0904e+99
-5.41059e+98
-2.3362e+98
-7.35343e+97
-1.03784e+97
1.28287e+95
2.2172e+95
4.63736e+92
-5.22056e+94
-5.14618e+94
-3.91246e+94
-2.57946e+94
-1.49152e+94
-1.35866e+94
8.79687e+100
4.95104e+100
5.17631e+99
-3.35391e+98
-3.20819e+97
-1.26968e+97
5.22484e+95
1.56837e+96
1.26886e+96
1.07566e+96
8.74323e+95
6.42139e+95
3.99762e+95
1.97298e+95
9.13493e+94
-4.60813e+102
6.57614e+100
5.92207e+100
-1.09494e+99
-5.14158e+98
1.03758e+98
1.59014e+97
1.46274e+97
1.13072e+97
8.03061e+96
5.60734e+96
3.80572e+96
2.39381e+96
1.29189e+96
5.37505e+95
3.48856e+103
-4.42095e+102
1.56327e+101
4.90249e+100
-3.47223e+99
-3.71488e+98
9.26328e+97
-1.45586e+97
-2.04827e+97
-2.24089e+97
-2.09403e+97
-1.62592e+97
-9.93902e+96
-4.21413e+96
-1.23011e+96
1.72142e+104
2.99099e+103
-4.01802e+102
1.54881e+101
4.44285e+100
-3.13046e+99
-2.39765e+97
5.31984e+98
4.80365e+98
4.68111e+98
4.07904e+98
3.10583e+98
1.96507e+98
9.61647e+97
3.4413e+97
-3.39421e+105
1.74305e+104
2.67111e+103
-3.79635e+102
1.6525e+101
5.40387e+100
5.6384e+99
6.87088e+99
5.7948e+99
4.30151e+99
3.12402e+99
2.17402e+99
1.38312e+99
7.58675e+98
2.97933e+98
-7.20766e+105
-3.05959e+105
1.72576e+104
2.47769e+103
-3.65952e+102
1.09916e+101
-1.75204e+100
-7.37675e+100
-7.42475e+100
-7.04529e+100
-6.2045e+100
-4.93227e+100
-3.37132e+100
-1.84282e+100
-7.59365e+99
2.55867e+107
-8.21449e+105
-2.81138e+105
1.68146e+104
2.17856e+103
-4.95439e+102
-1.03589e+102
-9.28695e+101
-7.85917e+101
-6.03904e+101
-4.46594e+101
-3.23277e+101
-2.20302e+101
-1.36849e+101
-6.80736e+100
-7.39996e+108
7.08352e+107
-2.02732e+106
-8.28262e+105
4.24285e+104
6.13829e+103
-1.77239e+103
-3.43599e+102
-1.43606e+102
-1.83423e+101
7.10583e+101
1.05002e+102
9.56093e+101
7.779e+101
5.5932e+101
-1.82523e+107
-6.95202e+108
6.76629e+107
-1.58011e+106
-8.40909e+105
4.00681e+104
1.1176e+104
1.64122e+103
2.40617e+103
1.94427e+103
1.2449e+103
7.88883e+102
5.43085e+102
3.63936e+102
2.05277e+102
4.72938e+110
-3.90093e+108
-6.30965e+108
6.44304e+107
-1.11832e+106
-8.64023e+105
3.51584e+104
1.77329e+104
5.14705e+103
4.46719e+103
3.22348e+103
2.11076e+103
1.2065e+103
6.8764e+102
4.18751e+102
1.74024e+111
4.36531e+110
-6.69149e+108
-6.4491e+108
3.7974e+107
4.41545e+106
-1.58039e+106
-2.77383e+105
-5.13403e+104
-3.62189e+104
-1.79524e+104
-7.00803e+103
-2.00295e+103
-1.73803e+102
1.35496e+102
-5.03507e+112
1.84348e+111
4.12779e+110
-6.35141e+108
-5.16637e+108
4.75534e+107
-2.2044e+106
-9.94621e+105
-2.28546e+105
-1.2274e+105
-6.74403e+104
-3.64403e+104
-1.80338e+104
-6.96064e+103
-2.20214e+103
1.78606e+111
4.52948e+110
-8.31659e+108
-6.54626e+108
5.16702e+107
-5.77645e+106
-2.87304e+106
-9.52533e+105
-4.48822e+105
-2.14515e+105
-9.92109e+104
-4.93572e+104
-2.93165e+104
-1.53648e+104
-6.02904e+103
4.83787e+110
8.75203e+107
-7.69909e+108
-1.61129e+107
-1.26054e+107
-6.29853e+106
-2.75246e+106
-1.27762e+106
-6.1795e+105
-3.01255e+105
-1.38822e+105
-5.9462e+104
-2.94295e+104
-1.45404e+104
-4.74615e+103
3.9073e+108
-3.1235e+108
-1.23376e+108
-4.25123e+107
-1.53713e+107
-6.05649e+106
-2.56065e+106
-1.14224e+106
-5.29619e+105
-2.49638e+105
-1.08959e+105
-3.0445e+104
-1.02206e+104
-1.14534e+103
2.83909e+103
-3.59113e+108
-5.97255e+107
-9.84809e+106
-1.8845e+106
-2.06748e+105
1.74098e+105
2.14042e+105
1.75034e+105
1.29596e+105
1.05682e+105
1.00631e+105
1.25944e+105
1.36577e+104
1.75109e+103
-4.45302e+101
1.86549e+107
5.13571e+106
2.15453e+106
1.10712e+106
6.0078e+105
3.45802e+105
2.11017e+105
1.35271e+105
1.04381e+105
2.08182e+105
5.1306e+104
-6.08259e+103
1.38624e+103
2.12837e+102
3.82311e+100
2.26347e+105
9.96814e+104
-2.0014e+104
-3.77887e+104
-3.49792e+104
-2.92971e+104
-2.37889e+104
-2.22456e+104
-3.14798e+104
1.10955e+105
1.54225e+105
1.91657e+103
-7.66652e+103
-4.27883e+103
-2.27225e+103
-1.55977e+105
-5.45275e+104
-2.63449e+104
-1.70976e+104
-1.25911e+104
-8.61541e+103
-5.20044e+103
-2.54287e+103
8.32683e+103
2.17226e+104
1.27801e+105
8.45729e+104
4.85019e+104
2.72129e+104
1.52459e+104
7.54717e+102
-2.41118e+102
5.85549e+102
8.22642e+102
8.78182e+102
7.27599e+102
4.47567e+101
-4.54324e+102
-4.77366e+102
-2.58777e+103
6.0044e+103
1.53994e+104
1.67437e+104
1.38042e+104
1.0447e+104
1.90624e+103
7.57948e+102
3.25658e+102
1.75376e+102
1.10035e+102
6.80067e+101
4.68954e+101
2.98201e+101
4.38122e+100
-6.24218e+101
-8.09691e+102
-9.4593e+102
-7.50207e+102
-5.86419e+102
-4.83873e+102
-1.73651e+102
-6.37212e+101
-3.40659e+101
-2.35695e+101
-1.84013e+101
-1.34463e+101
-5.20853e+100
1.83509e+100
5.72887e+100
2.53154e+101
-2.00595e+101
-5.86027e+101
-6.06063e+101
-5.19038e+101
-4.36126e+101
-3.91337e+100
-2.04223e+100
-1.02987e+99
4.59007e+99
6.5246e+99
6.05006e+99
1.05595e+99
-2.86903e+99
-1.21982e+99
1.86571e+100
1.11231e+101
1.32204e+101
1.10672e+101
8.79808e+100
6.88793e+100
2.4936e+100
9.25853e+99
4.64157e+99
3.09719e+99
2.35592e+99
1.70791e+99
9.79999e+98
1.5219e+98
-1.21614e+99
-2.93458e+99
-2.58423e+99
-4.6283e+98
5.17056e+98
7.06466e+98
6.13167e+98
-1.37107e+98
4.28802e+97
-1.32175e+98
-1.85871e+98
-1.87454e+98
-1.30211e+98
6.54024e+96
1.26679e+98
1.53134e+98
-1.10339e+98
-9.89641e+98
-1.27865e+99
-1.11956e+99
-8.86095e+98
-6.73692e+98
-4.25407e+98
-1.67783e+98
-6.79339e+97
-3.43597e+97
-2.02924e+97
-1.24571e+97
-6.92137e+96
6.74949e+96
4.37657e+97
1.11019e+98
1.82189e+98
1.67341e+98
1.29027e+98
9.71767e+97
7.34336e+97
4.86158e+97
1.81476e+97
9.36431e+96
6.2303e+96
4.5107e+96
2.62044e+96
1.96947e+95
-2.00916e+96
-2.93642e+96
3.68119e+95
8.78077e+96
1.195e+97
1.074e+97
8.63067e+96
6.72763e+96
1.63682e+94
5.63484e+94
-1.69392e+95
-2.11602e+95
-1.89349e+95
-9.52249e+94
3.15008e+94
-3.34266e+94
-5.40327e+95
-1.60904e+96
-2.72901e+96
-2.63477e+96
-2.06487e+96
-1.48693e+96
-9.5999e+95
-4.8272e+95
-1.79992e+95
-8.66192e+94
-5.57927e+94
-4.05384e+94
-2.5805e+94
-5.0427e+93
2.96551e+94
8.0421e+94
1.10944e+95
9.52241e+94
6.63103e+94
6.92399e+94
1.15358e+95
2.19264e+95
1.29005e+94
3.77454e+93
4.38036e+93
4.37706e+93
3.75263e+93
1.97947e+93
-8.82535e+92
-2.61266e+93
4.69161e+92
1.34931e+94
3.25508e+94
3.76988e+94
4.7132e+94
8.30899e+94
1.64404e+95
6.14854e+93
2.47254e+93
9.53933e+92
4.46117e+92
2.44135e+92
1.4585e+92
4.93787e+91
-2.82863e+92
-1.17261e+93
-2.67422e+93
-3.95986e+93
-3.00016e+93
3.75136e+93
2.96091e+94
8.98422e+94
-8.0666e+92
-3.12623e+92
-1.61825e+92
-1.0684e+92
-7.7447e+91
-4.82151e+91
-1.13465e+91
2.64477e+91
4.45774e+91
-1.13634e+91
-1.35042e+92
-1.33828e+92
5.51566e+92
3.83015e+93
1.25926e+94
5.27644e+90
8.94608e+89
3.95894e+90
4.49122e+90
4.03762e+90
2.53406e+90
2.66858e+89
-8.39941e+89
-5.56287e+89
-3.96758e+90
8.43027e+90
2.17656e+91
8.07699e+91
4.16647e+92
1.54809e+93
7.9625e+90
3.1788e+90
1.57016e+90
1.00836e+90
7.38504e+89
5.31302e+89
2.71061e+89
-8.12973e+89
-7.13759e+90
-3.07276e+91
-3.97665e+91
-3.21523e+91
-8.35464e+89
8.05189e+91
2.76983e+92
-2.52083e+89
-7.20204e+88
-8.8001e+88
-9.20157e+88
-8.34099e+88
-5.50616e+88
7.85836e+86
-6.3565e+89
-6.89847e+90
-3.45929e+91
-4.39987e+91
-3.41239e+91
4.59208e+90
9.28227e+91
2.65197e+92
-1.23703e+89
-5.47632e+88
-2.25482e+88
-1.04904e+88
-5.54265e+87
6.85448e+86
1.70928e+88
-7.477e+89
-7.84202e+90
-3.9087e+91
-5.02702e+91
-4.2299e+91
-1.47759e+90
9.81232e+91
2.99298e+92
1.75311e+88
7.39812e+87
3.91303e+87
2.5179e+87
1.79846e+87
5.38352e+87
2.40065e+88
-8.49297e+89
-9.4524e+90
-4.07051e+91
-5.61291e+91
-5.88348e+91
-3.59229e+91
3.59296e+91
1.95075e+92
-3.85683e+86
-1.35472e+86
-1.32412e+86
-1.38446e+86
-1.69969e+86
3.71912e+87
2.89324e+88
-9.61528e+89
-8.25881e+90
-3.83867e+91
-5.88531e+91
-7.40062e+91
-7.86784e+91
-6.26006e+91
-7.29188e+90
-1.2092e+86
-5.21672e+85
-2.98731e+85
-3.91755e+85
-1.03912e+86
3.28619e+87
3.4941e+88
-1.12058e+90
-7.50978e+90
-3.10425e+91
-5.25213e+91
-7.30756e+91
-9.31405e+91
-1.11805e+92
-1.24836e+92
6.5499e+84
2.45413e+84
-2.10484e+84
-2.34929e+85
-1.08995e+86
2.76902e+87
3.99773e+88
-1.31387e+90
-7.43361e+90
-2.06561e+91
-3.5741e+91
-5.25578e+91
-7.15819e+91
-9.33905e+91
-1.18179e+92
3.79864e+84
2.08121e+84
-4.31911e+84
-2.9209e+85
-1.281e+86
2.37677e+87
4.36528e+88
-1.53176e+90
-6.08461e+90
-1.23372e+91
-2.02923e+91
-2.99596e+91
-4.13523e+91
-5.48303e+91
-7.12131e+91
1.48289e+84
8.71867e+83
-6.41493e+84
-3.57116e+85
-1.50853e+86
2.05605e+87
4.80934e+88
-7.62092e+89
-3.55887e+90
-6.79431e+90
-1.05531e+91
-1.49516e+91
-2.01348e+91
-2.63407e+91
-3.38441e+91
2.14609e+84
1.09238e+84
-8.38219e+84
-4.44354e+85
-1.78361e+86
1.50907e+87
5.23026e+88
-1.02937e+89
-1.35586e+90
-2.89012e+90
-4.5794e+90
-6.42013e+90
-8.49208e+90
-1.08909e+91
-1.3671e+91
2.48274e+84
1.15601e+84
-1.06708e+85
-5.45063e+85
-2.04045e+86
7.19087e+86
5.9312e+88
1.6866e+89
-1.69093e+89
-6.93461e+89
-1.29976e+90
-1.96801e+90
-2.7176e+90
-3.56687e+90
-4.52189e+90
2.83114e+84
1.19391e+84
-1.31722e+85
-6.54416e+85
-2.27565e+86
-2.13093e+85
5.73246e+88
2.20105e+89
2.03996e+89
1.04912e+89
-3.60999e+88
-2.0876e+89
-4.14719e+89
-6.55768e+89
-9.34096e+89
3.2203e+84
1.19231e+84
-1.62594e+85
-7.87875e+85
-2.54353e+86
-3.88913e+86
2.30835e+88
1.30492e+89
1.75188e+89
1.85557e+89
1.79616e+89
1.64494e+89
1.41062e+89
1.07497e+89
6.15665e+88
3.65509e+84
1.18007e+84
-1.99753e+85
-9.5471e+85
-2.93914e+86
-4.07516e+86
9.69072e+87
4.13713e+88
6.82378e+88
8.53757e+88
9.72433e+88
1.07887e+89
1.17617e+89
1.2554e+89
1.30876e+89
4.12042e+84
1.20122e+84
-2.39065e+85
-1.14009e+86
-3.50311e+86
-5.1825e+86
1.01096e+87
5.96355e+87
1.22849e+88
1.8107e+88
2.33964e+88
2.86575e+88
3.39798e+88
3.92161e+88
4.42313e+88
4.67342e+84
1.95864e+84
-2.52453e+85
-1.22918e+86
-3.63392e+86
-7.56724e+86
-1.11064e+87
-1.08736e+87
-6.21987e+86
8.71742e+85
9.18513e+86
1.83626e+87
2.83327e+87
3.89493e+87
5.00677e+87
5.12152e+84
6.50209e+84
-3.04723e+84
-4.26154e+85
-1.36522e+86
-2.94202e+86
-4.78483e+86
-6.29794e+86
-7.29765e+86
-7.88182e+86
-8.12841e+86
-8.11754e+86
-7.8701e+86
-7.38791e+86
-6.68287e+86
4.31343e+84
7.9778e+84
1.13618e+85
1.12086e+85
3.79796e+84
-1.25928e+85
-3.67626e+85
-6.43721e+85
-9.14503e+85
-1.17259e+86
-1.4163e+86
-1.64066e+86
-1.84062e+86
-2.01099e+86
-2.1495e+86
2.28191e+84
4.23128e+84
6.96611e+84
1.01101e+85
1.28402e+85
1.46738e+85
1.53101e+85
1.47219e+85
1.32488e+85
1.12849e+85
9.02802e+84
6.55008e+84
3.91147e+84
1.19052e+84
-1.52976e+84
8.54195e+83
1.26204e+84
1.66226e+84
2.11407e+84
2.56796e+84
2.99249e+84
3.35732e+84
3.63865e+84
3.83957e+84
3.98423e+84
4.08747e+84
4.14718e+84
4.15737e+84
4.11591e+84
4.02706e+84
2.43029e+83
3.31474e+83
3.5046e+83
3.34572e+83
3.04877e+83
2.77287e+83
2.56972e+83
2.44716e+83
2.4013e+83
2.41909e+83
2.48042e+83
2.56466e+83
2.65459e+83
2.73724e+83
2.80615e+83
3.85573e+82
6.59747e+82
7.98824e+82
8.17807e+82
7.58482e+82
6.63109e+82
5.56287e+82
4.5337e+82
3.63659e+82
2.88838e+82
2.26374e+82
1.74078e+82
1.30688e+82
9.53069e+81
6.71454e+81
-1.75137e+81
2.52685e+80
3.50616e+81
6.19625e+81
7.903e+81
8.72664e+81
8.87314e+81
8.56686e+81
8.0757e+81
7.54768e+81
6.97926e+81
6.37182e+81
5.74734e+81
5.12854e+81
4.52986e+81
-7.5472e+80
-1.3564e+81
-1.57235e+81
-1.4806e+81
-1.25008e+81
-9.87058e+80
-7.40859e+80
-5.30574e+80
-3.62505e+80
-2.31221e+80
-1.27781e+80
-4.67245e+79
1.53156e+79
6.1202e+79
9.31524e+79
-9.6193e+79
-4.2392e+79
-8.47563e+79
-1.32234e+80
-1.61658e+80
-1.7261e+80
-1.7063e+80
-1.6222e+80
-1.52091e+80
-1.41504e+80
-1.30239e+80
-1.18449e+80
-1.06539e+80
-9.48696e+79
-8.37959e+79
-1.2466e+80
-6.53777e+79
-2.51389e+79
-7.4894e+78
-6.60137e+77
1.3956e+78
1.50508e+78
9.77222e+77
2.82596e+77
-4.52041e+77
-1.13596e+78
-1.69716e+78
-2.10752e+78
-2.36783e+78
-2.51804e+78
-3.8716e+79
-3.16476e+79
-2.12133e+79
-1.3889e+79
-9.06883e+78
-5.95986e+78
-3.94274e+78
-2.63365e+78
-1.77817e+78
-1.20474e+78
-8.09978e+77
-5.34857e+77
-3.43618e+77
-2.12054e+77
-1.25819e+77
-4.09441e+78
-3.93732e+78
-3.24131e+78
-2.55709e+78
-1.98215e+78
-1.53143e+78
-1.19405e+78
-9.51105e+77
-7.71045e+77
-6.29325e+77
-5.13769e+77
-4.18592e+77
-3.40209e+77
-2.75957e+77
-2.23711e+77
-1.9329e+77
-9.01443e+76
-5.85625e+76
-5.53318e+76
-5.39591e+76
-5.09493e+76
-4.71102e+76
-4.33355e+76
-3.96215e+76
-3.57567e+76
-3.18065e+76
-2.7932e+76
-2.42625e+76
-2.08948e+76
-1.78525e+76
3.03194e+76
1.50412e+76
1.51589e+76
1.3489e+76
1.12602e+76
9.13008e+75
7.37386e+75
6.01492e+75
4.94115e+75
4.0628e+75
3.33189e+75
2.72129e+75
2.21286e+75
1.7908e+75
1.4503e+75
3.76914e+76
1.80764e+76
8.42189e+75
4.3993e+75
2.54909e+75
1.60633e+75
1.09074e+75
7.94296e+74
6.12802e+74
4.9106e+74
4.01687e+74
3.31848e+74
2.75301e+74
2.28516e+74
1.91089e+74
9.87404e+75
6.12863e+75
3.29442e+75
1.87961e+75
1.12882e+75
7.14126e+74
4.76838e+74
3.33309e+74
2.40121e+74
1.76131e+74
1.30734e+74
9.79273e+73
7.39151e+73
5.61838e+73
4.31783e+73
6.54604e+74
6.01296e+74
4.04808e+74
2.70552e+74
1.8388e+74
1.29394e+74
9.47057e+73
7.13233e+73
5.43849e+73
4.16422e+73
3.19543e+73
2.45656e+73
1.89196e+73
1.46074e+73
1.13098e+73
-1.05419e+74
-4.77814e+73
-1.7225e+73
-5.3776e+72
-6.9622e+71
1.1755e+72
1.86951e+72
2.01871e+72
1.90996e+72
1.69608e+72
1.45412e+72
1.21926e+72
1.00681e+72
8.23098e+71
6.65372e+71
-2.0947e+73
-1.39427e+73
-8.03394e+72
-4.81684e+72
-3.03294e+72
-2.01199e+72
-1.39589e+72
-9.97899e+71
-7.26186e+71
-5.33522e+71
-3.93969e+71
-2.9194e+71
-2.16963e+71
-1.61745e+71
-1.21391e+71
-2.32428e+72
-1.35913e+72
-7.80529e+71
-4.79148e+71
-3.14057e+71
-2.17834e+71
-1.5806e+71
-1.18279e+71
-8.9915e+70
-6.87482e+70
-5.26462e+70
-4.03039e+70
-3.08136e+70
-2.3543e+70
-1.80438e+70
-4.5583e+71
-2.20859e+71
-1.01545e+71
-5.25604e+70
-3.00488e+70
-1.8608e+70
-1.23193e+70
-8.58742e+69
-6.18448e+69
-4.53335e+69
-3.35541e+69
-2.49807e+69
-1.86699e+69
-1.4002e+69
-1.05952e+69
-5.71641e+70
-3.33759e+70
-1.67632e+70
-9.28603e+69
-5.54942e+69
-3.52471e+69
-2.35084e+69
-1.62343e+69
-1.14222e+69
-8.10509e+68
-5.77764e+68
-4.13323e+68
-2.96797e+68
-2.14238e+68
-1.56105e+68
1.29936e+69
-2.14912e+68
-4.48482e+68
-4.13443e+68
-3.29697e+68
-2.54018e+68
-1.94189e+68
-1.47826e+68
-1.11671e+68
-8.36388e+67
-6.21781e+67
-4.59614e+67
-3.3867e+67
-2.49778e+67
-1.8511e+67
1.22906e+69
5.83602e+68
2.59626e+68
1.28758e+68
7.00995e+67
4.09667e+67
2.52755e+67
1.62418e+67
1.07024e+67
7.14816e+66
4.81305e+66
3.26335e+66
2.2291e+66
1.53466e+66
1.07403e+66
1.55717e+68
7.15983e+67
3.43615e+67
1.90453e+67
1.16183e+67
7.54006e+66
5.12764e+66
3.60008e+66
2.56871e+66
1.84416e+66
1.32684e+66
9.56323e+65
6.91411e+65
5.03057e+65
3.70439e+65
-4.11479e+66
4.73695e+65
8.00188e+65
7.03634e+65
5.13848e+65
3.63812e+65
2.61194e+65
1.88569e+65
1.3595e+65
9.77448e+64
7.01938e+64
5.04747e+64
3.64371e+64
2.65458e+64
1.95437e+64
-6.62793e+66
-1.61124e+66
-5.32683e+65
-2.09227e+65
-9.53153e+64
-4.46287e+64
-2.16445e+64
-1.10895e+64
-5.99163e+63
-3.39296e+63
-2.00323e+63
-1.22908e+63
-7.79889e+62
-5.02188e+62
-3.50031e+62
-5.07695e+65
-3.16731e+65
-1.49976e+65
-8.07342e+64
-4.36285e+64
-2.4463e+64
-1.46135e+64
-9.14626e+63
-5.89699e+63
-3.87677e+63
-2.58517e+63
-1.744e+63
-1.18865e+63
-8.18343e+62
-5.74156e+62
2.81596e+65
-1.00964e+64
-2.16231e+64
-1.39544e+64
-7.81532e+63
-4.7095e+63
-3.00277e+63
-1.97853e+63
-1.3322e+63
-9.09802e+62
-6.27385e+62
-4.35868e+62
-3.05121e+62
-2.15611e+62
-1.54416e+62
-1.25276e+64
-4.2057e+63
-2.82986e+63
-9.59546e+62
-4.97691e+62
-3.47085e+62
-2.47944e+62
-1.78333e+62
-1.28652e+62
-9.26067e+61
-6.64297e+61
-4.75979e+61
-3.42013e+61
-2.47194e+61
-1.80382e+61
-3.73081e+64
-5.78673e+63
-8.41349e+62
-4.13831e+61
2.18318e+61
2.00603e+61
1.27093e+61
6.72098e+60
3.09778e+60
1.19653e+60
2.64682e+59
-1.7675e+59
-3.64929e+59
-4.19315e+59
-4.18325e+59
-2.81301e+63
-9.63438e+62
-1.88201e+62
-8.49106e+61
-4.03024e+61
-1.81157e+61
-8.22544e+60
-3.73609e+60
-1.64634e+60
-6.75879e+59
-2.39439e+59
-5.32845e+58
1.96429e+58
4.03818e+58
3.90606e+58
2.42913e+63
4.1323e+62
5.87049e+61
-3.63909e+60
-8.54364e+60
-6.51172e+60
-4.31881e+60
-2.74642e+60
-1.72449e+60
-1.08472e+60
-6.86727e+59
-4.36794e+59
-2.79137e+59
-1.79938e+59
-1.15778e+59
3.88235e+62
1.26769e+62
3.17803e+61
1.14044e+61
4.7469e+60