/*--------------------------------*- C++ -*----------------------------------*\
  =========                 |
  \\      /  F ield         | OpenFOAM: The Open Source CFD Toolbox
   \\    /   O peration     | Website:  https://openfoam.org
    \\  /    A nd           | Version:  8
     \\/     M anipulation  |
\*---------------------------------------------------------------------------*/
FoamFile
{
    version     2.0;
    format      ascii;
    class       volScalarField;
    location    "1000";
    object      epsilon;
}
// * * * * * * * * * * * * * * * * * * * * * * * * * * * * * * * * * * * * * //

dimensions      [0 2 -3 0 0 0 0];

internalField   nonuniform List<scalar> 
7320
(
11607.3
10157.7
9314.43
8772.21
8390.2
8102.79
7875.93
7690.7
7535.77
7403.76
7289.61
7189.73
7101.46
7022.84
6952.31
6888.69
6831
6778.46
6730.43
6686.38
6645.85
6608.48
6573.93
6541.93
6512.24
6484.64
6458.97
6435.04
6412.73
6391.9
6372.45
6354.26
6337.25
6321.34
6306.45
6292.52
6279.48
6267.29
6255.88
6245.21
6235.24
6225.93
6217.24
6209.14
6201.6
6194.58
6188.07
6182.04
6176.46
6171.32
6166.59
6162.25
6158.28
6154.68
6151.42
6148.49
6145.87
6143.56
6141.54
6139.79
6138.32
6137.1
6136.13
6135.4
6134.9
6134.62
6134.55
6134.68
6135.01
6135.53
6136.23
6137.11
6138.15
6139.36
6140.73
6142.25
6143.91
6145.73
6147.69
6149.8
6152.05
6154.44
6156.98
6159.67
6162.5
6165.48
6168.6
6171.87
6175.27
6178.82
6182.49
6186.29
6190.2
6194.21
6198.31
6202.48
6206.71
6210.98
6215.28
6219.59
6223.89
6228.16
6232.39
6236.57
6240.67
6244.7
6248.63
6252.47
6256.21
6259.83
6263.36
6266.78
6270.11
6273.34
6276.5
6279.6
6282.64
6285.65
6288.63
6291.63
6294.52
6297.55
3749.32
3919.37
3598.69
3368.86
3210.19
3093.2
3002.11
2928.43
2867.18
2815.25
2770.5
2731.45
2697.02
2666.41
2638.99
2614.29
2591.92
2571.56
2552.97
2535.93
2520.26
2505.82
2492.48
2480.12
2468.66
2458.02
2448.11
2438.89
2430.29
2422.26
2414.76
2407.75
2401.19
2395.06
2389.33
2383.96
2378.93
2374.23
2369.83
2365.72
2361.88
2358.29
2354.93
2351.81
2348.9
2346.19
2343.68
2341.34
2339.19
2337.2
2335.36
2333.68
2332.14
2330.74
2329.47
2328.33
2327.31
2326.41
2325.61
2324.92
2324.34
2323.85
2323.46
2323.16
2322.95
2322.82
2322.78
2322.81
2322.92
2323.1
2323.35
2323.66
2324.05
2324.49
2325
2325.56
2326.18
2326.86
2327.59
2328.38
2329.22
2330.11
2331.05
2332.05
2333.1
2334.21
2335.37
2336.58
2337.84
2339.15
2340.51
2341.92
2343.37
2344.86
2346.39
2347.95
2349.54
2351.15
2352.78
2354.41
2356.06
2357.7
2359.34
2360.97
2362.59
2364.19
2365.76
2367.3
2368.82
2370.3
2371.76
2373.17
2374.56
2375.91
2377.24
2378.53
2379.81
2381.06
2382.29
2383.52
2384.7
2385.9
1528.99
1989.05
1884.98
1770.23
1685.89
1623.05
1574.14
1534.67
1501.95
1474.25
1450.43
1429.67
1411.39
1395.16
1380.63
1367.55
1355.71
1344.94
1335.11
1326.11
1317.83
1310.2
1303.16
1296.64
1290.59
1284.98
1279.75
1274.89
1270.35
1266.11
1262.16
1258.47
1255.01
1251.78
1248.75
1245.92
1243.27
1240.79
1238.48
1236.31
1234.28
1232.38
1230.62
1228.97
1227.43
1226
1224.67
1223.44
1222.3
1221.25
1220.28
1219.39
1218.57
1217.83
1217.16
1216.55
1216.01
1215.53
1215.1
1214.74
1214.42
1214.16
1213.95
1213.78
1213.67
1213.59
1213.56
1213.57
1213.62
1213.71
1213.83
1213.99
1214.19
1214.41
1214.67
1214.95
1215.27
1215.61
1215.98
1216.38
1216.81
1217.27
1217.75
1218.26
1218.8
1219.37
1219.97
1220.6
1221.26
1221.95
1222.67
1223.42
1224.2
1225
1225.83
1226.68
1227.55
1228.44
1229.34
1230.24
1231.15
1232.06
1232.97
1233.86
1234.75
1235.61
1236.46
1237.28
1238.08
1238.84
1239.58
1240.28
1240.95
1241.59
1242.19
1242.76
1243.3
1243.81
1244.29
1244.76
1245.18
1245.6
720.941
1168.15
1165.72
1105.65
1054.38
1014.75
983.61
958.429
937.557
919.91
904.751
891.558
879.953
869.656
860.45
852.168
844.676
837.868
831.656
825.967
820.741
815.927
811.482
807.369
803.556
800.014
796.721
793.654
790.795
788.127
785.635
783.306
781.129
779.092
777.187
775.403
773.734
772.172
770.71
769.343
768.065
766.87
765.755
764.714
763.745
762.842
762.004
761.225
760.505
759.839
759.225
758.661
758.145
757.674
757.247
756.861
756.515
756.207
755.936
755.7
755.497
755.328
755.189
755.081
755.001
754.95
754.925
754.925
754.951
754.999
755.071
755.164
755.278
755.411
755.563
755.734
755.923
756.128
756.351
756.591
756.849
757.124
757.417
757.729
758.061
758.413
758.786
759.181
759.598
760.037
760.499
760.982
761.487
762.011
762.553
763.111
763.683
764.266
764.857
765.452
766.048
766.64
767.226
767.802
768.363
768.906
769.428
769.926
770.397
770.839
771.25
771.628
771.973
772.285
772.564
772.81
773.027
773.215
773.376
773.516
773.627
773.723
358.82
725.629
779.829
754.392
722.982
696.536
675.147
657.664
643.11
630.786
620.195
610.98
602.879
595.694
589.274
583.502
578.284
573.544
569.221
565.264
561.63
558.284
555.195
552.337
549.689
547.229
544.943
542.813
540.829
538.977
537.247
535.631
534.12
532.707
531.384
530.146
528.987
527.903
526.888
525.938
525.05
524.22
523.445
522.722
522.048
521.42
520.836
520.294
519.792
519.327
518.899
518.505
518.144
517.814
517.515
517.244
517
516.783
516.591
516.424
516.279
516.158
516.057
515.978
515.918
515.878
515.856
515.852
515.864
515.892
515.936
515.994
516.067
516.152
516.251
516.362
516.484
516.619
516.765
516.924
517.094
517.277
517.474
517.684
517.909
518.15
518.407
518.681
518.972
519.281
519.607
519.95
520.309
520.683
521.071
521.471
521.88
522.296
522.716
523.138
523.557
523.971
524.377
524.771
525.149
525.509
525.848
526.164
526.454
526.716
526.95
527.153
527.327
527.47
527.584
527.669
527.728
527.763
527.776
527.77
527.745
527.707
180.95
454.606
539.365
539.228
522.289
504.944
489.985
477.422
466.83
457.801
450.016
443.23
437.258
431.96
427.226
422.969
419.121
415.626
412.44
409.523
406.846
404.381
402.106
400.001
398.051
396.241
394.557
392.99
391.529
390.166
388.893
387.704
386.592
385.551
384.577
383.666
382.813
382.014
381.266
380.567
379.913
379.301
378.729
378.196
377.698
377.234
376.803
376.402
376.031
375.687
375.37
375.077
374.809
374.564
374.341
374.139
373.957
373.794
373.649
373.523
373.413
373.32
373.243
373.181
373.133
373.1
373.08
373.072
373.077
373.093
373.12
373.158
373.206
373.264
373.33
373.406
373.49
373.583
373.685
373.795
373.915
374.045
374.184
374.335
374.498
374.673
374.86
375.062
375.277
375.505
375.748
376.003
376.272
376.551
376.841
377.139
377.443
377.751
378.061
378.37
378.676
378.974
379.263
379.54
379.802
380.047
380.272
380.476
380.657
380.813
380.944
381.049
381.128
381.182
381.211
381.217
381.203
381.169
381.119
381.055
380.98
380.895
91.0616
278.177
374.321
393.387
388.302
378.207
368.135
359.167
351.387
344.653
338.793
333.658
329.123
325.091
321.482
318.234
315.297
312.628
310.193
307.964
305.918
304.034
302.295
300.686
299.195
297.811
296.524
295.326
294.209
293.167
292.194
291.284
290.434
289.638
288.893
288.195
287.542
286.931
286.359
285.823
285.321
284.853
284.414
284.005
283.623
283.267
282.936
282.627
282.342
282.077
281.832
281.607
281.399
281.21
281.037
280.879
280.738
280.611
280.497
280.398
280.311
280.237
280.175
280.124
280.085
280.056
280.037
280.028
280.028
280.036
280.053
280.078
280.11
280.15
280.197
280.25
280.31
280.376
280.449
280.53
280.617
280.712
280.816
280.928
281.049
281.181
281.323
281.476
281.639
281.814
281.999
282.195
282.4
282.613
282.834
283.061
283.291
283.524
283.757
283.987
284.213
284.432
284.641
284.839
285.024
285.193
285.345
285.478
285.591
285.683
285.755
285.805
285.834
285.843
285.832
285.804
285.76
285.702
285.632
285.554
285.47
285.379
46.0967
162.189
254.261
286.985
292.083
288.344
282.427
276.399
270.841
265.871
261.463
257.553
254.072
250.96
248.165
245.642
243.355
241.274
239.374
237.632
236.033
234.559
233.197
231.938
230.77
229.686
228.677
227.738
226.862
226.045
225.281
224.567
223.9
223.275
222.69
222.142
221.629
221.149
220.699
220.277
219.883
219.514
219.169
218.846
218.545
218.264
218.003
217.759
217.533
217.324
217.13
216.951
216.786
216.635
216.497
216.372
216.258
216.156
216.065
215.985
215.914
215.853
215.802
215.76
215.726
215.7
215.683
215.673
215.669
215.673
215.683
215.699
215.721
215.749
215.782
215.82
215.864
215.912
215.967
216.026
216.092
216.163
216.242
216.327
216.42
216.521
216.631
216.749
216.875
217.011
217.154
217.306
217.464
217.629
217.799
217.974
218.15
218.328
218.504
218.678
218.846
219.009
219.163
219.306
219.438
219.557
219.661
219.749
219.821
219.876
219.914
219.935
219.94
219.928
219.903
219.863
219.812
219.752
219.684
219.611
219.535
219.457
24.139
88.6484
164.986
205.253
218.887
220.976
218.885
215.492
211.862
208.378
205.161
202.236
199.59
197.197
195.031
193.064
191.273
189.637
188.14
186.765
185.499
184.331
183.251
182.251
181.323
180.461
179.658
178.91
178.212
177.561
176.952
176.382
175.849
175.35
174.883
174.445
174.035
173.65
173.29
172.953
172.636
172.341
172.064
171.805
171.563
171.337
171.127
170.931
170.749
170.58
170.423
170.279
170.145
170.023
169.911
169.809
169.716
169.632
169.558
169.491
169.433
169.382
169.339
169.303
169.273
169.251
169.234
169.224
169.219
169.219
169.224
169.235
169.25
169.269
169.293
169.321
169.353
169.389
169.43
169.475
169.525
169.58
169.64
169.706
169.778
169.857
169.942
170.034
170.133
170.238
170.35
170.468
170.592
170.72
170.852
170.987
171.123
171.259
171.394
171.526
171.653
171.775
171.89
171.995
172.091
172.176
172.249
172.31
172.357
172.39
172.411
172.418
172.412
172.394
172.365
172.326
172.28
172.226
172.168
172.107
172.047
171.985
13.5084
45.5623
99.8141
140.768
160.687
168.047
169.612
168.74
166.918
164.789
162.633
160.564
158.629
156.839
155.192
153.678
152.288
151.01
149.834
148.749
147.746
146.819
145.959
145.161
144.42
143.729
143.086
142.486
141.925
141.401
140.911
140.452
140.022
139.62
139.242
138.889
138.557
138.246
137.955
137.681
137.425
137.185
136.96
136.75
136.554
136.37
136.199
136.039
135.89
135.752
135.624
135.506
135.397
135.296
135.204
135.12
135.043
134.974
134.912
134.856
134.807
134.764
134.728
134.696
134.671
134.651
134.635
134.625
134.619
134.617
134.619
134.626
134.635
134.649
134.666
134.687
134.711
134.738
134.769
134.803
134.842
134.884
134.931
134.983
135.039
135.1
135.167
135.239
135.317
135.399
135.487
135.58
135.676
135.776
135.879
135.984
136.089
136.194
136.298
136.399
136.497
136.59
136.676
136.755
136.827
136.889
136.942
136.985
137.017
137.039
137.05
137.051
137.043
137.025
136.999
136.966
136.927
136.884
136.838
136.791
136.745
136.699
8.23297
22.8776
55.2867
90.2281
113.178
124.85
129.856
131.463
131.425
130.618
129.473
128.204
126.919
125.67
124.481
123.362
122.317
121.343
120.436
119.594
118.81
118.08
117.401
116.769
116.178
115.627
115.113
114.631
114.181
113.759
113.364
112.994
112.647
112.321
112.015
111.729
111.459
111.207
110.97
110.747
110.538
110.343
110.159
109.988
109.827
109.677
109.536
109.405
109.283
109.17
109.064
108.967
108.877
108.794
108.717
108.647
108.584
108.526
108.474
108.427
108.386
108.349
108.318
108.291
108.269
108.251
108.237
108.227
108.22
108.217
108.218
108.221
108.228
108.237
108.25
108.265
108.283
108.304
108.327
108.354
108.384
108.417
108.453
108.494
108.538
108.586
108.639
108.695
108.756
108.821
108.89
108.963
109.038
109.117
109.197
109.279
109.361
109.443
109.524
109.602
109.678
109.749
109.815
109.876
109.931
109.978
110.018
110.049
110.073
110.088
110.096
110.095
110.087
110.072
110.052
110.025
109.995
109.962
109.927
109.892
109.858
109.826
5.47937
11.9932
28.2309
52.6649
74.495
88.7635
96.7042
100.69
102.44
102.969
102.841
102.365
101.714
100.983
100.226
99.4734
98.7429
98.0428
97.3776
96.7488
96.1563
95.5991
95.0758
94.5845
94.1235
93.6908
93.2848
92.9036
92.5457
92.2096
91.8938
91.5971
91.3182
91.0561
90.8097
90.578
90.3602
90.1556
89.9632
89.7825
89.6127
89.4534
89.3039
89.1637
89.0323
88.9093
88.7944
88.687
88.5868
88.4936
88.4069
88.3264
88.252
88.1833
88.12
88.062
88.009
87.9609
87.9174
87.8783
87.8435
87.8128
87.786
87.763
87.7437
87.7279
87.7154
87.7061
87.6998
87.6963
87.6955
87.6972
87.7015
87.7081
87.7172
87.7285
87.7421
87.7581
87.7764
87.7971
87.8204
87.8463
87.8751
87.9068
87.9417
87.9797
88.021
88.0657
88.1137
88.165
88.2192
88.2763
88.3359
88.3975
88.4607
88.5249
88.5894
88.6537
88.7169
88.7784
88.8374
88.8933
88.9452
88.9927
89.0351
89.072
89.103
89.1279
89.1463
89.1584
89.1643
89.164
89.1581
89.1469
89.1311
89.1114
89.0886
89.0637
89.0378
89.0118
88.9878
88.9649
3.95841
6.92866
14.0447
27.7128
44.4801
58.7408
68.535
74.555
78.0226
79.9011
80.8188
81.1603
81.1575
80.9504
80.6246
80.2329
79.8081
79.3708
78.9339
78.5054
78.0901
77.6909
77.3093
76.9458
76.6006
76.2734
75.9636
75.6707
75.3939
75.1325
74.8857
74.6529
74.4331
74.2259
74.0304
73.8462
73.6725
73.5089
73.3548
73.2097
73.0731
72.9447
72.8241
72.7107
72.6044
72.5046
72.4113
72.3239
72.2424
72.1663
72.0955
72.0298
71.9688
71.9124
71.8605
71.8128
71.7691
71.7293
71.6933
71.6609
71.6319
71.6063
71.5839
71.5645
71.5481
71.5345
71.5237
71.5155
71.5097
71.5063
71.505
71.5058
71.5087
71.5135
71.5202
71.5289
71.5394
71.5518
71.5662
71.5825
71.6008
71.6214
71.6441
71.6692
71.6968
71.727
71.7597
71.7951
71.833
71.8735
71.9165
71.9616
72.0086
72.0573
72.1073
72.158
72.209
72.2598
72.3098
72.3585
72.4053
72.4496
72.491
72.5288
72.5627
72.5923
72.6174
72.6376
72.6529
72.6632
72.6687
72.6694
72.6657
72.658
72.6466
72.6323
72.6156
72.5972
72.5781
72.5591
72.5417
72.5255
3.07723
4.48267
7.4297
13.6627
23.6765
35.0257
44.8492
52.0825
56.9685
60.1185
62.0853
63.271
63.946
64.2875
64.4108
64.3915
64.2795
64.1082
63.8999
63.6698
63.4282
63.1823
62.937
62.6954
62.4598
62.2316
62.0117
61.8006
61.5987
61.4058
61.2221
61.0472
60.8811
60.7234
60.5738
60.432
60.2979
60.1709
60.0509
59.9375
59.8305
59.7295
59.6344
59.5449
59.4607
59.3816
59.3073
59.2378
59.1727
59.1119
59.0553
59.0025
58.9536
58.9083
58.8665
58.828
58.7928
58.7607
58.7315
58.7053
58.6818
58.661
58.6427
58.6269
58.6135
58.6024
58.5935
58.5867
58.5819
58.579
58.578
58.5785
58.5807
58.5845
58.5898
58.5967
58.6051
58.6151
58.6266
58.6397
58.6544
58.6709
58.6891
58.7092
58.7313
58.7553
58.7815
58.8096
58.8399
58.8721
58.9062
58.9421
58.9795
59.0182
59.0579
59.0983
59.1389
59.1794
59.2194
59.2584
59.296
59.3316
59.365
59.3957
59.4234
59.4477
59.4685
59.4856
59.4988
59.5082
59.5137
59.5155
59.5138
59.5089
59.5011
59.4909
59.4788
59.4654
59.4512
59.4371
59.4241
59.4124
2.55068
3.21778
4.43832
6.94254
11.6103
18.4647
26.1707
33.1843
38.7612
42.8701
45.7762
47.7853
49.1524
50.0674
50.6656
51.0415
51.2609
51.37
51.4011
51.3772
51.3148
51.2258
51.1186
50.9996
50.8734
50.7433
50.6119
50.4808
50.3516
50.225
50.1018
49.9824
49.8673
49.7565
49.6503
49.5486
49.4514
49.3588
49.2706
49.1868
49.1072
49.0318
48.9604
48.8929
48.8292
48.7692
48.7127
48.6596
48.6098
48.5632
48.5197
48.4791
48.4414
48.4064
48.3742
48.3445
48.3172
48.2924
48.2699
48.2496
48.2315
48.2154
48.2014
48.1893
48.1791
48.1708
48.1641
48.1591
48.1558
48.1539
48.1536
48.1545
48.1567
48.1602
48.1649
48.1709
48.178
48.1864
48.196
48.2069
48.2191
48.2326
48.2476
48.264
48.2819
48.3014
48.3225
48.3453
48.3696
48.3955
48.4229
48.4516
48.4816
48.5126
48.5445
48.5769
48.6096
48.6422
48.6745
48.7061
48.7366
48.7656
48.793
48.8183
48.8413
48.8617
48.8794
48.8942
48.9059
48.9146
48.9203
48.923
48.9229
48.9202
48.9152
48.9081
48.8994
48.8895
48.8789
48.8681
48.8582
48.8493
2.23299
2.5213
3.02004
3.97831
5.81132
8.95327
13.4245
18.6064
23.6547
28.0086
31.4918
34.1618
36.1611
37.6393
38.7238
39.5144
40.0864
40.4959
40.7841
40.9815
41.1107
41.1886
41.2279
41.238
41.2264
41.1984
41.1584
41.1096
41.0546
40.9954
40.9335
40.87
40.806
40.7421
40.6789
40.6168
40.5562
40.4974
40.4404
40.3855
40.3328
40.2822
40.2339
40.1879
40.1441
40.1026
40.0633
40.0262
39.9912
39.9584
39.9277
39.899
39.8723
39.8475
39.8246
39.8036
39.7843
39.7668
39.7509
39.7367
39.7242
39.7131
39.7036
39.6955
39.6889
39.6836
39.6796
39.677
39.6755
39.6753
39.6762
39.6781
39.681
39.6849
39.6897
39.6955
39.7021
39.7098
39.7183
39.7279
39.7385
39.7501
39.7628
39.7766
39.7916
39.8078
39.8252
39.8439
39.8638
39.885
39.9073
39.9307
39.955
39.9802
40.0061
40.0324
40.059
40.0856
40.112
40.1379
40.163
40.187
40.2097
40.2309
40.2504
40.2678
40.2831
40.2961
40.3067
40.3149
40.3207
40.3241
40.3252
40.3242
40.3212
40.3164
40.3103
40.3029
40.2948
40.2864
40.2784
40.2714
2.04415
2.12289
2.29752
2.64296
3.30166
4.4877
6.42602
9.18516
12.5445
16.0848
19.4152
22.3108
24.7067
26.6315
28.1526
29.344
30.2729
30.9955
31.5567
31.9918
32.3282
32.5874
32.7857
32.936
33.0484
33.1307
33.1891
33.2286
33.2529
33.2653
33.2683
33.2637
33.2534
33.2386
33.2203
33.1994
33.1767
33.1527
33.128
33.1028
33.0776
33.0525
33.0278
33.0037
32.9802
32.9576
32.9358
32.915
32.8952
32.8765
32.8589
32.8423
32.8269
32.8126
32.7994
32.7873
32.7764
32.7665
32.7577
32.75
32.7434
32.7378
32.7332
32.7296
32.727
32.7253
32.7246
32.7248
32.7259
32.7278
32.7306
32.7341
32.7385
32.7434
32.749
32.7553
32.7623
32.7699
32.7782
32.7873
32.7971
32.8077
32.8191
32.8313
32.8444
32.8584
32.8733
32.8891
32.9059
32.9237
32.9423
32.9617
32.9819
33.0028
33.0242
33.0459
33.0679
33.09
33.1119
33.1334
33.1544
33.1745
33.1938
33.2118
33.2284
33.2436
33.257
33.2687
33.2784
33.2863
33.2921
33.296
33.298
33.2982
33.2967
33.2937
33.2894
33.2839
33.2777
33.271
33.2643
33.2585
1.93662
1.89378
1.9091
1.99887
2.20581
2.60135
3.28857
4.38475
5.96585
7.99812
10.3235
12.7231
15.0051
17.0512
18.8156
20.3
21.5307
22.5425
23.3709
24.0479
24.6009
25.053
25.4228
25.7255
25.9736
26.1769
26.3435
26.4799
26.5915
26.6825
26.7565
26.8165
26.8647
26.9033
26.9338
26.9576
26.9758
26.9895
26.9994
27.0062
27.0105
27.0127
27.0133
27.0125
27.0108
27.0083
27.0053
27.0019
26.9983
26.9946
26.991
26.9875
26.9841
26.9811
26.9784
26.976
26.9741
26.9726
26.9716
26.9711
26.9711
26.9716
26.9727
26.9743
26.9764
26.9791
26.9824
26.9861
26.9904
26.9953
27.0006
27.0064
27.0128
27.0196
27.0268
27.0344
27.0424
27.0508
27.0597
27.069
27.0789
27.0893
27.1002
27.1117
27.1239
27.1367
27.1501
27.1642
27.179
27.1944
27.2105
27.2272
27.2445
27.2623
27.2805
27.2989
27.3175
27.3362
27.3548
27.3731
27.391
27.4083
27.4248
27.4405
27.455
27.4684
27.4805
27.4911
27.5002
27.5077
27.5136
27.5179
27.5206
27.5217
27.5214
27.5197
27.5168
27.5128
27.508
27.5025
27.4969
27.492
1.87971
1.76618
1.6969
1.6702
1.69599
1.79455
1.99808
2.35263
2.91532
3.74022
4.85282
6.22679
7.78258
9.41177
11.0108
12.5043
13.8504
15.0348
16.0607
16.9406
17.6911
18.3291
18.8711
19.3314
19.7227
20.0558
20.3398
20.5824
20.79
20.968
21.121
21.2527
21.3662
21.4643
21.5492
21.6228
21.6867
21.7423
21.7908
21.8332
21.8703
21.9028
21.9314
21.9567
21.979
21.9989
22.0167
22.0326
22.047
22.06
22.072
22.083
22.0932
22.1028
22.1118
22.1204
22.1287
22.1367
22.1446
22.1523
22.1599
22.1676
22.1753
22.183
22.1908
22.1987
22.2068
22.215
22.2234
22.232
22.2408
22.2497
22.2589
22.2683
22.2779
22.2876
22.2975
22.3076
22.3178
22.3283
22.3391
22.3501
22.3615
22.3732
22.3853
22.3977
22.4106
22.424
22.4378
22.452
22.4666
22.4817
22.4971
22.5129
22.5289
22.5452
22.5615
22.5779
22.5942
22.6102
22.6259
22.6411
22.6558
22.6697
22.6828
22.6949
22.7059
22.7158
22.7245
22.7318
22.7378
22.7425
22.7458
22.7477
22.7483
22.7477
22.7459
22.7431
22.7394
22.735
22.7303
22.726
1.85262
1.70013
1.58443
1.50014
1.44691
1.42874
1.45383
1.53512
1.69135
1.94726
2.33147
2.87025
3.57781
4.44717
5.44734
6.52935
7.63811
8.72432
9.75159
10.698
11.554
12.3183
12.995
13.5909
14.1139
14.5724
14.974
15.3259
15.6346
15.9057
16.1442
16.3544
16.5401
16.7043
16.85
16.9794
17.0948
17.1977
17.2898
17.3724
17.4467
17.5137
17.5742
17.629
17.6789
17.7242
17.7657
17.8037
17.8386
17.8708
17.9006
17.9283
17.9541
17.9782
18.0008
18.0221
18.0422
18.0613
18.0795
18.097
18.1137
18.1298
18.1453
18.1604
18.1751
18.1895
18.2035
18.2173
18.2308
18.2442
18.2574
18.2705
18.2835
18.2964
18.3092
18.322
18.3347
18.3473
18.3599
18.3724
18.385
18.3976
18.4103
18.4231
18.436
18.4492
18.4625
18.476
18.4897
18.5037
18.5179
18.5323
18.5469
18.5617
18.5766
18.5916
18.6067
18.6216
18.6365
18.6511
18.6655
18.6794
18.6929
18.7057
18.7178
18.7292
18.7396
18.7491
18.7576
18.7649
18.7711
18.7762
18.78
18.7827
18.7841
18.7845
18.7837
18.782
18.7793
18.7759
18.7719
18.7683
1.84139
1.6697
1.52946
1.4157
1.32537
1.25752
1.21298
1.19428
1.2059
1.25453
1.3495
1.50277
1.72823
2.03963
2.44734
2.95456
3.55469
4.23102
4.95936
5.71237
6.46405
7.19312
7.88439
8.52868
9.12169
9.66264
10.153
10.5957
10.9943
11.3526
11.6744
11.9636
12.2235
12.4573
12.668
12.858
13.0296
13.1848
13.3256
13.4534
13.5697
13.6757
13.7725
13.8611
13.9424
14.0171
14.0859
14.1494
14.2082
14.2626
14.3132
14.3603
14.4043
14.4454
14.484
14.5203
14.5544
14.5867
14.6172
14.6462
14.6738
14.7001
14.7252
14.7492
14.7723
14.7945
14.816
14.8367
14.8567
14.8762
14.8951
14.9135
14.9315
14.949
14.9662
14.983
14.9995
15.0158
15.0317
15.0473
15.0627
15.0779
15.0929
15.1078
15.1225
15.1372
15.1519
15.1666
15.1812
15.1959
15.2107
15.2254
15.2402
15.255
15.2697
15.2845
15.2991
15.3136
15.328
15.3421
15.3558
15.3692
15.3822
15.3945
15.4063
15.4174
15.4277
15.4371
15.4457
15.4533
15.4599
15.4654
15.4699
15.4734
15.4757
15.477
15.4772
15.4765
15.4748
15.4723
15.4692
15.4663
1.83747
1.65774
1.50597
1.37779
1.26982
1.17973
1.10613
1.0485
1.0071
0.982967
0.978021
0.995182
1.03851
1.11327
1.22579
1.383
1.59157
1.8566
2.1803
2.56083
2.99199
3.4637
3.96324
4.47698
4.99198
5.49723
5.98422
6.44713
6.88244
7.28853
7.66513
8.01289
8.33305
8.6272
8.8971
9.1446
9.37152
9.57962
9.77057
9.94591
10.1071
10.2554
10.392
10.5181
10.6345
10.7422
10.842
10.9345
11.0206
11.1007
11.1753
11.2451
11.3103
11.3714
11.4288
11.4827
11.5334
11.5813
11.6266
11.6694
11.71
11.7486
11.7853
11.8203
11.8536
11.8855
11.9161
11.9454
11.9736
12.0007
12.0268
12.052
12.0763
12.0999
12.1227
12.1449
12.1664
12.1874
12.2078
12.2277
12.2471
12.2659
12.2844
12.3024
12.3201
12.3375
12.3546
12.3715
12.3881
12.4046
12.4208
12.4369
12.4529
12.4686
12.4842
12.4997
12.5149
12.5298
12.5445
12.5589
12.5729
12.5865
12.5996
12.6122
12.6242
12.6355
12.6462
12.656
12.6651
12.6733
12.6805
12.6868
12.6921
12.6964
12.6997
12.702
12.7033
12.7036
12.703
12.7015
12.6993
12.6972
1.83635
1.65389
1.49762
1.36332
1.24761
1.14783
1.062
0.988661
0.926848
0.875995
0.835924
0.806832
0.789309
0.784375
0.793528
0.818789
0.862716
0.92835
1.01906
1.13827
1.28904
1.47355
1.69265
1.94546
2.22922
2.53944
2.87029
3.21516
3.56728
3.92031
4.26872
4.60806
4.93501
5.24733
5.54367
5.8234
6.08641
6.33298
6.56364
6.77909
6.98012
7.16757
7.34232
7.50522
7.65713
7.79885
7.93115
8.05474
8.1703
8.27845
8.37975
8.47474
8.5639
8.64769
8.72652
8.80077
8.87079
8.9369
8.9994
9.05856
9.11462
9.16782
9.21837
9.26645
9.31224
9.35591
9.3976
9.43746
9.47561
9.51216
9.54723
9.58092
9.61331
9.64449
9.67454
9.70353
9.73153
9.7586
9.7848
9.81019
9.83481
9.85871
9.88189
9.90436
9.92621
9.94747
9.96819
9.98841
10.0082
10.0275
10.0464
10.065
10.0831
10.1009
10.1184
10.1355
10.1522
10.1686
10.1846
10.2001
10.2152
10.2298
10.2439
10.2574
10.2703
10.2825
10.2941
10.3048
10.3148
10.324
10.3322
10.3396
10.346
10.3514
10.3559
10.3593
10.3618
10.3633
10.3638
10.3635
10.3624
10.3611
1.8361
1.6529
1.49526
1.35888
1.24033
1.13688
1.04634
0.966998
0.8975
0.836801
0.784121
0.738903
0.700795
0.66963
0.645428
0.628393
0.618928
0.617651
0.625408
0.643286
0.672608
0.714903
0.771843
0.845141
0.936407
1.04697
1.17771
1.32885
1.49987
1.68946
1.89555
2.11545
2.34602
2.58391
2.82575
3.06842
3.30912
3.54551
3.77572
3.99838
4.21253
4.41758
4.61321
4.79937
4.97613
5.1437
5.30236
5.45245
5.59435
5.72846
5.85517
5.97491
6.08808
6.19507
6.29627
6.39204
6.48273
6.56867
6.65016
6.72748
6.80091
6.8707
6.93708
7.00027
7.06047
7.11788
7.17267
7.22501
7.27505
7.32294
7.36882
7.4128
7.455
7.49552
7.53448
7.57195
7.60802
7.64278
7.6763
7.70865
7.7399
7.77011
7.79934
7.82764
7.85503
7.88152
7.90717
7.93204
7.95618
7.97963
8.00241
8.02458
8.04614
8.06713
8.08756
8.10744
8.12677
8.14556
8.1638
8.18147
8.19856
8.21505
8.23092
8.24614
8.26066
8.27448
8.28753
8.2998
8.31125
8.32184
8.33153
8.34031
8.34814
8.35501
8.36089
8.36577
8.36965
8.37253
8.37442
8.37535
8.37552
8.37537
1.83605
1.6527
1.49473
1.35782
1.23848
1.13393
1.04192
0.960651
0.888632
0.82467
0.767793
0.717216
0.672311
0.632587
0.597667
0.567277
0.541239
0.519467
0.501959
0.488804
0.480184
0.476377
0.477764
0.484832
0.498176
0.518492
0.546563
0.583231
0.629359
0.685781
0.75324
0.832318
0.923369
1.02647
1.14136
1.26745
1.40383
1.54927
1.70234
1.86143
2.02486
2.19096
2.35813
2.52491
2.69003
2.85241
3.01119
3.16569
3.31543
3.46009
3.59947
3.73348
3.86213
3.98545
4.10356
4.21658
4.32466
4.42798
4.52671
4.62105
4.71117
4.79728
4.87956
4.95821
5.03341
5.10533
5.17417
5.24007
5.30319
5.36369
5.42171
5.47737
5.5308
5.58212
5.63143
5.67885
5.72447
5.76838
5.81066
5.85142
5.89071
5.92862
5.96523
6.00059
6.03476
6.06782
6.09979
6.13069
6.16054
6.18941
6.21735
6.24439
6.27058
6.29595
6.32052
6.34431
6.36735
6.38963
6.41117
6.43197
6.45203
6.47133
6.48986
6.50761
6.52456
6.54068
6.55596
6.57036
6.58387
6.59645
6.60808
6.61874
6.62841
6.63707
6.6447
6.65129
6.65684
6.66135
6.66482
6.66728
6.6689
6.67006
1.83603
1.65264
1.49462
1.3576
1.23811
1.13332
1.04098
0.959246
0.886595
0.821781
0.76377
0.711705
0.664871
0.622675
0.584622
0.550304
0.519386
0.491594
0.466712
0.444572
0.425055
0.408081
0.393614
0.381659
0.372259
0.365503
0.36152
0.360489
0.362632
0.368221
0.377575
0.391057
0.409065
0.432026
0.460379
0.49456
0.534976
0.581988
0.635877
0.696829
0.764907
0.84004
0.922013
1.01046
1.1049
1.20469
1.30914
1.41744
1.52877
1.64227
1.75714
1.87258
1.98787
2.10236
2.2155
2.32681
2.43591
2.5425
2.64637
2.74735
2.84535
2.94032
3.03223
3.12111
3.20698
3.28989
3.36992
3.44712
3.52158
3.59337
3.66257
3.72928
3.79359
3.85556
3.91531
3.97291
4.02845
4.08201
4.13368
4.18354
4.23166
4.27813
4.323
4.36635
4.40825
4.44875
4.48792
4.5258
4.56245
4.59789
4.63211
4.66516
4.69709
4.72792
4.75771
4.78647
4.81424
4.84102
4.86685
4.89172
4.91564
4.93862
4.96065
4.98173
5.00185
5.021
5.03916
5.05632
5.07246
5.08756
5.10162
5.11461
5.12652
5.13734
5.14705
5.15566
5.16316
5.16956
5.17486
5.17908
5.18238
5.18507
1.83602
1.65261
1.49457
1.35754
1.23801
1.13319
1.0408
0.958995
0.886239
0.821274
0.763051
0.710688
0.663449
0.620708
0.581938
0.54669
0.514581
0.485287
0.45853
0.434076
0.411723
0.391305
0.372681
0.355736
0.340378
0.326535
0.314157
0.30321
0.293681
0.285572
0.278905
0.273723
0.270083
0.268068
0.267776
0.26933
0.272873
0.278569
0.2866
0.297167
0.310483
0.326773
0.346262
0.369175
0.395723
0.426098
0.460462
0.49894
0.541607
0.588489
0.639549
0.694691
0.753754
0.81652
0.882713
0.952008
1.02404
1.09842
1.17473
1.25254
1.33145
1.41103
1.49091
1.57073
1.65016
1.72891
1.80673
1.88341
1.95878
2.03269
2.10504
2.17574
2.24476
2.31204
2.37758
2.44137
2.50341
2.56374
2.62235
2.67929
2.73457
2.78824
2.84031
2.89083
2.93982
2.98732
3.03337
3.07799
3.12123
3.16312
3.2037
3.24299
3.281
3.31771
3.35315
3.38734
3.42033
3.45212
3.48274
3.5122
3.54051
3.56768
3.59371
3.61861
3.64236
3.66497
3.68644
3.70674
3.72589
3.74387
3.76067
3.77629
3.79073
3.80398
3.81604
3.82691
3.83661
3.84514
3.85252
3.85877
3.86403
3.86855
1.83602
1.65258
1.49453
1.35749
1.23795
1.13313
1.04073
0.958918
0.886153
0.821175
0.76293
0.710534
0.663244
0.620428
0.581551
0.546153
0.513841
0.484276
0.457165
0.432255
0.409327
0.388188
0.368672
0.350636
0.333951
0.31851
0.304216
0.290989
0.278758
0.267465
0.25706
0.247503
0.238763
0.230816
0.223648
0.217252
0.211627
0.206783
0.202736
0.199511
0.19714
0.195665
0.195138
0.195619
0.197177
0.199891
0.203849
0.209148
0.215891
0.224188
0.234154
0.245906
0.259562
0.275237
0.293041
0.313074
0.335426
0.360169
0.387359
0.417029
0.449188
0.48382
0.520884
0.560309
0.602
0.645836
0.691672
0.739344
0.78867
0.839452
0.891485
0.944558
0.998455
1.05297
1.10788
1.16301
1.21815
1.27315
1.32782
1.38204
1.43568
1.48862
1.54076
1.59202
1.64235
1.69167
1.73995
1.78715
1.83324
1.87821
1.92205
1.96473
2.00626
2.04665
2.08588
2.12393
2.16075
2.19635
2.23072
2.26385
2.29575
2.32642
2.35585
2.38404
2.41098
2.43668
2.46113
2.48433
2.50628
2.52698
2.54643
2.56465
2.58163
2.59739
2.61194
2.6253
2.63748
2.6485
2.65838
2.66717
2.67495
2.68194
1.83601
1.65256
1.4945
1.35744
1.2379
1.13307
1.04068
0.958862
0.886097
0.821119
0.762874
0.710479
0.663188
0.620369
0.581486
0.546077
0.513746
0.484154
0.457003
0.432037
0.409031
0.387791
0.368143
0.349936
0.333036
0.317326
0.302702
0.28907
0.276348
0.264464
0.253353
0.242957
0.233225
0.224112
0.215578
0.207589
0.200113
0.193125
0.186603
0.180527
0.174883
0.169658
0.164845
0.160438
0.156435
0.152837
0.149649
0.146879
0.144537
0.142639
0.141203
0.140252
0.139811
0.139911
0.140587
0.141876
0.143823
0.146471
0.149873
0.154081
0.159152
0.165144
0.172116
0.18013
0.189247
0.199524
0.21102
0.223788
0.237875
0.253323
0.270168
0.288435
0.308141
0.329291
0.351879
0.375888
0.401288
0.428036
0.456079
0.485351
0.515773
0.54726
0.579713
0.61303
0.6471
0.681806
0.717031
0.752652
0.788549
0.824602
0.860692
0.896708
0.93254
0.968087
1.00325
1.03795
1.07213
1.10568
1.13854
1.17063
1.20188
1.23227
1.26174
1.29026
1.31781
1.34438
1.36994
1.39449
1.41801
1.44052
1.46201
1.48249
1.50196
1.52044
1.53793
1.55445
1.57001
1.58463
1.59834
1.61114
1.6231
1.6343
1.83601
1.65254
1.49448
1.35742
1.23787
1.13304
1.04064
0.958826
0.886061
0.821083
0.762838
0.710444
0.663153
0.620336
0.581454
0.546046
0.513716
0.484124
0.456972
0.432004
0.408994
0.387747
0.368088
0.349865
0.332945
0.317207
0.302545
0.288866
0.276084
0.264125
0.25292
0.24241
0.232539
0.223258
0.214524
0.206295
0.198537
0.191216
0.184303
0.177772
0.171597
0.165758
0.160235
0.155011
0.150069
0.145397
0.140981
0.136812
0.132879
0.129176
0.125696
0.122433
0.119385
0.116549
0.113924
0.11151
0.109308
0.107324
0.105559
0.104021
0.102717
0.101657
0.10085
0.100309
0.100049
0.100085
0.100436
0.10112
0.10216
0.103578
0.1054
0.107653
0.110364
0.113563
0.11728
0.121547
0.126395
0.131856
0.137962
0.144742
0.152227
0.160443
0.169416
0.179167
0.189715
0.201075
0.213256
0.226262
0.240094
0.254744
0.270201
0.286446
0.303456
0.321199
0.33964
0.35874
0.378452
0.398728
0.419521
0.440778
0.462436
0.484429
0.506692
0.529156
0.551755
0.574423
0.597094
0.619705
0.642197
0.66451
0.686589
0.708384
0.729844
0.750927
0.771589
0.791794
0.811508
0.8307
0.849344
0.867417
0.884906
0.901769
1.83601
1.65254