/*--------------------------------*- C++ -*----------------------------------*\
  =========                 |
  \\      /  F ield         | OpenFOAM: The Open Source CFD Toolbox
   \\    /   O peration     | Website:  https://openfoam.org
    \\  /    A nd           | Version:  8
     \\/     M anipulation  |
\*---------------------------------------------------------------------------*/
FoamFile
{
    version     2.0;
    format      ascii;
    class       volScalarField;
    location    "1000";
    object      k;
}
// * * * * * * * * * * * * * * * * * * * * * * * * * * * * * * * * * * * * * //

dimensions      [0 2 -2 0 0 0 0];

internalField   nonuniform List<scalar> 
7320
(
6.07652
5.55942
5.24732
5.04165
4.8942
4.78178
4.69211
4.61825
4.55602
4.50265
4.45625
4.41545
4.37924
4.34686
4.31771
4.29132
4.26733
4.24542
4.22534
4.20689
4.18987
4.17415
4.15959
4.14608
4.13352
4.12184
4.11095
4.10079
4.09131
4.08244
4.07415
4.0664
4.05914
4.05234
4.04598
4.04002
4.03444
4.02921
4.02432
4.01974
4.01546
4.01146
4.00773
4.00425
4.00101
3.99799
3.99519
3.99259
3.99019
3.98797
3.98593
3.98406
3.98235
3.9808
3.97939
3.97813
3.977
3.976
3.97513
3.97438
3.97374
3.97322
3.9728
3.97248
3.97227
3.97214
3.97212
3.97217
3.97232
3.97254
3.97284
3.97322
3.97367
3.97419
3.97478
3.97544
3.97616
3.97694
3.97778
3.97869
3.97966
3.98069
3.98178
3.98293
3.98415
3.98543
3.98677
3.98818
3.98964
3.99117
3.99275
3.99439
3.99608
3.99781
3.99959
4.0014
4.00324
4.00509
4.00696
4.00884
4.01071
4.01257
4.01442
4.01624
4.01803
4.01978
4.02149
4.02316
4.02478
4.02634
4.02786
4.02933
4.03075
4.03213
4.03346
4.03476
4.03602
4.03726
4.03849
4.03971
4.04088
4.0421
4.84215
5.67924
5.54001
5.36046
5.21715
5.10399
5.01225
4.93597
4.87129
4.81558
4.76697
4.72412
4.68601
4.65186
4.62109
4.59321
4.56782
4.54462
4.52335
4.50378
4.48573
4.46904
4.45358
4.43924
4.4259
4.41348
4.40191
4.39111
4.38103
4.37161
4.3628
4.35455
4.34683
4.3396
4.33284
4.3265
4.32057
4.31501
4.30982
4.30495
4.30041
4.29616
4.2922
4.28851
4.28507
4.28187
4.2789
4.27615
4.27361
4.27127
4.26911
4.26714
4.26534
4.2637
4.26223
4.2609
4.25972
4.25868
4.25777
4.257
4.25634
4.25581
4.25539
4.25508
4.25487
4.25477
4.25477
4.25486
4.25504
4.2553
4.25565
4.25608
4.25659
4.25717
4.25781
4.25853
4.25931
4.26016
4.26107
4.26204
4.26308
4.26419
4.26536
4.2666
4.26791
4.2693
4.27076
4.27231
4.27393
4.27563
4.27741
4.27926
4.28119
4.28319
4.28524
4.28735
4.2895
4.29169
4.2939
4.29612
4.29833
4.30053
4.30271
4.30483
4.30691
4.30891
4.31084
4.31268
4.31443
4.31607
4.31761
4.31903
4.32034
4.32154
4.32263
4.32362
4.32451
4.32532
4.32605
4.32671
4.32729
4.32782
3.59581
5.0514
5.15997
5.06781
4.96411
4.87324
4.79598
4.72999
4.67307
4.62344
4.57977
4.541
4.50635
4.47517
4.44698
4.42135
4.39797
4.37656
4.35689
4.33877
4.32204
4.30655
4.29219
4.27885
4.26644
4.25488
4.2441
4.23404
4.22464
4.21585
4.20763
4.19994
4.19274
4.186
4.17969
4.17378
4.16824
4.16307
4.15822
4.15369
4.14946
4.14551
4.14182
4.13839
4.1352
4.13223
4.12948
4.12694
4.12459
4.12243
4.12044
4.11863
4.11698
4.11549
4.11414
4.11294
4.11188
4.11094
4.11014
4.10945
4.10889
4.10843
4.10809
4.10785
4.10771
4.10766
4.10771
4.10785
4.10807
4.10837
4.10875
4.10921
4.10973
4.11032
4.11097
4.11168
4.11245
4.11328
4.11416
4.11511
4.11612
4.11719
4.11832
4.11954
4.12083
4.1222
4.12366
4.12521
4.12686
4.12861
4.13046
4.1324
4.13444
4.13656
4.13876
4.14103
4.14335
4.14572
4.1481
4.15049
4.15287
4.15521
4.1575
4.15971
4.16182
4.16381
4.16567
4.16739
4.16893
4.1703
4.17149
4.17249
4.17329
4.1739
4.17431
4.17455
4.17462
4.17452
4.17429
4.17393
4.17345
4.17285
2.74725
4.48339
4.83294
4.83938
4.78111
4.71517
4.65355
4.59832
4.54927
4.50567
4.46677
4.43188
4.40045
4.372
4.34614
4.32254
4.30093
4.28108
4.2628
4.24593
4.23032
4.21585
4.20241
4.18991
4.17828
4.16743
4.15731
4.14786
4.13902
4.13076
4.12302
4.11579
4.10901
4.10267
4.09673
4.09117
4.08597
4.0811
4.07654
4.07229
4.06832
4.06461
4.06115
4.05794
4.05495
4.05218
4.04962
4.04725
4.04506
4.04306
4.04123
4.03955
4.03804
4.03667
4.03545
4.03436
4.0334
4.03257
4.03186
4.03127
4.03079
4.03042
4.03016
4.02999
4.02992
4.02994
4.03006
4.03025
4.03053
4.03088
4.0313
4.03179
4.03235
4.03297
4.03364
4.03437
4.03515
4.03599
4.03688
4.03782
4.03883
4.0399
4.04104
4.04226
4.04356
4.04496
4.04645
4.04806
4.04977
4.0516
4.05355
4.05561
4.05778
4.06006
4.06242
4.06487
4.06737
4.06992
4.07249
4.07505
4.07758
4.08005
4.08244
4.08471
4.08685
4.08882
4.0906
4.09218
4.09352
4.09462
4.09547
4.09605
4.09637
4.09642
4.09622
4.09576
4.09507
4.09417
4.09307
4.09181
4.09041
4.08882
2.10346
3.90602
4.48941
4.61127
4.60898
4.57387
4.53133
4.489
4.44924
4.41265
4.37922
4.34873
4.32092
4.29549
4.27219
4.2508
4.23111
4.21295
4.19616
4.18061
4.16619
4.15279
4.14032
4.12871
4.11788
4.10777
4.09833
4.08951
4.08125
4.07353
4.0663
4.05953
4.05319
4.04725
4.04169
4.03649
4.03163
4.02708
4.02282
4.01885
4.01514
4.01169
4.00847
4.00549
4.00271
4.00015
3.99778
3.99559
3.99358
3.99174
3.99007
3.98855
3.98718
3.98595
3.98485
3.98389
3.98306
3.98234
3.98174
3.98125
3.98087
3.9806
3.98042
3.98034
3.98036
3.98046
3.98065
3.98092
3.98126
3.98167
3.98216
3.9827
3.98331
3.98397
3.98469
3.98546
3.98627
3.98713
3.98805
3.98901
3.99004
3.99113
3.9923
3.99355
3.99489
3.99633
3.99788
3.99955
4.00135
4.00328
4.00533
4.00752
4.00983
4.01225
4.01477
4.01738
4.02005
4.02276
4.02548
4.02818
4.03084
4.03341
4.03587
4.03819
4.04032
4.04225
4.04394
4.04536
4.04651
4.04735
4.04788
4.04808
4.04796
4.04752
4.04676
4.0457
4.04436
4.04277
4.04095
4.03893
4.03676
4.03437
1.61624
3.30894
4.10161
4.35522
4.42201
4.42574
4.40724
4.38106
4.35281
4.32483
4.29808
4.27292
4.24944
4.22762
4.20738
4.18859
4.17115
4.15496
4.13991
4.1259
4.11285
4.10069
4.08934
4.07874
4.06884
4.05958
4.05091
4.0428
4.03521
4.02809
4.02143
4.01519
4.00935
4.00388
3.99875
3.99396
3.98947
3.98528
3.98137
3.97772
3.97431
3.97115
3.9682
3.96547
3.96294
3.96061
3.95846
3.95649
3.95468
3.95303
3.95154
3.95019
3.94899
3.94792
3.94698
3.94616
3.94547
3.94488
3.94441
3.94405
3.94379
3.94363
3.94356
3.94359
3.9437
3.9439
3.94419
3.94454
3.94497
3.94547
3.94603
3.94665
3.94732
3.94805
3.94882
3.94964
3.9505
3.95142
3.95237
3.95338
3.95445
3.95559
3.9568
3.9581
3.95949
3.96099
3.96262
3.96436
3.96625
3.96827
3.97043
3.97274
3.97517
3.97772
3.98038
3.98313
3.98594
3.98878
3.99163
3.99444
3.9972
3.99985
4.00236
4.00469
4.00682
4.00869
4.01029
4.01158
4.01255
4.01316
4.01342
4.01331
4.01282
4.01197
4.01076
4.00922
4.00735
4.0052
4.00281
4.0002
3.99743
3.99442
1.26812
2.7064
3.65726
4.05358
4.20386
4.25636
4.26838
4.26267
4.24897
4.23181
4.21339
4.19484
4.17674
4.15936
4.14285
4.12725
4.11255
4.09875
4.0858
4.07365
4.06226
4.05158
4.04157
4.03219
4.02339
4.01514
4.0074
4.00014
3.99333
3.98694
3.98096
3.97535
3.97009
3.96516
3.96055
3.95624
3.95221
3.94844
3.94493
3.94166
3.93861
3.93579
3.93316
3.93074
3.9285
3.92644
3.92456
3.92283
3.92126
3.91985
3.91857
3.91743
3.91643
3.91555
3.91479
3.91415
3.91362
3.9132
3.91289
3.91267
3.91256
3.91253
3.9126
3.91275
3.91299
3.91331
3.91371
3.91418
3.91471
3.91531
3.91596
3.91667
3.91744
3.91824
3.9191
3.91999
3.92093
3.92191
3.92293
3.92401
3.92514
3.92634
3.92761
3.92897
3.93043
3.93201
3.9337
3.93553
3.93751
3.93962
3.94189
3.94429
3.94684
3.94951
3.95228
3.95514
3.95807
3.96102
3.96397
3.96688
3.96971
3.97242
3.97497
3.97732
3.97943
3.98127
3.9828
3.98399
3.98482
3.98527
3.98532
3.98497
3.98421
3.98305
3.98151
3.97959
3.97734
3.97479
3.97196
3.96892
3.96571
3.96225
1.04443
2.13048
3.15609
3.69382
3.94125
4.05401
4.10457
4.12487
4.12967
4.12622
4.11833
4.10811
4.09673
4.0849
4.07304
4.06139
4.0501
4.03924
4.02888
4.01901
4.00966
4.0008
3.99243
3.98452
3.97707
3.97005
3.96343
3.95721
3.95135
3.94585
3.94068
3.93583
3.93128
3.92702
3.92303
3.9193
3.91581
3.91256
3.90954
3.90672
3.90411
3.90169
3.89946
3.8974
3.89551
3.89379
3.89222
3.8908
3.88952
3.88838
3.88736
3.88648
3.88571
3.88507
3.88453
3.8841
3.88378
3.88356
3.88343
3.8834
3.88345
3.8836
3.88383
3.88414
3.88453
3.88499
3.88553
3.88613
3.8868
3.88752
3.88829
3.88912
3.88999
3.89091
3.89187
3.89286
3.89389
3.89496
3.89607
3.89723
3.89845
3.89973
3.90108
3.90252
3.90407
3.90572
3.9075
3.90942
3.91148
3.91369
3.91604
3.91855
3.92119
3.92395
3.92683
3.92979
3.93281
3.93585
3.93889
3.94187
3.94477
3.94754
3.95013
3.95251
3.95463
3.95646
3.95795
3.95909
3.95984
3.96018
3.96011
3.9596
3.95867
3.95731
3.95555
3.9534
3.95089
3.94806
3.94495
3.94161
3.93812
3.93435
0.919762
1.62589
2.61278
3.26902
3.62244
3.80741
3.90596
3.95917
3.98747
4.00145
4.00694
4.00725
4.00438
3.99954
3.99352
3.98681
3.97977
3.97259
3.96544
3.95842
3.95158
3.94497
3.93862
3.93255
3.92675
3.92124
3.91601
3.91105
3.90637
3.90195
3.89779
3.89387
3.89019
3.88673
3.8835
3.88048
3.87766
3.87504
3.8726
3.87034
3.86826
3.86634
3.86458
3.86297
3.86151
3.86019
3.85901
3.85796
3.85703
3.85622
3.85553
3.85495
3.85448
3.85412
3.85385
3.85368
3.85361
3.85362
3.85373
3.85392
3.85419
3.85454
3.85496
3.85546
3.85604
3.85668
3.85739
3.85816
3.85898
3.85986
3.86079
3.86176
3.86277
3.86382
3.8649
3.86602
3.86717
3.86836
3.86959
3.87086
3.87218
3.87356
3.87502
3.87656
3.87819
3.87995
3.88182
3.88383
3.88598
3.88827
3.89072
3.89331
3.89604
3.8989
3.90186
3.90491
3.90801
3.91113
3.91425
3.91731
3.92027
3.9231
3.92575
3.92817
3.93033
3.93218
3.93368
3.93482
3.93555
3.93587
3.93574
3.93518
3.93416
3.93271
3.93084
3.92857
3.92593
3.92295
3.91968
3.91617
3.9125
3.90855
0.860369
1.23773
2.06198
2.78202
3.23846
3.50547
3.66218
3.75644
3.81442
3.85055
3.87304
3.88674
3.89464
3.89864
3.89999
3.89953
3.89781
3.89526
3.89213
3.88865
3.88496
3.88115
3.87732
3.87351
3.86978
3.86614
3.86262
3.85924
3.856
3.85291
3.84999
3.84721
3.8446
3.84215
3.83984
3.8377
3.8357
3.83384
3.83213
3.83056
3.82912
3.82782
3.82664
3.82558
3.82464
3.82382
3.82311
3.82251
3.82201
3.82161
3.82132
3.82111
3.821
3.82098
3.82105
3.82119
3.82142
3.82173
3.82212
3.82258
3.82311
3.82371
3.82438
3.82511
3.82591
3.82677
3.82769
3.82866
3.82969
3.83075
3.83186
3.83301
3.8342
3.83541
3.83666
3.83793
3.83924
3.84057
3.84194
3.84335
3.8448
3.84631
3.84789
3.84955
3.85131
3.85317
3.85514
3.85725
3.8595
3.86189
3.86443
3.86711
3.86993
3.87286
3.87591
3.87904
3.88222
3.88542
3.88861
3.89175
3.89479
3.89769
3.90041
3.9029
3.90512
3.90704
3.9086
3.90979
3.91057
3.91093
3.91084
3.91029
3.9093
3.90785
3.90598
3.90369
3.90102
3.898
3.89469
3.89112
3.88738
3.88334
0.836787
0.98815
1.55966
2.25312
2.7872
3.13869
3.36248
3.50657
3.60152
3.66555
3.70958
3.74028
3.76187
3.77709
3.78779
3.79521
3.80023
3.80349
3.80544
3.80641
3.80665
3.80636
3.80567
3.8047
3.80353
3.80223
3.80084
3.79941
3.79796
3.79653
3.79514
3.79379
3.7925
3.79127
3.79012
3.78905
3.78806
3.78716
3.78634
3.78562
3.78497
3.78442
3.78395
3.78357
3.78328
3.78307
3.78294
3.78289
3.78292
3.78303
3.78321
3.78347
3.7838
3.7842
3.78467
3.78521
3.78581
3.78648
3.78721
3.788
3.78885
3.78976
3.79072
3.79175
3.79282
3.79395
3.79512
3.79635
3.79761
3.79891
3.80025
3.80162
3.80301
3.80444
3.80588
3.80735
3.80884
3.81036
3.81191
3.81348
3.8151
3.81677
3.8185
3.82031
3.8222
3.82419
3.82629
3.82852
3.83088
3.83337
3.83601
3.83878
3.84169
3.84471
3.84784
3.85105
3.85431
3.8576
3.86087
3.86409
3.86722
3.87022
3.87303
3.87562
3.87794
3.87996
3.88163
3.88293
3.88382
3.88428
3.8843
3.88386
3.88296
3.88161
3.87983
3.87762
3.87502
3.87206
3.86879
3.86525
3.86153
3.85749
0.830413
0.857509
1.16926
1.7285
2.28148
2.70333
2.99742
3.19899
3.33861
3.4372
3.50825
3.56042
3.59936
3.62883
3.65138
3.6688
3.68236
3.69298
3.70133
3.70792
3.71312
3.71725
3.72051
3.72309
3.72514
3.72675
3.72802
3.72903
3.72982
3.73046
3.73097
3.73138
3.73174
3.73204
3.73232
3.73258
3.73285
3.73312
3.73341
3.73373
3.73407
3.73445
3.73486
3.73532
3.73581
3.73635
3.73694
3.73757
3.73826
3.73898
3.73976
3.74059
3.74146
3.74238
3.74335
3.74436
3.74542
3.74653
3.74769
3.74888
3.75013
3.75141
3.75274
3.75412
3.75553
3.75699
3.75848
3.76001
3.76157
3.76316
3.76477
3.76641
3.76807
3.76974
3.77144
3.77315
3.77487
3.77661
3.77838
3.78016
3.78199
3.78385
3.78577
3.78775
3.78981
3.79196
3.79422
3.79658
3.79907
3.80169
3.80444
3.80732
3.81032
3.81344
3.81666
3.81996
3.82332
3.8267
3.83006
3.83338
3.83662
3.83972
3.84265
3.84537
3.84782
3.84998
3.85181
3.85326
3.85432
3.85495
3.85514
3.85488
3.85416
3.85299
3.85137
3.84933
3.84689
3.84407
3.84093
3.8375
3.83388
3.82991
0.831632
0.801461
0.924682
1.27902
1.76057
2.20994
2.5635
2.82478
3.0153
3.15518
3.2594
3.33832
3.39906
3.44651
3.48408
3.51418
3.53856
3.5585
3.57496
3.58866
3.60014
3.60984
3.61808
3.62514
3.63123
3.63651
3.64112
3.64518
3.64878
3.652
3.65489
3.65751
3.65991
3.66212
3.66418
3.66611
3.66793
3.66967
3.67133
3.67294
3.6745
3.67603
3.67754
3.67903
3.68051
3.68198
3.68345
3.68493
3.68641
3.68791
3.68942
3.69094
3.69248
3.69405
3.69563
3.69723
3.69886
3.70051
3.70218
3.70388
3.70561
3.70736
3.70914
3.71095
3.71278
3.71463
3.71651
3.71842
3.72034
3.72229
3.72424
3.72621
3.72819
3.73018
3.73218
3.73418
3.73619
3.73821
3.74024
3.74229
3.74436
3.74647
3.74862
3.75082
3.75309
3.75543
3.75787
3.76041
3.76306
3.76582
3.76871
3.77172
3.77485
3.77808
3.78141
3.78482
3.78828
3.79176
3.79524
3.79868
3.80203
3.80527
3.80835
3.81122
3.81384
3.81618
3.8182
3.81986
3.82113
3.82199
3.82241
3.8224
3.82192
3.821
3.81963
3.81783
3.81562
3.81302
3.81009
3.80685
3.80339
3.79957
0.835915
0.782667
0.803403
0.968303
1.29566
1.69673
2.07275
2.38225
2.62383
2.80953
2.95259
3.06386
3.15146
3.22133
3.27774
3.32383
3.3619
3.39365
3.42038
3.44308
3.46251
3.47926
3.4938
3.50652
3.51771
3.52762
3.53644
3.54435
3.55147
3.55793
3.56381
3.5692
3.57417
3.57876
3.58305
3.58705
3.59082
3.59438
3.59776
3.60098
3.60406
3.60703
3.60989
3.61267
3.61536
3.61799
3.62057
3.62309
3.62557
3.62801
3.63043
3.63282
3.63519
3.63755
3.63989
3.64222
3.64454
3.64687
3.64919
3.65151
3.65383
3.65615
3.65848
3.66082
3.66316
3.66552
3.66788
3.67024
3.67262
3.675
3.67737
3.67975
3.68213
3.6845
3.68687
3.68923
3.6916
3.69396
3.69632
3.69869
3.70107
3.70347
3.7059
3.70838
3.7109
3.71349
3.71616
3.71891
3.72176
3.72471
3.72777
3.73094
3.73422
3.7376
3.74106
3.7446
3.74819
3.75181
3.75542
3.75899
3.7625
3.76589
3.76914
3.77219
3.77502
3.77757
3.77982
3.78173
3.78327
3.7844
3.78512
3.7854
3.78524
3.78462
3.78357
3.78207
3.78017
3.77787
3.77521
3.77223
3.769
3.7654
0.841165
0.780282
0.755
0.801817
0.962762
1.23783
1.56799
1.88853
2.16639
2.39488
2.57903
2.72692
2.8462
2.94318
3.02278
3.08874
3.14394
3.19054
3.23023
3.26431
3.29379
3.31947
3.34199
3.36186
3.37951
3.39527
3.40941
3.42217
3.43374
3.44429
3.45394
3.46281
3.47101
3.47861
3.48568
3.4923
3.4985
3.50435
3.50987
3.51511
3.5201
3.52486
3.52942
3.5338
3.53801
3.54208
3.54603
3.54985
3.55357
3.5572
3.56074
3.56421
3.56761
3.57095
3.57423
3.57747
3.58066
3.58381
3.58693
3.59002
3.59308
3.59611
3.59913
3.60212
3.6051
3.60806
3.61102
3.61395
3.61688
3.6198
3.6227
3.62558
3.62844
3.63129
3.63412
3.63693
3.63972
3.6425
3.64527
3.64804
3.6508
3.65357
3.65635
3.65916
3.66201
3.6649
3.66786
3.67088
3.67398
3.67717
3.68045
3.68383
3.6873
3.69086
3.6945
3.6982
3.70195
3.70573
3.70951
3.71325
3.71693
3.72052
3.72396
3.72723
3.73029
3.7331
3.73562
3.73781
3.73965
3.74111
3.74217
3.7428
3.743
3.74276
3.74207
3.74096
3.73942
3.73748
3.73517
3.73251
3.72958
3.72627
0.846372
0.784571
0.740866
0.731421
0.780818
0.913761
1.13036
1.39676
1.66969
1.92048
2.13792
2.32135
2.47447
2.60211
2.70889
2.79873
2.87484
2.93979
2.99561
3.04393
3.08604
3.12297
3.15556
3.18449
3.2103
3.23346
3.25433
3.27323
3.29043
3.30614
3.32056
3.33383
3.3461
3.35748
3.36808
3.37798
3.38726
3.39598
3.4042
3.41198
3.41935
3.42637
3.43305
3.43944
3.44556
3.45143
3.45709
3.46254
3.46781
3.47292
3.47787
3.48268
3.48736
3.49193
3.49639
3.50075
3.50502
3.5092
3.51331
3.51735
3.52133
3.52525
3.52911
3.53293
3.53669
3.54042
3.5441
3.54775
3.55136
3.55494
3.55848
3.56199
3.56546
3.56889
3.57229
3.57565
3.57898
3.58228
3.58555
3.5888
3.59204
3.59526
3.59848
3.60171
3.60496
3.60824
3.61155
3.61492
3.61834
3.62183
3.6254
3.62904
3.63276
3.63656
3.64042
3.64434
3.6483
3.65228
3.65626
3.66021
3.66411
3.66792
3.6716
3.67512
3.67845
3.68154
3.68437
3.68689
3.68908
3.6909
3.69234
3.69338
3.69399
3.69417
3.69392
3.69323
3.69212
3.6906
3.6887
3.68644
3.68387
3.68091
0.851011
0.791143
0.741126
0.708367
0.70346
0.741579
0.838108
0.996907
1.20263
1.4285
1.65059
1.85477
2.03555
2.19259
2.3279
2.44426
2.54449
2.63115
2.70642
2.77214
2.82983
2.88074
2.9259
2.96617
3.00225
3.03473
3.0641
3.09076
3.11507
3.13731
3.15775
3.17658
3.19401
3.21018
3.22523
3.23928
3.25243
3.26478
3.27641
3.28739
3.29777
3.30762
3.31698
3.3259
3.33441
3.34256
3.35037
3.35787
3.36508
3.37204
3.37875
3.38525
3.39154
3.39764
3.40357
3.40933
3.41495
3.42043
3.42578
3.43101
3.43614
3.44115
3.44608
3.45091
3.45566
3.46033
3.46493
3.46946
3.47392
3.47833
3.48267
3.48695
3.49117
3.49533
3.49943
3.50348
3.50747
3.51142
3.51531
3.51917
3.52298
3.52677
3.53054
3.53429
3.53804
3.5418
3.54557
3.54937
3.5532
3.55708
3.56102
3.565
3.56905
3.57315
3.57731
3.5815
3.58573
3.58998
3.59422
3.59843
3.60259
3.60667
3.61064
3.61445
3.61809
3.62151
3.62468
3.62757
3.63015
3.63239
3.63425
3.63573
3.63681
3.63746
3.63769
3.63749
3.63687
3.63583
3.6344
3.63259
3.63046
3.62792
0.854799
0.797919
0.746862
0.705362
0.677885
0.670753
0.692779
0.753704
0.85933
1.00619
1.18133
1.368
1.55204
1.72458
1.88152
2.02185
2.14624
2.2561
2.35311
2.43889
2.51496
2.58264
2.64307
2.69726
2.74602
2.79009
2.83005
2.86643
2.89966
2.93013
2.95815
2.98401
3.00794
3.03015
3.05083
3.07012
3.08818
3.10513
3.12106
3.13608
3.15026
3.16369
3.17644
3.18855
3.20009
3.21109
3.22162
3.2317
3.24136
3.25065
3.25959
3.2682
3.27651
3.28455
3.29232
3.29986
3.30717
3.31427
3.32118
3.3279
3.33446
3.34086
3.34711
3.35322
3.3592
3.36505
3.37079
3.37643
3.38196
3.38739
3.39272
3.39797
3.40312
3.40819
3.41318
3.41808
3.42289
3.42764
3.43231
3.43692
3.44146
3.44595
3.4504
3.45481
3.45919
3.46355
3.4679
3.47225
3.47661
3.48099
3.48539
3.48983
3.4943
3.4988
3.50334
3.5079
3.51248
3.51707
3.52164
3.52618
3.53067
3.53508
3.53939
3.54355
3.54755
3.55135
3.55492
3.55822
3.56124
3.56393
3.56627
3.56824
3.56982
3.571
3.57176
3.5721
3.57202
3.57152
3.57062
3.56933
3.56769
3.56564
0.857613
0.803838
0.754023
0.710069
0.674015
0.648368
0.636594
0.64348
0.674826
0.73588
0.828724
0.950234
1.09243
1.24518
1.3992
1.54782
1.68713
1.81538
1.93217
2.03791
2.13338
2.21952
2.29731
2.36767
2.43146
2.48942
2.54224
2.59051
2.63474
2.67539
2.71285
2.74747
2.77954
2.80934
2.83709
2.86299
2.88723
2.90997
2.93133
2.95146
2.97045
2.98841
3.00543
3.02158
3.03694
3.05156
3.06552
3.07886
3.09162
3.10385
3.1156
3.12689
3.13775
3.14822
3.15833
3.16809
3.17754
3.18668
3.19555
3.20416
3.21252
3.22066
3.22857
3.23629
3.24382
3.25116
3.25834
3.26536
3.27222
3.27894
3.28553
3.29198
3.29831
3.30451
3.31059
3.31656
3.32242
3.32816
3.3338
3.33935
3.34481
3.35018
3.35548
3.3607
3.36588
3.371
3.37608
3.38113
3.38616
3.39118
3.3962
3.40121
3.40624
3.41127
3.4163
3.42134
3.42638
3.43141
3.43642
3.44138
3.44628
3.45111
3.45583
3.46041
3.46484
3.46909
3.47311
3.47689
3.48039
3.48359
3.48646
3.48897
3.49111
3.49286
3.49421
3.49514
3.49566
3.49575
3.49544
3.49472
3.49365
3.49215
0.859482
0.808378
0.760626
0.716973
0.678334
0.645749
0.620512
0.604371
0.599722
0.609658
0.637654
0.686738
0.758296
0.851094
0.961178
1.08279
1.20982
1.33698
1.46042
1.57773
1.68765
1.78972
1.88396
1.9707
2.05043
2.12369
2.19105
2.25304
2.31019
2.36296
2.41178
2.45704
2.49907
2.5382
2.57469
2.6088
2.64074
2.6707
2.69887
2.7254
2.75043
2.77409
2.79649
2.81774
2.83791
2.85711
2.8754
2.89286
2.90954
2.92549
2.94079
2.95546
2.96955
2.9831
2.99615
3.00874
3.02088
3.03261
3.04396
3.05494
3.06559
3.07591
3.08594
3.09568
3.10516
3.11439
3.12337
3.13214
3.14069
3.14904
3.15719
3.16516
3.17296
3.18059
3.18805
3.19536
3.20252
3.20952
3.21638
3.22311
3.22971
3.23619
3.24256
3.24882
3.25499
3.26108
3.26709
3.27303
3.27892
3.28476
3.29056
3.29633
3.30207
3.30778
3.31348
3.31914
3.32478
3.33039
3.33595
3.34146
3.3469
3.35224
3.35748
3.36259
3.36754
3.37231
3.37687
3.38119
3.38525
3.38902
3.39248
3.3956
3.39836
3.40074
3.40273
3.40431
3.40548
3.40623
3.40656
3.40649
3.40604
3.40517
0.860565
0.811411
0.765711
0.723439
0.684828
0.650242
0.620147
0.595142
0.57603
0.563904
0.56022
0.566795
0.585676
0.618805
0.66751
0.731993
0.811019
0.902008
1.00149
1.10577
1.21146
1.31586
1.41705
1.51381
1.60547
1.69173
1.77257
1.84814
1.91867
1.98447
2.04585
2.10313
2.15664
2.20668
2.25352
2.29744
2.33866
2.37742
2.4139
2.44831
2.48079
2.51151
2.5406
2.56819
2.5944
2.61931
2.64304
2.66567
2.68727
2.70792
2.72768
2.74662
2.76478
2.78223
2.799
2.81514
2.8307
2.8457
2.86018
2.87417
2.8877
2.9008
2.9135
2.92581
2.93775
2.94935
2.96063
2.9716
2.98228
2.99269
3.00283
3.01272
3.02237
3.0318
3.041
3.04999
3.05879
3.06738
3.07579
3.08401
3.09205
3.09993
3.10765
3.11522
3.12266
3.12997
3.13716
3.14424
3.15122
3.15812
3.16493
3.17166
3.17833
3.18494
3.19148
3.19797
3.2044
3.21076
3.21705
3.22326
3.22938
3.2354
3.24129
3.24705
3.25264
3.25805
3.26325
3.26822
3.27294
3.27737
3.2815
3.2853
3.28875
3.29183
3.29453
3.29682
3.29871
3.30018
3.30122
3.30185
3.30209
3.30192
0.861099
0.813133
0.76901
0.728261
0.690673
0.656203
0.624916
0.596953
0.57254
0.551996
0.535764
0.524447
0.518835
0.519919
0.528854
0.546863
0.575059
0.614217
0.664541
0.725514
0.795886
0.87382
0.957145
1.04364
1.13129
1.21842
1.30375
1.3864
1.4658
1.54163
1.61374
1.68211
1.74682
1.80798
1.86575
1.92031
1.97184
2.02055
2.0666
2.11017
2.15144
2.19056
2.22768
2.26294
2.29646
2.32836
2.35876
2.38776
2.41545
2.44191
2.46724
2.49149
2.51475
2.53706
2.5585
2.57911
2.59895
2.61806
2.63649
2.65427
2.67145
2.68805
2.70411
2.71966
2.73473
2.74934
2.76351
2.77728
2.79065
2.80366
2.81631
2.82863
2.84063
2.85233
2.86373
2.87485
2.88571
2.89631
2.90666
2.91677
2.92664
2.93629
2.94573
2.95497
2.96401
2.97287
2.98157
2.9901
2.99848
3.00672
3.01483
3.02282
3.03069
3.03845
3.0461
3.05366
3.06111
3.06845
3.07569
3.08282
3.08983
3.09671
3.10344
3.11002
3.11641
3.12262
3.12861
3.13436
3.13985
3.14506
3.14997
3.15455
3.15879
3.16266
3.16615
3.16924
3.17192
3.17418
3.17601
3.17742
3.17843
3.17903
0.861317
0.813942
0.770775
0.731184
0.694718
0.661081
0.630095
0.601662
0.575754
0.552397
0.531673
0.513721
0.498751
0.487049
0.478999
0.475087
0.475905
0.482135
0.494503
0.513718
0.540366
0.574817
0.61712
0.666952
0.72361
0.786067
0.853079
0.923307
0.99544
1.06829
1.14087
1.21238
1.28223
1.35001
1.41546
1.47841
1.53881
1.59663
1.6519
1.70469
1.75507
1.80315
1.84902
1.8928
1.93459
1.9745
2.01264
2.0491
2.08398
2.11738
2.14937
2.18005
2.20947
2.23773
2.26488
2.29098
2.31611
2.3403
2.36363
2.38612
2.40783
2.4288
2.44907
2.46868
2.48766
2.50604
2.52386
2.54114
2.55791
2.57419
2.59002
2.6054
2.62036
2.63492
2.6491
2.66291
2.67637
2.6895
2.7023
2.71479
2.72698
2.73888
2.7505
2.76184
2.77293
2.78377
2.79437
2.80475
2.81492
2.82489
2.83467
2.84426
2.85368
2.86294
2.87203
2.88097
2.88975
2.89838
2.90685
2.91517
2.92333
2.93132
2.93913
2.94676
2.95417
2.96137
2.96834
2.97505
2.98149
2.98763
2.99347
2.99897
3.00412
3.0089
3.01329
3.01728
3.02085
3.024
3.0267
3.02897
3.03084
3.03229
0.861389
0.814244
0.77153
0.732597
0.696917
0.664079
0.633769
0.605753
0.579862
0.555979
0.53403
0.513979
0.495828
0.479611
0.4654
0.453309
0.443493
0.436161
0.431574
0.430052
0.431968
0.437737
0.4478
0.462586
0.482476
0.507758
0.538578
0.574904
0.616511
0.662979
0.713718
0.768008
0.825061
0.884069
0.944259
1.00493
1.06548
1.12542
1.18435
1.242
1.29815
1.35266
1.40546
1.45649
1.50575
1.55324
1.59899
1.64303
1.68542
1.72621
1.76546
1.80323
1.83959
1.8746
1.90831
1.9408
1.97212
2.00232
2.03146
2.0596
2.08676
2.11302
2.1384
2.16296
2.18673
2.20974
2.23204
2.25366
2.27464
2.29499
2.31475
2.33395
2.35261
2.37075
2.3884
2.40558
2.42231
2.4386
2.45447
2.46994
2.48503
2.49975
2.51411
2.52812
2.5418
2.55514
2.56818
2.58091
2.59336
2.60553
2.61743
2.62908
2.64049
2.65166
2.6626
2.67332
2.68383
2.69411
2.70419
2.71405
2.72369
2.73312
2.74231
2.75128
2.75999
2.76845
2.77664
2.78455
2.79215
2.79944
2.80639
2.81299
2.81922
2.82506
2.8305
2.83552
2.84012
2.84427
2.84796
2.85121
2.85403
2.85644
0.861406
0.814329
0.771776
0.733121
0.697834
0.665476
0.635686
0.608168
0.582682
0.559037
0.53708
0.516692
0.497782
0.480288
0.464168
0.449403
0.435996
0.423969
0.413369
0.404262
0.396745
0.390937
0.38699
0.385084
0.385432
0.38827
0.393857
0.402461
0.414344
0.429748
0.448872
0.471851
0.49874
0.5295
0.563987
0.601961
0.643088
0.68696
0.733121
0.781087
0.830372
0.880512
0.93108
0.981696
1.03204
1.08185
1.1309
1.17905
1.22616
1.27216
1.31699
1.36062
1.40302
1.4442
1.48416
1.52292
1.5605
1.59691
1.6322
1.6664
1.69953
1.73164
1.76276
1.79292
1.82217
1.85055
1.87807
1.90479
1.93073
1.95592
1.98039
2.00417
2.02729
2.04977
2.07164
2.09293
2.11364
2.13381
2.15346
2.17261
2.19127
2.20946
2.2272
2.24451
2.26139
2.27787
2.29395
2.30964
2.32495
2.3399
2.35449
2.36875
2.38267
2.39628
2.40958
2.42257
2.43526
2.44767
2.45979
2.47162
2.48316
2.49442
2.50538
2.51605
2.52641
2.53646
2.54619
2.55558
2.56463
2.57332
2.58164
2.58956
2.59709
2.60419
2.61087
2.6171
2.62288
2.62818
2.63302
2.63737
2.64129
2.64479
0.861407
0.814342
0.77183
0.73326
0.698113
0.665954
0.636417
0.609191
0.584014
0.560665
0.538959
0.518737
0.499869
0.482247
0.46578
0.450397
0.43604
0.422666
0.410246
0.398762
0.388209
0.378592
0.36993
0.362255
0.355609
0.350053
0.345657
0.342512
0.340722
0.340409
0.341708
0.344772
0.349758
0.356833
0.366159
0.37789
0.392165
0.409092
0.428747
0.45116
0.476313
0.504137
0.534507
0.567251
0.602151
0.638956
0.677387
0.717154
0.757961
0.799522
0.841565
0.88384
0.926126
0.96823
1.00999
1.05127
1.09196
1.13199
1.17128
1.2098
1.24751
1.28439
1.32042
1.35562
1.38997
1.42348
1.45617
1.48803
1.51909
1.54936
1.57885
1.6076
1.6356
1.66289
1.68949
1.71541
1.74068
1.76532
1.78934
1.81276
1.83561
1.8579
1.87964
1.90086
1.92157
1.94178
1.9615
1.98076
1.99956
2.01791
2.0358
2.05326
2.07029
2.0869
2.10311
2.11893
2.13435
2.1494
2.16406
2.17835
2.19227
2.20581
2.21898
2.23178
2.24419
2.25622
2.26785
2.27909
2.28991
2.30031
2.31029
2.31982
2.3289
2.33752
2.34566
2.35332
2.36049
2.36716
2.37332
2.37897
2.38416
2.38892
0.861405
0.814337
0.771831
0.733277
0.698164
0.666062
0.636607
0.60949
0.584448
0.561253
0.53971
0.519653
0.500935
0.483431
0.467033
0.451647
0.437194
0.423603
0.410816
0.398785
0.387468
0.376832
0.366852
0.357508
0.348789
0.340687
0.333204
0.326348
0.32013
0.314572
0.309702
0.305553
0.30217
0.299604
0.297914
0.29717
0.297449
0.298836
0.301424
0.305311
0.310599
0.317392
0.325788
0.335883
0.347762
0.361495
0.377137
0.394719
0.41425
0.43571
0.459055
0.484211
0.511078
0.539534
0.569435
0.600621
0.632922
0.66616
0.700157
0.734737
0.769732
0.804985
0.840349
0.875695
0.910908
0.945889
0.980554
1.01483
1.04867
1.08203
1.11486
1.14715
1.17888
1.21003
1.24059
1.27057
1.29996
1.32876
1.35696
1.38459
1.41163
1.4381
1.464
1.48933
1.5141
1.53833
1.56201
1.58517
1.60779
1.6299
1.6515
1.6726
1.6932
1.71329
1.73288
1.75198
1.7706
1.78874
1.80641
1.82361
1.84034
1.85661
1.87241
1.88774
1.9026
1.91699
1.93091
1.94434
1.95729
1.96974
1.98169
1.99314
2.00408
2.0145
2.0244
2.03377
2.0426
2.0509
2.05865
2.06587
2.07259
2.07887
0.861402
0.814329
0.77182
0.733266
0.698157
0.666065
0.636627
0.609537
0.584532
0.561385
0.539902
0.519913
0.50127
0.483846
0.467525
0.45221
0.437813
0.424257
0.411474
0.399403
0.387993
0.377196
0.366972
0.357284
0.348103
0.339402
0.331157
0.323351
0.315968
0.308997
0.302429
0.296259
0.290486
0.285112
0.28014
0.275581
0.271445
0.267749
0.264512
0.261758
0.259514
0.257813
0.256693
0.256195
0.256365
0.257255
0.25892
0.261418
0.264812
0.269165
0.274542
0.281005
0.288617
0.297435
0.307512
0.318892
0.33161
0.345692
0.361151
0.377984
0.396179
0.415706
0.436522
0.458569
0.481778
0.506067
0.531346
0.557515
0.58447
0.612102
0.640304
0.668965
0.697982
0.727251
0.756677
0.786172
0.815654
0.845049
0.874292
0.903325
0.932098
0.96057
0.988703
1.01647
1.04384
1.0708
1.09733
1.12342
1.14905
1.17422
1.19892
1.22315
1.2469
1.27017
1.29295
1.31522
1.33698
1.35822
1.37893
1.39911
1.41877
1.4379
1.4565
1.47456
1.49208
1.50906
1.52551
1.54141
1.55676
1.57156
1.58582
1.59952
1.61268
1.62528
1.63732
1.64882
1.65976
1.67014
1.67998
1.68927
1.69805
1.70638
0.8614
0.814321
0.77181
0.733253
0.698143
0.66605
0.636614
0.609527
0.584528
0.561391
0.53992
0.519948
0.501326
0.483926
0.467634
0.45235
0.437986
0.424462
0.411709
0.399665
0.388273
0.377484
0.367254
0.35754
0.348309
0.339526
0.331164
0.323195
0.315596
0.308347
0.301429
0.294824
0.288519
0.282502
0.27676
0.271286
0.266072
0.261112
0.256403
0.251941
0.247725
0.243758
0.24004
0.236576
0.233372
0.230436
0.227777
0.225408
0.223341
0.221593
0.220182
0.219128
0.218455
0.218189
0.218358
0.218992
0.220126
0.221793
0.224031
0.226878
0.230375
0.234562
0.239479
0.245165
0.251658
0.258995
0.267208
0.276326
0.286374
0.29737
0.309327
0.322251
0.336142
0.350991
0.366781
0.383488
0.40108
0.419518
0.438756
0.458742
0.479418
0.500721
0.522586
0.544944
0.567724
0.590856
0.614268
0.63789
0.661656
0.685499
0.709358
0.733175
0.756896
0.780471
0.803857
0.827013
0.84991
0.872511
0.894777
0.916677
0.938189
0.959294
0.979977
1.00022
1.02003
1.03938
1.05826
1.07668
1.09463
1.1121
1.12909
1.1456
1.16162
1.17716
1.19221
1.20677
1.22083
1.2344
1.24748
1.26006
1.27217
1.28382
0.861399
0.814317
0.771804
0.733245
0.698133
0.666039
0.636602
0.609515
0.584516
0.561379
0.53991
0.51994
0.501322
0.483926
0.46764
0.452363
0.438006
0.424492
0.411749
0.399716
0.388335
0.377557
0.367336
0.357631
0.348405
0.339624
0.331258
0.323279
0.315662
0.308383
0.301421
0.294758
0.288376
0.282259
0.276392
0.270762
0.265357
0.260167
0.25518
0.250389
0.245786
0.241362
0.237113
0.233033
0.229117
0.225362
0.221764
0.218323
0.215035
0.211901
0.208922
0.206097
0.20343
0.200923
0.198581
0.196407
0.194407
0.192589
0.19096
0.18953
0.188308
0.187306
0.186537
0.186015
0.185756
0.185776
0.186095
0.186731
0.187706
0.189043
0.190766
0.192899
0.195469
0.198503
0.202026
0.206068
0.210655
0.215815
0.221573
0.227954
0.234983
0.24268
0.251064
0.260152
0.269955
0.280482
0.291739
0.303726
0.316437
0.329864
0.343994
0.358806
0.374279
0.390383
0.407086
0.424353
0.442144