/*--------------------------------*- C++ -*----------------------------------*\
  =========                 |
  \\      /  F ield         | OpenFOAM: The Open Source CFD Toolbox
   \\    /   O peration     | Website:  https://openfoam.org
    \\  /    A nd           | Version:  8
     \\/     M anipulation  |
\*---------------------------------------------------------------------------*/
FoamFile
{
    version     2.0;
    format      ascii;
    class       volScalarField;
    location    "1000";
    object      nut;
}
// * * * * * * * * * * * * * * * * * * * * * * * * * * * * * * * * * * * * * //

dimensions      [0 2 -1 0 0 0 0];

internalField   nonuniform List<scalar> 
7320
(
0.000286299
0.000273847
0.000266049
0.000260783
0.000256941
0.000253973
0.00025158
0.000249592
0.000247905
0.000246449
0.000245176
0.000244051
0.000243048
0.000242148
0.000241334
0.000240596
0.000239922
0.000239306
0.000238739
0.000238217
0.000237735
0.000237288
0.000236874
0.000236489
0.000236131
0.000235797
0.000235485
0.000235194
0.000234922
0.000234667
0.000234429
0.000234206
0.000233997
0.000233801
0.000233617
0.000233445
0.000233284
0.000233132
0.000232991
0.000232858
0.000232734
0.000232618
0.00023251
0.000232409
0.000232315
0.000232227
0.000232146
0.000232071
0.000232001
0.000231936
0.000231877
0.000231823
0.000231773
0.000231728
0.000231687
0.00023165
0.000231617
0.000231588
0.000231563
0.000231541
0.000231522
0.000231507
0.000231495
0.000231485
0.000231479
0.000231476
0.000231475
0.000231477
0.000231481
0.000231487
0.000231496
0.000231507
0.00023152
0.000231536
0.000231553
0.000231572
0.000231593
0.000231615
0.00023164
0.000231666
0.000231694
0.000231723
0.000231755
0.000231788
0.000231823
0.00023186
0.000231899
0.000231939
0.000231982
0.000232026
0.000232073
0.000232121
0.00023217
0.000232221
0.000232274
0.000232328
0.000232382
0.000232438
0.000232494
0.000232551
0.000232607
0.000232663
0.000232719
0.000232774
0.000232829
0.000232882
0.000232933
0.000232983
0.000233032
0.000233078
0.000233123
0.000233165
0.000233206
0.000233245
0.000233281
0.000233316
0.00023335
0.000233382
0.000233413
0.000233442
0.00023347
0.000233498
0.000562815
0.000740638
0.000767571
0.000767651
0.000763096
0.000757975
0.000753148
0.000748779
0.000744861
0.00074135
0.000738193
0.000735345
0.000732764
0.000730416
0.000728271
0.000726307
0.000724501
0.000722838
0.000721301
0.000719879
0.00071856
0.000717334
0.000716194
0.000715131
0.00071414
0.000713215
0.00071235
0.000711541
0.000710784
0.000710076
0.000709412
0.00070879
0.000708208
0.000707662
0.000707151
0.000706672
0.000706223
0.000705803
0.000705411
0.000705043
0.000704701
0.000704381
0.000704083
0.000703806
0.000703548
0.000703309
0.000703088
0.000702884
0.000702696
0.000702524
0.000702366
0.000702223
0.000702093
0.000701976
0.000701872
0.00070178
0.000701699
0.000701629
0.00070157
0.000701521
0.000701481
0.000701452
0.000701431
0.000701419
0.000701416
0.000701421
0.000701434
0.000701454
0.00070148
0.000701514
0.000701553
0.000701599
0.00070165
0.000701707
0.000701768
0.000701834
0.000701904
0.000701979
0.000702058
0.000702142
0.000702231
0.000702326
0.000702427
0.000702535
0.00070265
0.000702775
0.000702908
0.000703051
0.000703205
0.00070337
0.000703546
0.000703734
0.000703932
0.00070414
0.000704357
0.000704582
0.000704813
0.000705049
0.000705287
0.000705524
0.000705759
0.000705989
0.000706211
0.000706422
0.000706619
0.0007068
0.000706963
0.000707105
0.000707224
0.00070732
0.000707389
0.000707433
0.000707449
0.000707439
0.000707402
0.00070734
0.000707254
0.000707145
0.000707017
0.00070687
0.00070671
0.000706526
0.00076108
0.00115457
0.00127125
0.00130573
0.00131552
0.00131688
0.00131508
0.00131204
0.00130855
0.00130497
0.00130147
0.00129811
0.00129493
0.00129193
0.00128913
0.0012865
0.00128405
0.00128176
0.00127961
0.00127761
0.00127574
0.00127398
0.00127234
0.0012708
0.00126936
0.00126801
0.00126674
0.00126555
0.00126444
0.0012634
0.00126242
0.0012615
0.00126064
0.00125983
0.00125908
0.00125837
0.00125771
0.0012571
0.00125652
0.00125599
0.00125549
0.00125502
0.00125459
0.0012542
0.00125383
0.00125349
0.00125318
0.0012529
0.00125264
0.0012524
0.00125219
0.001252
0.00125184
0.00125169
0.00125157
0.00125146
0.00125137
0.0012513
0.00125124
0.00125121
0.00125118
0.00125118
0.00125118
0.00125121
0.00125124
0.00125129
0.00125135
0.00125143
0.00125151
0.00125161
0.00125171
0.00125182
0.00125194
0.00125207
0.0012522
0.00125234
0.00125248
0.00125263
0.00125279
0.00125295
0.00125313
0.00125331
0.00125351
0.00125372
0.00125395
0.0012542
0.00125447
0.00125477
0.00125509
0.00125544
0.00125583
0.00125624
0.00125667
0.00125714
0.00125763
0.00125813
0.00125865
0.00125918
0.00125971
0.00126024
0.00126075
0.00126124
0.0012617
0.00126212
0.0012625
0.00126282
0.00126309
0.00126329
0.00126341
0.00126346
0.00126343
0.00126332
0.00126312
0.00126284
0.00126248
0.00126205
0.00126154
0.00126096
0.00126033
0.00125965
0.00125893
0.00125814
0.00094219
0.00154866
0.00180331
0.00190635
0.0019512
0.00197187
0.00198147
0.00198555
0.00198668
0.00198617
0.00198472
0.00198276
0.00198051
0.00197813
0.00197571
0.00197331
0.00197095
0.00196867
0.00196648
0.00196438
0.00196238
0.00196047
0.00195867
0.00195695
0.00195534
0.00195381
0.00195237
0.00195101
0.00194973
0.00194852
0.00194739
0.00194633
0.00194534
0.0019444
0.00194353
0.00194272
0.00194196
0.00194125
0.0019406
0.00193999
0.00193943
0.00193891
0.00193844
0.001938
0.00193761
0.00193725
0.00193693
0.00193664
0.00193638
0.00193616
0.00193597
0.0019358
0.00193567
0.00193556
0.00193548
0.00193542
0.00193539
0.00193538
0.0019354
0.00193543
0.00193549
0.00193557
0.00193567
0.00193578
0.00193592
0.00193608
0.00193625
0.00193643
0.00193663
0.00193685
0.00193707
0.0019373
0.00193755
0.0019378
0.00193806
0.00193832
0.00193859
0.00193886
0.00193914
0.00193944
0.00193974
0.00194007
0.00194041
0.00194078
0.00194118
0.00194162
0.0019421
0.00194263
0.00194321
0.00194384
0.00194453
0.00194527
0.00194607
0.00194691
0.00194779
0.00194871
0.00194965
0.00195061
0.00195156
0.00195249
0.0019534
0.00195426
0.00195505
0.00195576
0.00195638
0.00195688
0.00195726
0.0019575
0.00195759
0.00195752
0.00195729
0.00195689
0.00195631
0.00195557
0.00195467
0.00195361
0.00195241
0.00195107
0.00194962
0.00194807
0.00194645
0.0019447
0.00110978
0.00189233
0.00232606
0.0025368
0.00264438
0.00270313
0.00273713
0.00275765
0.00277031
0.00277817
0.00278296
0.00278574
0.00278718
0.00278769
0.00278758
0.00278703
0.00278618
0.00278514
0.00278397
0.00278273
0.00278144
0.00278014
0.00277885
0.00277758
0.00277634
0.00277515
0.002774
0.0027729
0.00277185
0.00277085
0.00276991
0.00276903
0.0027682
0.00276742
0.00276669
0.00276602
0.0027654
0.00276483
0.00276431
0.00276383
0.0027634
0.00276301
0.00276267
0.00276237
0.00276211
0.00276189
0.00276171
0.00276157
0.00276146
0.00276138
0.00276134
0.00276134
0.00276136
0.00276141
0.0027615
0.00276161
0.00276175
0.00276192
0.00276211
0.00276233
0.00276258
0.00276285
0.00276314
0.00276345
0.00276379
0.00276415
0.00276453
0.00276493
0.00276534
0.00276576
0.0027662
0.00276665
0.0027671
0.00276756
0.00276803
0.0027685
0.00276897
0.00276945
0.00276993
0.00277043
0.00277094
0.00277148
0.00277204
0.00277265
0.0027733
0.00277402
0.0027748
0.00277565
0.00277659
0.00277761
0.00277872
0.00277992
0.0027812
0.00278256
0.00278399
0.00278547
0.00278698
0.00278852
0.00279005
0.00279154
0.00279299
0.00279434
0.00279559
0.0027967
0.00279764
0.00279839
0.00279892
0.00279922
0.00279926
0.00279903
0.00279852
0.00279772
0.00279663
0.00279526
0.00279361
0.0027917
0.00278954
0.00278715
0.00278458
0.00278183
0.00277897
0.00277588
0.00129926
0.00216764
0.00280717
0.00316585
0.00336954
0.00349116
0.00356775
0.00361825
0.00365279
0.00367709
0.00369457
0.00370734
0.00371679
0.00372385
0.00372913
0.0037331
0.00373607
0.00373829
0.00373993
0.00374111
0.00374196
0.00374253
0.0037429
0.00374312
0.00374321
0.00374322
0.00374316
0.00374305
0.00374291
0.00374276
0.0037426
0.00374244
0.00374229
0.00374215
0.00374203
0.00374193
0.00374186
0.00374181
0.00374178
0.00374179
0.00374182
0.00374188
0.00374198
0.0037421
0.00374226
0.00374245
0.00374266
0.00374291
0.00374319
0.00374349
0.00374383
0.00374419
0.00374459
0.00374501
0.00374546
0.00374593
0.00374643
0.00374696
0.00374751
0.00374809
0.00374869
0.00374932
0.00374997
0.00375065
0.00375134
0.00375206
0.0037528
0.00375356
0.00375433
0.00375511
0.0037559
0.00375669
0.0037575
0.0037583
0.0037591
0.0037599
0.0037607
0.00376149
0.0037623
0.00376311
0.00376394
0.0037648
0.00376569
0.00376665
0.00376766
0.00376876
0.00376996
0.00377126
0.00377269
0.00377423
0.00377591
0.00377772
0.00377966
0.0037817
0.00378385
0.00378608
0.00378836
0.00379067
0.00379297
0.00379523
0.0037974
0.00379944
0.00380131
0.00380297
0.00380438
0.00380549
0.00380627
0.00380668
0.00380671
0.00380632
0.0038055
0.00380423
0.00380252
0.00380037
0.00379779
0.0037948
0.00379142
0.00378769
0.00378365
0.00377935
0.00377487
0.00377003
0.00158937
0.00236976
0.00321596
0.00375923
0.00409609
0.00431112
0.00445413
0.00455312
0.00462407
0.00467641
0.00471597
0.00474649
0.00477044
0.00478951
0.00480489
0.00481744
0.00482777
0.00483636
0.00484356
0.00484964
0.00485482
0.00485926
0.00486309
0.00486643
0.00486936
0.00487194
0.00487424
0.0048763
0.00487816
0.00487986
0.00488143
0.00488288
0.00488423
0.00488551
0.00488672
0.00488788
0.004889
0.00489009
0.00489115
0.00489219
0.00489322
0.00489424
0.00489526
0.00489627
0.00489728
0.0048983
0.00489932
0.00490036
0.0049014
0.00490245
0.00490351
0.00490459
0.00490569
0.00490679
0.00490791
0.00490905
0.00491021
0.00491138
0.00491257
0.00491377
0.00491499
0.00491623
0.00491749
0.00491877
0.00492006
0.00492138
0.0049227
0.00492404
0.00492539
0.00492674
0.00492809
0.00492945
0.00493079
0.00493213
0.00493346
0.00493478
0.00493608
0.00493737
0.00493866
0.00493996
0.00494127
0.00494261
0.00494399
0.00494544
0.00494698
0.00494863
0.0049504
0.00495233
0.00495441
0.00495666
0.0049591
0.00496172
0.00496452
0.00496747
0.00497057
0.00497379
0.00497709
0.00498043
0.00498375
0.00498702
0.00499017
0.00499315
0.00499588
0.00499831
0.00500039
0.00500204
0.00500323
0.00500389
0.00500399
0.00500349
0.00500237
0.0050006
0.00499819
0.00499513
0.00499144
0.00498714
0.00498227
0.00497688
0.00497103
0.00496476
0.00495821
0.00495113
0.00212976
0.00251869
0.00352583
0.00427893
0.00478634
0.00512981
0.00536872
0.00554022
0.00566706
0.00576335
0.00583815
0.00589739
0.00594512
0.00598413
0.00601645
0.00604352
0.00606643
0.00608601
0.00610287
0.00611753
0.00613035
0.00614164
0.00615166
0.00616061
0.00616864
0.00617589
0.00618248
0.00618849
0.00619402
0.00619911
0.00620384
0.00620825
0.00621237
0.00621626
0.00621993
0.00622341
0.00622672
0.00622989
0.00623294
0.00623587
0.00623871
0.00624146
0.00624414
0.00624675
0.0062493
0.0062518
0.00625425
0.00625667
0.00625905
0.00626141
0.00626374
0.00626605
0.00626834
0.00627062
0.00627288
0.00627514
0.00627738
0.00627963
0.00628186
0.0062841
0.00628633
0.00628857
0.00629081
0.00629305
0.0062953
0.00629755
0.00629981
0.00630206
0.00630431
0.00630655
0.00630877
0.00631098
0.00631317
0.00631533
0.00631747
0.00631957
0.00632164
0.00632369
0.00632572
0.00632774
0.00632976
0.00633182
0.00633392
0.0063361
0.00633838
0.0063408
0.00634338
0.00634615
0.00634913
0.00635234
0.00635579
0.00635948
0.00636341
0.00636756
0.00637191
0.00637642
0.00638105
0.00638574
0.00639043
0.00639505
0.00639951
0.00640374
0.00640766
0.00641117
0.00641419
0.00641665
0.00641847
0.00641958
0.00641991
0.00641941
0.00641805
0.0064158
0.00641264
0.00640857
0.00640362
0.0063978
0.00639117
0.00638378
0.00637571
0.00636703
0.00635792
0.00634803
0.0031541
0.00268382
0.00372393
0.00468584
0.00539542
0.00590413
0.0062731
0.00654666
0.00675434
0.00691556
0.00704326
0.00714624
0.00723059
0.00730064
0.00735953
0.00740958
0.00745254
0.00748974
0.00752221
0.00755076
0.00757604
0.00759856
0.00761874
0.00763694
0.00765342
0.00766842
0.00768215
0.00769477
0.00770641
0.00771719
0.00772723
0.0077366
0.00774538
0.00775364
0.00776144
0.00776882
0.00777582
0.0077825
0.00778887
0.00779497
0.00780084
0.00780648
0.00781192
0.00781719
0.00782229
0.00782724
0.00783206
0.00783676
0.00784134
0.00784583
0.00785023
0.00785454
0.00785877
0.00786294
0.00786704
0.00787108
0.00787507
0.00787902
0.00788292
0.00788678
0.00789061
0.0078944
0.00789817
0.00790191
0.00790563
0.00790933
0.007913
0.00791665
0.00792027
0.00792386
0.00792741
0.00793091
0.00793437
0.00793777
0.00794112
0.0079444
0.00794763
0.00795081
0.00795394
0.00795704
0.00796013
0.00796323
0.00796639
0.00796962
0.00797297
0.00797648
0.00798018
0.00798411
0.00798831
0.00799281
0.0079976
0.00800272
0.00800814
0.00801386
0.00801984
0.00802604
0.00803241
0.00803886
0.00804533
0.00805172
0.00805792
0.00806383
0.00806933
0.00807432
0.00807868
0.0080823
0.00808508
0.00808691
0.00808771
0.00808742
0.00808596
0.00808331
0.00807943
0.00807431
0.00806798
0.00806046
0.00805181
0.00804209
0.00803141
0.00801986
0.00800765
0.00799434
0.00493181
0.00302612
0.0038337
0.00494834
0.00587406
0.00658116
0.00711649
0.00752622
0.00784508
0.00809766
0.00830115
0.00846767
0.00860586
0.00872199
0.00882068
0.0089054
0.00897879
0.0090429
0.00909931
0.00914929
0.00919386
0.00923384
0.00926988
0.00930254
0.00933229
0.00935949
0.00938447
0.00940751
0.00942883
0.00944864
0.00946709
0.00948435
0.00950053
0.00951576
0.00953012
0.0095437
0.00955658
0.00956882
0.00958049
0.00959163
0.0096023
0.00961253
0.00962237
0.00963184
0.00964097
0.0096498
0.00965835
0.00966664
0.00967469
0.00968252
0.00969015
0.00969759
0.00970485
0.00971195
0.00971891
0.00972572
0.00973241
0.00973897
0.00974543
0.00975178
0.00975804
0.00976421
0.0097703
0.00977631
0.00978225
0.00978813
0.00979394
0.00979968
0.00980535
0.00981095
0.00981646
0.0098219
0.00982724
0.00983248
0.00983762
0.00984267
0.00984761
0.00985245
0.00985721
0.0098619
0.00986656
0.00987121
0.00987588
0.00988063
0.00988551
0.00989056
0.00989584
0.00990139
0.00990725
0.00991348
0.00992008
0.00992707
0.00993446
0.00994222
0.00995032
0.00995872
0.00996733
0.00997607
0.00998485
0.00999354
0.010002
0.0100101
0.0100178
0.0100247
0.0100309
0.0100362
0.0100404
0.0100433
0.010045
0.0100452
0.0100439
0.010041
0.0100365
0.0100304
0.0100227
0.0100134
0.0100025
0.00999021
0.00997657
0.00996171
0.0099459
0.00992856
0.00765447
0.00384129
0.0039599
0.0050637
0.00617752
0.00710148
0.0078361
0.00841791
0.00888249
0.00925803
0.00956562
0.00982082
0.0100351
0.0102171
0.0103732
0.0105082
0.0106262
0.0107298
0.0108217
0.0109035
0.0109768
0.0110429
0.0111028
0.0111573
0.011207
0.0112527
0.0112948
0.0113337
0.0113697
0.0114033
0.0114346
0.0114639
0.0114914
0.0115173
0.0115417
0.0115648
0.0115867
0.0116075
0.0116273
0.0116462
0.0116642
0.0116815
0.011698
0.0117139
0.0117293
0.011744
0.0117583
0.011772
0.0117854
0.0117983
0.0118108
0.011823
0.0118349
0.0118464
0.0118577
0.0118687
0.0118794
0.01189
0.0119002
0.0119103
0.0119202
0.01193
0.0119395
0.0119489
0.0119581
0.0119672
0.0119762
0.011985
0.0119937
0.0120023
0.0120107
0.0120189
0.0120271
0.012035
0.0120428
0.0120504
0.0120578
0.0120651
0.0120723
0.0120793
0.0120862
0.0120931
0.0121
0.0121069
0.012114
0.0121212
0.0121287
0.0121365
0.0121446
0.0121532
0.0121622
0.0121717
0.0121817
0.0121921
0.012203
0.0122142
0.0122257
0.0122374
0.0122491
0.0122608
0.0122722
0.0122832
0.0122936
0.0123033
0.0123119
0.0123194
0.0123256
0.0123303
0.0123333
0.0123345
0.0123338
0.0123311
0.0123263
0.0123194
0.0123104
0.0122993
0.0122862
0.0122711
0.0122543
0.0122358
0.012216
0.0121941
0.0113266
0.00551803
0.00435849
0.00510578
0.00628855
0.00740978
0.00836168
0.0091471
0.00979278
0.0103264
0.0107711
0.0111453
0.0114634
0.0117362
0.0119723
0.0121782
0.0123592
0.0125193
0.0126619
0.0127896
0.0129046
0.0130086
0.0131032
0.0131896
0.0132687
0.0133415
0.0134088
0.013471
0.0135289
0.0135828
0.0136332
0.0136805
0.0137248
0.0137666
0.013806
0.0138433
0.0138786
0.0139122
0.0139441
0.0139745
0.0140035
0.0140313
0.0140579
0.0140835
0.014108
0.0141316
0.0141543
0.0141763
0.0141975
0.014218
0.0142378
0.0142571
0.0142758
0.0142939
0.0143116
0.0143288
0.0143456
0.0143619
0.0143779
0.0143935
0.0144087
0.0144236
0.0144383
0.0144526
0.0144667
0.0144805
0.0144941
0.0145074
0.0145205
0.0145334
0.014546
0.0145583
0.0145704
0.0145823
0.0145939
0.0146052
0.0146163
0.0146272
0.0146378
0.0146482
0.0146584
0.0146686
0.0146786
0.0146887
0.0146988
0.0147092
0.0147197
0.0147306
0.0147419
0.0147536
0.0147659
0.0147787
0.0147921
0.014806
0.0148204
0.0148353
0.0148505
0.014866
0.0148815
0.014897
0.0149123
0.014927
0.0149411
0.0149542
0.0149662
0.0149768
0.0149858
0.0149929
0.014998
0.0150009
0.0150014
0.0149994
0.0149948
0.0149876
0.0149777
0.0149651
0.0149499
0.0149322
0.0149122
0.0148899
0.0148658
0.0148389
0.0157248
0.0083437
0.00547916
0.00531275
0.00627167
0.00748282
0.00862975
0.00963244
0.0104877
0.0112134
0.0118305
0.0123582
0.0128125
0.0132064
0.0135503
0.0138528
0.0141205
0.0143588
0.0145721
0.0147641
0.0149377
0.0150955
0.0152394
0.0153712
0.0154923
0.0156041
0.0157075
0.0158035
0.0158929
0.0159763
0.0160543
0.0161275
0.0161964
0.0162612
0.0163225
0.0163804
0.0164354
0.0164875
0.0165372
0.0165845
0.0166296
0.0166728
0.0167141
0.0167537
0.0167917
0.0168283
0.0168634
0.0168973
0.0169301
0.0169617
0.0169922
0.0170218
0.0170504
0.0170782
0.0171052
0.0171315
0.017157
0.0171818
0.017206
0.0172296
0.0172526
0.0172751
0.0172971
0.0173186
0.0173397
0.0173603
0.0173806
0.0174004
0.0174198
0.0174388
0.0174575
0.0174758
0.0174936
0.0175111
0.0175282
0.0175449
0.0175612
0.0175772
0.0175928
0.017608
0.017623
0.0176378
0.0176524
0.017667
0.0176815
0.0176962
0.0177111
0.0177263
0.0177419
0.017758
0.0177746
0.0177918
0.0178097
0.0178282
0.0178472
0.0178668
0.0178869
0.0179072
0.0179277
0.0179481
0.0179682
0.0179878
0.0180066
0.0180243
0.0180407
0.0180555
0.0180684
0.018079
0.0180873
0.0180928
0.0180955
0.0180951
0.0180916
0.0180848
0.0180746
0.0180611
0.0180444
0.0180244
0.0180014
0.0179755
0.0179472
0.0179152
0.0204365
0.0122987
0.00781877
0.0061763
0.00638132
0.00739745
0.00862145
0.00980678
0.0108762
0.0118169
0.0126375
0.0133529
0.0139782
0.0145273
0.0150118
0.0154416
0.0158248
0.0161683
0.0164775
0.0167573
0.0170115
0.0172433
0.0174556
0.0176506
0.0178304
0.0179968
0.018151
0.0182945
0.0184284
0.0185535
0.0186708
0.018781
0.0188847
0.0189825
0.0190749
0.0191624
0.0192454
0.0193243
0.0193993
0.0194709
0.0195391
0.0196044
0.0196668
0.0197267
0.0197841
0.0198393
0.0198924
0.0199435
0.0199928
0.0200404
0.0200863
0.0201307
0.0201738
0.0202154
0.0202558
0.0202951
0.0203332
0.0203702
0.0204062
0.0204413
0.0204755
0.0205089
0.0205414
0.0205732
0.0206043
0.0206347
0.0206644
0.0206935
0.0207219
0.0207498
0.020777
0.0208037
0.0208298
0.0208553
0.0208802
0.0209046
0.0209284
0.0209516
0.0209743
0.0209965
0.0210182
0.0210396
0.0210607
0.0210816
0.0211024
0.0211232
0.0211442
0.0211653
0.0211869
0.0212089
0.0212315
0.0212547
0.0212785
0.0213031
0.0213282
0.021354
0.0213802
0.0214068
0.0214336
0.0214603
0.0214867
0.0215126
0.0215376
0.0215613
0.0215836
0.0216039
0.0216221
0.0216377
0.0216505
0.0216601
0.0216663
0.0216689
0.0216676
0.0216624
0.0216531
0.0216397
0.0216223
0.0216009
0.0215757
0.0215467
0.0215145
0.0214777
0.024966
0.017029
0.011559
0.0083344
0.00718515
0.00746836
0.008455
0.00967288
0.0108973
0.0120408
0.0130773
0.0140053
0.014833
0.0155712
0.0162309
0.0168222
0.0173542
0.0178345
0.01827
0.0186661
0.0190279
0.0193593
0.0196641
0.0199451
0.020205
0.0204461
0.0206704
0.0208795
0.0210749
0.021258
0.0214298
0.0215915
0.0217439
0.0218878
0.022024
0.022153
0.0222755
0.022392
0.0225028
0.0226085
0.0227095
0.022806
0.0228983
0.0229869
0.0230718
0.0231534
0.0232319
0.0233074
0.0233802
0.0234505
0.0235183
0.0235838
0.0236472
0.0237086
0.0237681
0.0238258
0.0238818
0.0239361
0.023989
0.0240404
0.0240904
0.0241392
0.0241867
0.024233
0.0242783
0.0243225
0.0243656
0.0244078
0.0244491
0.0244894
0.0245289
0.0245674
0.0246051
0.024642
0.024678
0.0247131
0.0247474
0.0247809
0.0248137
0.0248457
0.0248771
0.0249078
0.0249381
0.0249679
0.0249975
0.0250269
0.0250563
0.0250858
0.0251156
0.0251458
0.0251765
0.0252077
0.0252396
0.0252722
0.0253054
0.0253392
0.0253736
0.0254084
0.0254433
0.0254782
0.0255128
0.0255467
0.0255797
0.0256114
0.0256413
0.0256692
0.0256945
0.025717
0.0257361
0.0257517
0.0257632
0.0257705
0.0257733
0.0257714
0.0257646
0.0257529
0.0257363
0.0257149
0.0256886
0.0256577
0.0256227
0.0255818
0.0288721
0.0219727
0.0163572
0.0121026
0.00944208
0.00839318
0.00856599
0.00943681
0.0106072
0.0118514
0.0130626
0.0141965
0.0152393
0.0161903
0.0170549
0.0178406
0.0185555
0.0192071
0.0198026
0.0203481
0.0208492
0.0213109
0.0217373
0.0221321
0.0224988
0.02284
0.0231583
0.0234559
0.0237348
0.0239966
0.024243
0.0244751
0.0246943
0.0249016
0.025098
0.0252843
0.0254613
0.0256298
0.0257904
0.0259435
0.0260899
0.0262299
0.0263639
0.0264925
0.0266158
0.0267343
0.0268483
0.0269581
0.0270638
0.0271658
0.0272643
0.0273594
0.0274515
0.0275405
0.0276267
0.0277103
0.0277914
0.0278701
0.0279466
0.0280209
0.0280932
0.0281636
0.0282321
0.0282989
0.0283641
0.0284276
0.0284897
0.0285503
0.0286095
0.0286673
0.0287239
0.0287791
0.028833
0.0288858
0.0289373
0.0289876
0.0290367
0.0290847
0.0291316
0.0291774
0.0292222
0.0292662
0.0293093
0.0293517
0.0293936
0.029435
0.0294762
0.0295173
0.0295585
0.0295999
0.0296416
0.0296838
0.0297266
0.0297699
0.0298139
0.0298585
0.0299035
0.029949
0.0299946
0.0300401
0.0300853
0.0301298
0.0301733
0.0302153
0.0302554
0.0302931
0.0303281
0.0303599
0.0303879
0.0304118
0.0304312
0.0304456
0.0304549
0.0304587
0.0304568
0.030449
0.0304354
0.0304159
0.0303906
0.0303597
0.0303235
0.03028
0.0318859
0.0265354
0.0215162
0.0170871
0.0134893
0.0110289
0.00983786
0.0097379
0.0103766
0.011418
0.0126294
0.0138773
0.0150935
0.0162465
0.0173241
0.0183239
0.0192482
0.0201018
0.0208901
0.0216189
0.0222936
0.0229193
0.0235006
0.0240417
0.0245463
0.025018
0.0254596
0.0258739
0.0262632
0.0266297
0.0269754
0.0273019
0.0276108
0.0279035
0.0281812
0.0284451
0.0286963
0.0289355
0.0291638
0.0293818
0.0295903
0.0297899
0.0299812
0.0301646
0.0303408
0.0305102
0.0306732
0.0308301
0.0309814
0.0311273
0.0312682
0.0314043
0.0315359
0.0316633
0.0317867
0.0319062
0.0320222
0.0321347
0.032244
0.0323502
0.0324534
0.0325538
0.0326516
0.0327468
0.0328397
0.0329302
0.0330185
0.0331047
0.0331888
0.033271
0.0333513
0.0334297
0.0335063
0.0335811
0.0336542
0.0337256
0.0337954
0.0338635
0.0339301
0.0339951
0.0340587
0.034121
0.0341821
0.034242
0.034301
0.0343592
0.0344168
0.034474
0.0345309
0.0345877
0.0346447
0.0347018
0.0347594
0.0348173
0.0348757
0.0349346
0.0349938
0.0350534
0.035113
0.0351725
0.0352316
0.0352899
0.0353471
0.0354026
0.0354561
0.035507
0.0355549
0.0355991
0.0356393
0.0356748
0.0357052
0.0357301
0.0357491
0.0357617
0.0357678
0.0357671
0.0357596
0.035745
0.0357235
0.0356952
0.0356604
0.0356167
0.0339568
0.0302574
0.0262964
0.0224018
0.0187493
0.0155657
0.0131348
0.01166
0.0111401
0.0113925
0.0121663
0.0132379
0.014448
0.0156984
0.0169334
0.0181236
0.0192548
0.0203216
0.0213231
0.0222613
0.0231394
0.0239613
0.0247308
0.0254521
0.0261288
0.0267645
0.0273626
0.027926
0.0284574
0.0289594
0.0294343
0.0298842
0.0303108
0.0307161
0.0311014
0.0314683
0.0318181
0.0321518
0.0324707
0.0327757
0.0330677
0.0333475
0.033616
0.0338738
0.0341215
0.0343598
0.0345893
0.0348104
0.0350236
0.0352294
0.0354282
0.0356203
0.0358061
0.035986
0.0361602
0.0363291
0.0364928
0.0366517
0.0368061
0.036956
0.0371018
0.0372435
0.0373815
0.0375159
0.0376469
0.0377745
0.0378989
0.0380204
0.0381389
0.0382546
0.0383677
0.0384781
0.0385859
0.0386912
0.0387941
0.0388946
0.0389929
0.0390888
0.0391826
0.0392742
0.0393639
0.0394516
0.0395374
0.0396217
0.0397044
0.0397858
0.0398661
0.0399454
0.040024
0.0401021
0.0401799
0.0402575
0.0403351
0.0404128
0.0404907
0.0405688
0.0406471
0.0407254
0.0408037
0.0408816
0.040959
0.0410355
0.0411106
0.041184
0.0412551
0.0413234
0.0413883
0.0414493
0.0415058
0.0415571
0.0416028
0.0416424
0.0416752
0.041701
0.0417193
0.0417298
0.0417323
0.0417267
0.041713
0.041691
0.0416613
0.0416209
0.0352156
0.0329264
0.0301548
0.0271692
0.0241079
0.0210828
0.0182539
0.0158401
0.0140585
0.0130304
0.012737
0.0130508
0.0138009
0.0148263
0.0160022
0.0172434
0.018496
0.0197278
0.0209204
0.0220639
0.0231539
0.024189
0.0251701
0.026099
0.026978
0.0278099
0.0285976
0.0293438
0.0300513
0.0307226
0.0313602
0.0319664
0.0325433
0.0330929
0.0336169
0.0341171
0.0345949
0.035052
0.0354894
0.0359086
0.0363106
0.0366964
0.0370671
0.0374235
0.0377664
0.0380966
0.0384149
0.0387218
0.0390181
0.0393042
0.0395807
0.0398482
0.0401071
0.0403577
0.0406006
0.0408361
0.0410646
0.0412864
0.0415018
0.0417111
0.0419147
0.0421127
0.0423054
0.042493
0.0426758
0.042854
0.0430278
0.0431973
0.0433628
0.0435243
0.043682
0.0438361
0.0439866
0.0441337
0.0442773
0.0444176
0.0445548
0.0446889
0.0448199
0.044948
0.0450733
0.0451958
0.0453158
0.0454334
0.0455487
0.045662
0.0457734
0.0458832
0.0459916
0.0460989
0.0462051
0.0463107
0.0464157
0.0465202
0.0466245
0.0467285
0.0468323
0.0469359
0.047039
0.0471415
0.0472431
0.0473436
0.0474424
0.0475393
0.0476336
0.0477248
0.0478123
0.0478955
0.0479738
0.0480465
0.0481129
0.0481725
0.0482247
0.048269
0.0483049
0.048332
0.04835
0.0483586
0.0483578
0.0483473
0.0483277
0.0482954
0.0358864
0.034593
0.0328633
0.0308401
0.0286213
0.0262674
0.0238358
0.0214144
0.0191386
0.0171788
0.0156958
0.0147878
0.0144645
0.0146593
0.0152639
0.0161609
0.0172464
0.01844
0.0196844
0.0209414
0.0221859
0.0234025
0.0245816
0.025718
0.0268092
0.0278544
0.0288542
0.0298096
0.0307222
0.0315939
0.0324266
0.0332223
0.0339831
0.0347108
0.0354074
0.0360745
0.0367138
0.037327
0.0379154
0.0384806
0.0390239
0.0395464
0.0400492
0.0405335
0.0410003
0.0414505
0.0418849
0.0423045
0.0427099
0.0431019
0.0434812
0.0438483
0.0442039
0.0445486
0.0448828
0.045207
0.0455218
0.0458275
0.0461245
0.0464133
0.0466943
0.0469676
0.0472338
0.047493
0.0477456
0.0479919
0.0482321
0.0484664
0.0486951
0.0489184
0.0491365
0.0493496
0.0495578
0.0497612
0.0499601
0.0501544
0.0503443
0.0505301
0.0507116
0.0508892
0.051063
0.0512329
0.0513993
0.0515623
0.051722
0.0518787
0.0520326
0.0521839
0.0523329
0.0524799
0.052625
0.0527686
0.0529107
0.0530517
0.0531917
0.0533307
0.0534689
0.0536062
0.0537425
0.0538778
0.0540117
0.0541439
0.0542742
0.0544021
0.054527
0.0546484
0.0547657
0.0548783
0.0549855
0.0550865
0.0551807
0.0552674
0.0553459
0.0554157
0.0554762
0.0555267
0.055567
0.0555967
0.0556155
0.0556232
0.0556202
0.0556025
0.0361963
0.0354884
0.0345011
0.0332718
0.0318469
0.0302605
0.0285351
0.0266917
0.024764
0.0228124
0.0209309
0.0192398
0.0178631
0.0168966
0.0163857
0.0163216
0.0166534
0.0173069
0.0182017
0.0192644
0.020434
0.0216643
0.0229216
0.0241827
0.0254314
0.0266568
0.0278519
0.0290123
0.0301354
0.0312203
0.0322666
0.0332747
0.0342455
0.03518
0.0360794
0.0369452
0.0377787
0.0385814
0.0393546
0.0400998
0.0408182
0.041511
0.0421797
0.0428252
0.0434487
0.0440513
0.044634
0.0451976
0.0457432
0.0462716
0.0467834
0.0472796
0.0477609
0.0482278
0.048681
0.0491212
0.0495489
0.0499647
0.050369
0.0507624
0.0511453
0.0515182
0.0518814
0.0522353
0.0525804
0.052917
0.0532453
0.0535658
0.0538787
0.0541843
0.0544829
0.0547747
0.0550599
0.0553387
0.0556114
0.055878
0.0561388
0.0563937
0.056643
0.0568871
0.0571258
0.0573596
0.0575884
0.0578125
0.0580321
0.0582474
0.0584586
0.0586661
0.05887
0.0590706
0.0592683
0.0594632
0.0596556
0.0598457
0.0600338
0.06022
0.0604044
0.0605869
0.0607677
0.0609466
0.0611234
0.0612979
0.0614698
0.0616386
0.0618039
0.0619651
0.0621216
0.0622729
0.0624181
0.0625565
0.0626875
0.0628102
0.0629239
0.063028
0.0631217
0.0632045
0.0632758
0.0633352
0.0633822
0.0634166
0.0634386
0.0634439
0.0363185
0.0358964
0.035342
0.0346443
0.0338099
0.0328502
0.0317745
0.0305881
0.0292942
0.0278982
0.0264145
0.0248739
0.0233287
0.0218531
0.0205352
0.0194615
0.0187
0.018288
0.0182293
0.0184992
0.0190539
0.0198402
0.020804
0.0218958
0.0230737
0.0243048
0.0255638
0.0268322
0.0280965
0.0293469
0.0305766
0.0317807
0.0329559
0.0341003
0.0352127
0.0362927
0.0373403
0.0383559
0.03934
0.0402934
0.041217
0.0421116
0.0429782
0.0438179
0.0446317
0.0454205
0.0461853
0.0469271
0.0476468
0.0483453
0.0490235
0.049682
0.0503219
0.0509437
0.0515483
0.0521363
0.0527085
0.0532653
0.0538075
0.0543357
0.0548502
0.0553518
0.0558408
0.0563177
0.0567831
0.0572373
0.0576807
0.0581138
0.0585369
0.0589504
0.0593546
0.0597498
0.0601363
0.0605144
0.0608843
0.0612462
0.0616004
0.061947
0.0622863
0.0626183
0.0629433
0.0632616
0.0635734
0.0638788
0.0641781
0.0644715
0.0647593
0.0650417
0.0653189
0.0655914
0.0658593
0.066123
0.0663828
0.0666387
0.0668913
0.0671405
0.0673865
0.0676295
0.0678695
0.0681065
0.0683402
0.0685707
0.0687975
0.0690203
0.0692387
0.0694522
0.0696602
0.0698621
0.0700571
0.0702446
0.0704237
0.0705937
0.0707539
0.0709033
0.0710413
0.0711673
0.0712804
0.0713803
0.0714663
0.0715379
0.0715956
0.0716347
0.0363591
0.0360515
0.0357024
0.0352937
0.0348163
0.0342669
0.0336458
0.0329534
0.032189
0.0313505
0.0304344
0.0294384
0.0283636
0.0272185
0.0260225
0.0248094
0.0236274
0.0225355
0.0215963
0.0208663
0.020387
0.0201807
0.0202495
0.0205783
0.0211397
0.021899
0.0228189
0.0238634
0.0249997
0.0262001
0.0274421
0.0287078
0.0299836
0.0312592
0.0325266
0.0337799
0.0350147
0.0362278
0.0374167
0.0385799
0.0397163
0.0408256
0.0419075
0.0429622
0.0439899
0.044991
0.045966
0.0469156
0.0478402
0.0487406
0.0496175
0.0504716
0.0513036
0.0521142
0.0529042
0.0536742
0.0544249
0.055157
0.055871
0.0565676
0.0572474
0.057911
0.0585588
0.0591915
0.0598095
0.0604134
0.0610036
0.0615807
0.0621449
0.0626968
0.0632368
0.0637652
0.0642824
0.0647887
0.0652844
0.0657699
0.0662453
0.066711
0.0671672
0.0676141
0.0680518
0.0684806
0.0689008
0.0693128
0.0697166
0.0701126
0.0705009
0.070882
0.071256
0.0716233
0.071984
0.0723387
0.0726874
0.0730305
0.0733683
0.073701
0.0740287
0.0743517
0.07467
0.0749836
0.0752924
0.0755965
0.0758954
0.0761891
0.076477
0.0767588
0.0770339
0.0773017
0.0775616
0.0778127
0.0780545
0.078286
0.0785065
0.0787152
0.0789112
0.0790938
0.0792622
0.0794158
0.079554
0.0796762
0.0797827
0.0798688
0.0363702
0.0360998
0.0358287
0.035546
0.0352425
0.0349115