/*--------------------------------*- C++ -*----------------------------------*\
  =========                 |
  \\      /  F ield         | OpenFOAM: The Open Source CFD Toolbox
   \\    /   O peration     | Website:  https://openfoam.org
    \\  /    A nd           | Version:  8
     \\/     M anipulation  |
\*---------------------------------------------------------------------------*/
FoamFile
{
    version     2.0;
    format      ascii;
    class       volScalarField;
    location    "1000";
    object      p;
}
// * * * * * * * * * * * * * * * * * * * * * * * * * * * * * * * * * * * * * //

dimensions      [0 2 -2 0 0 0 0];

internalField   nonuniform List<scalar> 
7320
(
159.585
153.728
151.818
150.034
148.325
146.629
144.965
143.341
141.749
140.183
138.639
137.115
135.61
134.121
132.647
131.187
129.739
128.304
126.879
125.465
124.061
122.665
121.278
119.9
118.529
117.166
115.809
114.459
113.116
111.779
110.447
109.122
107.801
106.486
105.176
103.871
102.57
101.274
99.9823
98.6948
97.4114
96.1319
94.8563
93.5844
92.3161
91.0513
89.7899
88.5318
87.2769
86.0252
84.7765
83.5308
82.288
81.048
79.8107
78.5762
77.3442
76.1149
74.888
73.6635
72.4414
71.2217
70.0042
68.7889
67.5759
66.3649
65.156
63.9492
62.7443
61.5414
60.3404
59.1412
57.9439
56.7484
55.5546
54.3626
53.1722
51.9835
50.7964
49.6109
48.4269
47.2445
46.0634
44.8839
43.7057
42.5288
41.3532
40.1788
39.0056
37.8335
36.6624
35.4924
34.3232
33.1549
31.9874
30.8206
29.6545
28.4889
27.3239
26.1593
24.9951
23.8312
22.6676
21.5043
20.3412
19.1782
18.0152
16.8525
15.6898
14.5272
13.3646
12.2021
11.0397
9.87741
8.7152
7.55325
6.39145
5.22994
4.06862
2.90815
1.74659
0.600015
158.787
153.715
151.819
150.034
148.325
146.629
144.965
143.341
141.749
140.183
138.639
137.115
135.61
134.121
132.647
131.187
129.739
128.304
126.879
125.465
124.061
122.665
121.278
119.9
118.529
117.166
115.809
114.459
113.116
111.779
110.447
109.122
107.801
106.486
105.176
103.871
102.57
101.274
99.9823
98.6948
97.4114
96.1319
94.8563
93.5844
92.3161
91.0513
89.7899
88.5318
87.2769
86.0252
84.7765
83.5308
82.288
81.048
79.8107
78.5762
77.3442
76.1149
74.888
73.6635
72.4414
71.2217
70.0042
68.7889
67.5759
66.3649
65.156
63.9492
62.7443
61.5414
60.3404
59.1412
57.9439
56.7484
55.5546
54.3626
53.1722
51.9835
50.7964
49.6109
48.4269
47.2445
46.0634
44.8839
43.7057
42.5288
41.3532
40.1788
39.0056
37.8335
36.6624
35.4924
34.3232
33.1549
31.9874
30.8206
29.6545
28.4889
27.3239
26.1593
24.9951
23.8312
22.6676
21.5043
20.3412
19.1782
18.0152
16.8525
15.6898
14.5272
13.3646
12.2021
11.0397
9.8774
8.71519
7.55325
6.39145
5.22993
4.06862
2.90815
1.74659
0.600013
158.582
153.721
151.82
150.035
148.325
146.63
144.966
143.341
141.749
140.183
138.639
137.115
135.61
134.121
132.647
131.187
129.739
128.304
126.879
125.465
124.061
122.665
121.279
119.9
118.529
117.166
115.809
114.459
113.116
111.779
110.447
109.122
107.801
106.486
105.176
103.871
102.57
101.274
99.9823
98.6948
97.4114
96.1319
94.8563
93.5844
92.3161
91.0513
89.7899
88.5318
87.2769
86.0252
84.7765
83.5308
82.288
81.048
79.8108
78.5762
77.3442
76.1149
74.888
73.6635
72.4414
71.2217
70.0042
68.7889
67.5759
66.3649
65.156
63.9492
62.7443
61.5414
60.3404
59.1412
57.9439
56.7484
55.5546
54.3626
53.1722
51.9835
50.7964
49.6109
48.4269
47.2444
46.0634
44.8839
43.7056
42.5288
41.3532
40.1788
39.0056
37.8335
36.6624
35.4924
34.3232
33.1549
31.9874
30.8206
29.6545
28.4889
27.3239
26.1593
24.9951
23.8312
22.6676
21.5043
20.3411
19.1781
18.0152
16.8525
15.6898
14.5272
13.3646
12.2021
11.0397
9.8774
8.71519
7.55324
6.39144
5.22993
4.06861
2.90814
1.74658
0.600008
158.568
153.728
151.822
150.036
148.326
146.63
144.966
143.342
141.75
140.183
138.639
137.116
135.61
134.121
132.647
131.187
129.74
128.304
126.879
125.465
124.061
122.665
121.279
119.9
118.529
117.166
115.809
114.459
113.116
111.779
110.447
109.122
107.801
106.486
105.176
103.871
102.57
101.274
99.9824
98.6949
97.4114
96.132
94.8563
93.5844
92.3161
91.0513
89.7899
88.5318
87.2769
86.0252
84.7765
83.5308
82.288
81.048
79.8108
78.5762
77.3443
76.1149
74.888
73.6635
72.4414
71.2217
70.0042
68.7889
67.5759
66.3649
65.156
63.9492
62.7443
61.5414
60.3404
59.1412
57.9439
56.7484
55.5546
54.3626
53.1722
51.9835
50.7964
49.6109
48.4269
47.2444
46.0634
44.8839
43.7056
42.5288
41.3532
40.1788
39.0056
37.8335
36.6624
35.4924
34.3232
33.1549
31.9874
30.8206
29.6545
28.4889
27.3239
26.1593
24.9951
23.8312
22.6676
21.5043
20.3411
19.1781
18.0152
16.8525
15.6898
14.5272
13.3645
12.2021
11.0397
9.87739
8.71518
7.55323
6.39143
5.22992
4.0686
2.90813
1.74657
0.600003
158.54
153.732
151.824
150.037
148.327
146.631
144.967
143.342
141.75
140.184
138.64
137.116
135.61
134.121
132.647
131.187
129.74
128.304
126.88
125.465
124.061
122.665
121.279
119.9
118.529
117.166
115.809
114.459
113.116
111.779
110.447
109.122
107.801
106.486
105.176
103.871
102.57
101.274
99.9824
98.6949
97.4115
96.132
94.8563
93.5844
92.3161
91.0513
89.7899
88.5318
87.277
86.0252
84.7765
83.5308
82.288
81.048
79.8108
78.5762
77.3443
76.1149
74.888
73.6635
72.4414
71.2217
70.0042
68.7889
67.5759
66.3649
65.156
63.9492
62.7443
61.5414
60.3404
59.1412
57.9439
56.7484
55.5546
54.3626
53.1722
51.9835
50.7964
49.6109
48.4269
47.2444
46.0634
44.8838
43.7056
42.5288
41.3532
40.1788
39.0056
37.8335
36.6624
35.4923
34.3232
33.1549
31.9874
30.8206
29.6545
28.4889
27.3238
26.1593
24.9951
23.8312
22.6676
21.5043
20.3411
19.1781
18.0152
16.8525
15.6898
14.5271
13.3645
12.2021
11.0397
9.87737
8.71516
7.55322
6.39141
5.2299
4.06858
2.90812
1.74656
0.599995
158.499
153.736
151.826
150.038
148.328
146.632
144.967
143.343
141.75
140.184
138.64
137.116
135.611
134.122
132.648
131.187
129.74
128.304
126.88
125.466
124.061
122.666
121.279
119.9
118.529
117.166
115.809
114.46
113.116
111.779
110.447
109.122
107.801
106.486
105.176
103.871
102.57
101.274
99.9824
98.6949
97.4115
96.132
94.8564
93.5844
92.3161
91.0513
89.7899
88.5318
87.277
86.0252
84.7766
83.5308
82.288
81.048
79.8108
78.5762
77.3443
76.1149
74.888
73.6635
72.4414
71.2217
70.0042
68.7889
67.5759
66.3649
65.156
63.9492
62.7443
61.5414
60.3404
59.1412
57.9439
56.7484
55.5546
54.3626
53.1722
51.9835
50.7964
49.6109
48.4269
47.2444
46.0634
44.8838
43.7056
42.5287
41.3531
40.1788
39.0056
37.8335
36.6624
35.4923
34.3232
33.1549
31.9874
30.8206
29.6544
28.4889
27.3238
26.1593
24.9951
23.8312
22.6676
21.5043
20.3411
19.1781
18.0152
16.8525
15.6897
14.5271
13.3645
12.2021
11.0396
9.87736
8.71515
7.5532
6.3914
5.22989
4.06856
2.9081
1.74654
0.599985
158.463
153.741
151.829
150.04
148.329
146.633
144.968
143.343
141.751
140.184
138.64
137.116
135.611
134.122
132.648
131.188
129.74
128.304
126.88
125.466
124.061
122.666
121.279
119.9
118.529
117.166
115.809
114.46
113.116
111.779
110.448
109.122
107.801
106.486
105.176
103.871
102.57
101.274
99.9825
98.695
97.4115
96.132
94.8564
93.5845
92.3162
91.0514
89.79
88.5319
87.277
86.0253
84.7766
83.5309
82.288
81.048
79.8108
78.5762
77.3443
76.1149
74.888
73.6635
72.4415
71.2217
70.0042
68.789
67.5759
66.3649
65.156
63.9492
62.7443
61.5414
60.3404
59.1412
57.9439
56.7484
55.5546
54.3626
53.1722
51.9835
50.7964
49.6109
48.4269
47.2444
46.0634
44.8838
43.7056
42.5287
41.3531
40.1788
39.0055
37.8334
36.6624
35.4923
34.3232
33.1549
31.9874
30.8206
29.6544
28.4889
27.3238
26.1593
24.9951
23.8312
22.6676
21.5043
20.3411
19.1781
18.0152
16.8524
15.6897
14.5271
13.3645
12.2021
11.0396
9.87734
8.71513
7.55318
6.39138
5.22986
4.06854
2.90808
1.74652
0.599972
158.436
153.747
151.831
150.042
148.331
146.634
144.969
143.344
141.752
140.185
138.641
137.117
135.611
134.122
132.648
131.188
129.74
128.305
126.88
125.466
124.061
122.666
121.279
119.9
118.53
117.166
115.81
114.46
113.116
111.779
110.448
109.122
107.801
106.486
105.176
103.871
102.57
101.274
99.9825
98.695
97.4116
96.1321
94.8564
93.5845
92.3162
91.0514
89.79
88.5319
87.277
86.0253
84.7766
83.5309
82.2881
81.0481
79.8108
78.5762
77.3443
76.1149
74.888
73.6635
72.4415
71.2217
70.0042
68.789
67.5759
66.3649
65.156
63.9492
62.7443
61.5414
60.3404
59.1412
57.9439
56.7484
55.5546
54.3625
53.1722
51.9835
50.7964
49.6109
48.4269
47.2444
46.0634
44.8838
43.7056
42.5287
41.3531
40.1787
39.0055
37.8334
36.6624
35.4923
34.3232
33.1549
31.9874
30.8206
29.6544
28.4889
27.3238
26.1592
24.995
23.8312
22.6676
21.5043
20.3411
19.1781
18.0152
16.8524
15.6897
14.5271
13.3645
12.202
11.0396
9.87732
8.7151
7.55316
6.39135
5.22984
4.06852
2.90805
1.74649
0.599955
158.414
153.753
151.834
150.045
148.333
146.635
144.97
143.345
141.752
140.186
138.641
137.117
135.612
134.123
132.648
131.188
129.741
128.305
126.88
125.466
124.062
122.666
121.279
119.901
118.53
117.166
115.81
114.46
113.116
111.779
110.448
109.122
107.802
106.486
105.176
103.871
102.57
101.274
99.9826
98.6951
97.4116
96.1321
94.8565
93.5846
92.3163
91.0514
89.79
88.5319
87.2771
86.0253
84.7766
83.5309
82.2881
81.0481
79.8108
78.5763
77.3443
76.1149
74.888
73.6636
72.4415
71.2217
70.0042
68.789
67.5759
66.3649
65.156
63.9492
62.7443
61.5414
60.3404
59.1412
57.9439
56.7484
55.5546
54.3625
53.1722
51.9835
50.7964
49.6109
48.4269
47.2444
46.0634
44.8838
43.7056
42.5287
41.3531
40.1787
39.0055
37.8334
36.6624
35.4923
34.3232
33.1549
31.9873
30.8206
29.6544
28.4889
27.3238
26.1592
24.995
23.8312
22.6676
21.5042
20.3411
19.1781
18.0151
16.8524
15.6897
14.5271
13.3645
12.202
11.0396
9.87729
8.71507
7.55312
6.39132
5.2298
4.06848
2.90802
1.74645
0.599934
158.394
153.76
151.836
150.047
148.335
146.637
144.972
143.346
141.754
140.187
138.642
137.118
135.612
134.123
132.649
131.189
129.741
128.305
126.881
125.466
124.062
122.666
121.28
119.901
118.53
117.166
115.81
114.46
113.117
111.779
110.448
109.122
107.802
106.487
105.176
103.871
102.571
101.274
99.9827
98.6952
97.4117
96.1322
94.8566
93.5846
92.3163
91.0515
89.7901
88.532
87.2771
86.0254
84.7767
83.5309
82.2881
81.0481
79.8109
78.5763
77.3443
76.1149
74.888
73.6636
72.4415
71.2217
70.0042
68.789
67.5759
66.3649
65.156
63.9492
62.7443
61.5414
60.3404
59.1412
57.9439
56.7484
55.5546
54.3625
53.1722
51.9835
50.7964
49.6108
48.4269
47.2444
46.0634
44.8838
43.7056
42.5287
41.3531
40.1787
39.0055
37.8334
36.6624
35.4923
34.3231
33.1548
31.9873
30.8205
29.6544
28.4888
27.3238
26.1592
24.995
23.8311
22.6675
21.5042
20.341
19.178
18.0151
16.8524
15.6897
14.527
13.3644
12.202
11.0395
9.87725
8.71504
7.55309
6.39128
5.22977
4.06844
2.90798
1.74642
0.599906
158.373
153.768
151.838
150.05
148.337
146.639
144.973
143.348
141.755
140.188
138.643
137.119
135.613
134.124
132.65
131.189
129.742
128.306
126.881
125.467
124.062
122.667
121.28
119.901
118.53
117.167
115.81
114.46
113.117
111.779
110.448
109.122
107.802
106.487
105.177
103.871
102.571
101.275
99.9828
98.6953
97.4118
96.1323
94.8567
93.5847
92.3164
91.0516
89.7902
88.5321
87.2772
86.0254
84.7767
83.531
82.2882
81.0482
79.8109
78.5763
77.3444
76.115
74.8881
73.6636
72.4415
71.2218
70.0043
68.789
67.5759
66.3649
65.156
63.9492
62.7443
61.5414
60.3404
59.1412
57.9439
56.7484
55.5546
54.3625
53.1722
51.9835
50.7964
49.6108
48.4269
47.2444
46.0634
44.8838
43.7056
42.5287
41.3531
40.1787
39.0055
37.8334
36.6623
35.4923
34.3231
33.1548
31.9873
30.8205
29.6544
28.4888
27.3238
26.1592
24.995
23.8311
22.6675
21.5042
20.341
19.178
18.0151
16.8523
15.6896
14.527
13.3644
12.2019
11.0395
9.87721
8.71499
7.55305
6.39124
5.22972
4.0684
2.90793
1.74637
0.599871
158.35
153.777
151.84
150.052
148.34
146.641
144.975
143.349
141.756
140.189
138.644
137.12
135.614
134.125
132.65
131.19
129.742
128.306
126.882
125.467
124.063
122.667
121.28
119.901
118.531
117.167
115.81
114.461
113.117
111.78
110.448
109.122
107.802
106.487
105.177
103.871
102.571
101.275
99.9829
98.6954
97.4119
96.1324
94.8568
93.5848
92.3165
91.0517
89.7902
88.5321
87.2772
86.0255
84.7768
83.5311
82.2882
81.0482
79.811
78.5764
77.3444
76.115
74.8881
73.6636
72.4416
71.2218
70.0043
68.789
67.5759
66.365
65.1561
63.9492
62.7443
61.5414
60.3404
59.1412
57.9439
56.7484
55.5546
54.3625
53.1722
51.9835
50.7964
49.6108
48.4269
47.2444
46.0634
44.8838
43.7056
42.5287
41.3531
40.1787
39.0055
37.8334
36.6623
35.4923
34.3231
33.1548
31.9873
30.8205
29.6543
28.4888
27.3237
26.1592
24.995
23.8311
22.6675
21.5042
20.341
19.178
18.0151
16.8523
15.6896
14.527
13.3643
12.2019
11.0395
9.87717
8.71495
7.55299
6.39118
5.22967
4.06834
2.90787
1.74631
0.599826
158.324
153.788
151.842
150.054
148.342
146.643
144.977
143.351
141.758
140.19
138.646
137.121
135.615
134.126
132.651
131.191
129.743
128.307
126.882
125.468
124.063
122.668
121.281
119.902
118.531
117.167
115.811
114.461
113.117
111.78
110.449
109.123
107.802
106.487
105.177
103.872
102.571
101.275
99.9831
98.6956
97.4121
96.1326
94.8569
93.585
92.3166
91.0518
89.7904
88.5322
87.2773
86.0256
84.7769
83.5311
82.2883
81.0483
79.811
78.5764
77.3445
76.1151
74.8882
73.6637
72.4416
71.2218
70.0043
68.7891
67.576
66.365
65.1561
63.9492
62.7443
61.5414
60.3404
59.1412
57.9439
56.7484
55.5546
54.3625
53.1722
51.9835
50.7964
49.6108
48.4269
47.2444
46.0634
44.8838
43.7056
42.5287
41.3531
40.1787
39.0055
37.8334
36.6623
35.4922
34.3231
33.1548
31.9873
30.8205
29.6543
28.4888
27.3237
26.1591
24.9949
23.8311
22.6675
21.5041
20.341
19.1779
18.015
16.8523
15.6895
14.5269
13.3643
12.2018
11.0394
9.87711
8.71489
7.55294
6.39112
5.22961
4.06828
2.90781
1.74625
0.599766
158.294
153.799
151.844
150.055
148.344
146.646
144.979
143.353
141.76
140.192
138.647
137.123
135.616
134.127
132.652
131.192
129.744
128.308
126.883
125.469
124.064
122.668
121.281
119.902
118.531
117.168
115.811
114.461
113.118
111.78
110.449
109.123
107.803
106.487
105.177
103.872
102.571
101.275
99.9833
98.6958
97.4123
96.1328
94.8571
93.5851
92.3168
91.0519
89.7905
88.5324
87.2775
86.0257
84.777
83.5313
82.2884
81.0484
79.8111
78.5765
77.3446
76.1152
74.8882
73.6638
72.4417
71.2219
70.0044
68.7891
67.576
66.365
65.1561
63.9493
62.7444
61.5414
60.3404
59.1413
57.9439
56.7484
55.5546
54.3626
53.1722
51.9835
50.7964
49.6108
48.4269
47.2444
46.0634
44.8838
43.7055
42.5287
41.3531
40.1787
39.0054
37.8333
36.6623
35.4922
34.3231
33.1548
31.9872
30.8205
29.6543
28.4887
27.3237
26.1591
24.9949
23.831
22.6674
21.5041
20.3409
19.1779
18.015
16.8522
15.6895
14.5269
13.3642
12.2018
11.0393
9.87705
8.71483
7.55287
6.39106
5.22954
4.06821
2.90774
1.74617
0.599689
158.258
153.813
151.845
150.057
148.345
146.647
144.981
143.355
141.762
140.194
138.649
137.124
135.618
134.128
132.654
131.193
129.745
128.309
126.884
125.469
124.065
122.669
121.282
119.903
118.532
117.168
115.812
114.462
113.118
111.781
110.449
109.123
107.803
106.488
105.178
103.872
102.572
101.275
99.9836
98.696
97.4126
96.133
94.8573
93.5854
92.317
91.0521
89.7907
88.5326
87.2776
86.0259
84.7772
83.5314
82.2886
81.0485
79.8112
78.5767
77.3447
76.1153
74.8883
73.6639
72.4417
71.222
70.0045
68.7892
67.5761
66.3651
65.1562
63.9493
62.7444
61.5415
60.3405
59.1413
57.944
56.7484
55.5546
54.3626
53.1722
51.9835
50.7964
49.6108
48.4269
47.2444
46.0634
44.8838
43.7055
42.5287
41.353
40.1787
39.0054
37.8333
36.6623
35.4922
34.323
33.1547
31.9872
30.8204
29.6543
28.4887
27.3237
26.1591
24.9949
23.831
22.6674
21.5041
20.3409
19.1779
18.0149
16.8522
15.6894
14.5268
13.3642
12.2017
11.0393
9.87699
8.71476
7.5528
6.39098
5.22946
4.06813
2.90765
1.74609
0.599587
158.217
153.829
151.846
150.058
148.346
146.649
144.983
143.357
141.764
140.196
138.651
137.126
135.62
134.13
132.655
131.194
129.746
128.31
126.885
125.47
124.066
122.67
121.283
119.904
118.533
117.169
115.812
114.462
113.119
111.781
110.45
109.124
107.804
106.488
105.178
103.873
102.572
101.276
99.984
98.6964
97.4129
96.1333
94.8576
93.5856
92.3173
91.0524
89.7909
88.5328
87.2779
86.0261
84.7774
83.5316
82.2887
81.0487
79.8114
78.5768
77.3448
76.1154
74.8885
73.664
72.4419
71.2221
70.0046
68.7893
67.5762
66.3652
65.1563
63.9494
62.7445
61.5416
60.3405
59.1414
57.944
56.7485
55.5547
54.3626
53.1722
51.9835
50.7964
49.6109
48.4269
47.2444
46.0634
44.8838
43.7056
42.5287
41.353
40.1787
39.0054
37.8333
36.6623
35.4922
34.323
33.1547
31.9872
30.8204
29.6543
28.4887
27.3236
26.1591
24.9948
23.831
22.6674
21.504
20.3408
19.1778
18.0149
16.8521
15.6894
14.5268
13.3641
12.2017
11.0392
9.87692
8.71468
7.55272
6.3909
5.22937
4.06804
2.90756
1.746
0.599452
158.169
153.848
151.847
150.059
148.347
146.649
144.984
143.358
141.765
140.198
138.653
137.128
135.621
134.131
132.657
131.196
129.748
128.311
126.886
125.472
124.067
122.671
121.284
119.905
118.534
117.17
115.813
114.463
113.12
111.782
110.451
109.125
107.804
106.489
105.179
103.873
102.572
101.276
99.9844
98.6968
97.4133
96.1337
94.858
93.586
92.3176
91.0527
89.7912
88.5331
87.2782
86.0264
84.7776
83.5318
82.289
81.0489
79.8116
78.577
77.345
76.1156
74.8886
73.6641
72.442
71.2222
70.0047
68.7894
67.5763
66.3653
65.1564
63.9495
62.7446
61.5417
60.3406
59.1414
57.9441
56.7485
55.5548
54.3627
53.1723
51.9836
50.7964
49.6109
48.4269
47.2444
46.0634
44.8838
43.7056
42.5287
41.3531
40.1787
39.0054
37.8333
36.6623
35.4922
34.323
33.1547
31.9872
30.8204
29.6542
28.4887
27.3236
26.159
24.9948
23.8309
22.6673
21.504
20.3408
19.1778
18.0148
16.8521
15.6893
14.5267
13.3641
12.2016
11.0392
9.87684
8.7146
7.55264
6.39081
5.22928
4.06794
2.90745
1.74589
0.599271
158.113
153.871
151.848
150.06
148.348
146.65
144.985
143.359
141.766
140.199
138.654
137.13
135.623
134.133
132.658
131.197
129.749
128.313
126.888
125.473
124.068
122.672
121.285
119.906
118.535
117.171
115.814
114.464
113.121
111.783
110.451
109.125
107.805
106.49
105.179
103.874
102.573
101.277
99.985
98.6974
97.4138
96.1342
94.8585
93.5864
92.318
91.0531
89.7916
88.5335
87.2785
86.0267
84.7779
83.5322
82.2893
81.0492
79.8119
78.5773
77.3453
76.1158
74.8889
73.6644
72.4422
71.2224
70.0049
68.7896
67.5765
66.3655
65.1565
63.9496
62.7447
61.5418
60.3407
59.1416
57.9442
56.7487
55.5549
54.3628
53.1724
51.9836
50.7965
49.611
48.427
47.2445
46.0635
44.8838
43.7056
42.5287
41.3531
40.1787
39.0055
37.8334
36.6623
35.4922
34.323
33.1547
31.9872
30.8204
29.6543
28.4887
27.3236
26.159
24.9948
23.8309
22.6673
21.504
20.3408
19.1778
18.0148
16.852
15.6893
14.5267
13.364
12.2015
11.0391
9.87677
8.71453
7.55255
6.39072
5.22919
4.06784
2.90734
1.74579
0.599028
158.05
153.897
151.849
150.061
148.349
146.651
144.985
143.36
141.767
140.2
138.655
137.131
135.625
134.135
132.66
131.199
129.751
128.315
126.889
125.475
124.07
122.674
121.286
119.907
118.536
117.172
115.815
114.465
113.122
111.784
110.452
109.126
107.806
106.49
105.18
103.875
102.574
101.278
99.9857
98.698
97.4145
96.1348
94.8591
93.587
92.3186
91.0537
89.7922
88.534
87.279
86.0272
84.7784
83.5326
82.2897
81.0496
79.8123
78.5776
77.3456
76.1162
74.8892
73.6647
72.4425
71.2227
70.0052
68.7899
67.5767
66.3657
65.1568
63.9499
62.7449
61.542
60.3409
59.1417
57.9444
56.7488
55.555
54.3629
53.1725
51.9838
50.7966
49.6111
48.4271
47.2446
46.0635
44.8839
43.7057
42.5288
41.3532
40.1788
39.0055
37.8334
36.6623
35.4922
34.3231
33.1548
31.9872
30.8204
29.6543
28.4887
27.3236
26.159
24.9948
23.8309
22.6673
21.504
20.3408
19.1777
18.0148
16.852
15.6893
14.5266
13.364
12.2015
11.039
9.8767
8.71445
7.55247
6.39063
5.22909
4.06774
2.90723
1.74567
0.598697
157.976
153.928
151.851
150.062
148.35
146.652
144.986
143.36
141.767
140.2
138.656
137.131
135.625
134.136
132.661
131.201
129.753
128.316
126.891
125.476
124.071
122.675
121.288
119.909
118.538
117.174
115.817
114.467
113.123
111.785
110.454
109.127
107.807
106.491
105.181
103.876
102.575
101.279
99.9866
98.6989
97.4153
96.1356
94.8598
93.5877
92.3193
91.0543
89.7928
88.5346
87.2796
86.0277
84.7789
83.5331
82.2902
81.0501
79.8127
78.5781
77.3461
76.1166
74.8896
73.6651
72.4429
71.2231
70.0055
68.7902
67.577
66.366
65.1571
63.9501
62.7452
61.5422
60.3412
59.142
57.9446
56.749
55.5552
54.3631
53.1727
51.984
50.7968
49.6113
48.4272
47.2447
46.0637
44.8841
43.7058
42.5289
41.3533
40.1789
39.0056
37.8335
36.6624
35.4923
34.3232
33.1548
31.9873
30.8205
29.6543
28.4887
27.3237
26.1591
24.9948
23.831
22.6673
21.504
20.3408
19.1777
18.0148
16.852
15.6893
14.5266
13.3639
12.2015
11.039
9.87665
8.7144
7.5524
6.39056
5.22901
4.06765
2.90712
1.74557
0.598247
157.892
153.963
151.853
150.064
148.351
146.653
144.986
143.361
141.768
140.201
138.656
137.132
135.626
134.136
132.662
131.201
129.754
128.318
126.893
125.478
124.073
122.677
121.29
119.91
118.539
117.175
115.818
114.468
113.124
111.787
110.455
109.129
107.808
106.493
105.182
103.877
102.576
101.28
99.9876
98.6999
97.4163
96.1366
94.8607
93.5886
92.3201
91.0552
89.7936
88.5354
87.2803
86.0285
84.7796
83.5338
82.2908
81.0507
79.8134
78.5787
77.3466
76.1171
74.8901
73.6656
72.4434
71.2236
70.006
68.7906
67.5775
66.3664
65.1575
63.9505
62.7456
61.5426
60.3415
59.1423
57.9449
56.7493
55.5555
54.3634
53.173
51.9842
50.7971
49.6115
48.4275
47.245
46.0639
44.8843
43.706
42.5291
41.3534
40.179
39.0058
37.8336
36.6626
35.4925
34.3233
33.155
31.9874
30.8206
29.6544
28.4888
27.3238
26.1592
24.9949
23.831
22.6674
21.504
20.3408
19.1778
18.0148
16.852
15.6893
14.5266
13.364
12.2014
11.039
9.87663
8.71437
7.55236
6.39051
5.22894
4.06758
2.90702
1.74547
0.597631
157.797
154.002
151.855
150.066
148.353
146.654
144.987
143.361
141.768
140.201
138.656
137.132
135.626
134.137
132.662
131.202
129.754
128.318
126.893
125.479
124.074
122.678
121.291
119.912
118.541
117.177
115.82
114.47
113.126
111.788
110.456
109.13
107.81
106.494
105.184
103.878
102.577
101.281
99.9889
98.7011
97.4174
96.1377
94.8618
93.5897
92.3212
91.0562
89.7946
88.5363
87.2813
86.0294
84.7805
83.5346
82.2917
81.0515
79.8141
78.5794
77.3474
76.1178
74.8908
73.6662
72.4441
71.2242
70.0066
68.7912
67.578
66.367
65.158
63.9511
62.7461
61.5431
60.342
59.1428
57.9454
56.7498
55.5559
54.3638
53.1734
51.9846
50.7974
49.6118
48.4278
47.2453
46.0642
44.8846
43.7063
42.5294
41.3537
40.1793
39.006
37.8339
36.6628
35.4927
34.3235
33.1552
31.9876
30.8208
29.6546
28.489
27.3239
26.1593
24.9951
23.8312
22.6675
21.5042
20.3409
19.1779
18.0149
16.8521
15.6894
14.5267
13.364
12.2015
11.039
9.87665
8.71438
7.55236
6.39049
5.22892
4.06754
2.90695
1.74541
0.596788
157.691
154.046
151.857
150.068
148.356
146.656
144.989
143.362
141.769
140.202
138.657
137.132
135.626
134.137
132.662
131.202
129.754
128.318
126.893
125.479
124.074
122.679
121.292
119.913
118.542
117.178
115.821
114.471
113.127
111.79
110.458
109.132
107.811
106.496
105.185
103.88
102.579
101.282
99.9903
98.7025
97.4188
96.139
94.8631
93.591
92.3224
91.0574
89.7958
88.5375
87.2824
86.0305
84.7816
83.5357
82.2927
81.0525
79.8151
78.5804
77.3483
76.1187
74.8917
73.6671
72.4449
71.225
70.0074
68.792
67.5788
66.3677
65.1587
63.9517
62.7468
61.5437
60.3426
59.1434
57.946
56.7503
55.5565
54.3643
53.1739
51.9851
50.7979
49.6123
48.4283
47.2457
46.0646
44.885
43.7067
42.5298
41.3541
40.1797
39.0064
37.8342
36.6631
35.493
34.3238
33.1555
31.9879
30.8211
29.6549
28.4893
27.3242
26.1596
24.9953
23.8314
22.6677
21.5044
20.3411
19.1781
18.0151
16.8523
15.6895
14.5268
13.3641
12.2016
11.0391
9.87674
8.71445
7.55242
6.39054
5.22895
4.06756
2.90692
1.74538
0.595635
157.573
154.094
151.861
150.07
148.358
146.658
144.99
143.364
141.77
140.202
138.658
137.133
135.627
134.137
132.663
131.202
129.754
128.318
126.894
125.479
124.074
122.679
121.292
119.913
118.542
117.178
115.822
114.472
113.128
111.791
110.459
109.133
107.812
106.497
105.187
103.881
102.58
101.284
99.9918
98.704
97.4202
96.1405
94.8646
93.5924
92.3238
91.0588
89.7971
88.5388
87.2837
86.0318
84.7829
83.5369
82.2939
81.0537
79.8163
78.5815
77.3494
76.1198
74.8928
73.6682
72.4459
71.226
70.0084
68.793
67.5797
66.3686
65.1596
63.9526
62.7476
61.5446
60.3434
59.1442
57.9467
56.7511
55.5572
54.3651
53.1746
51.9858
50.7986
49.613
48.4289
47.2463
46.0652
44.8856
43.7073
42.5303
41.3546
40.1802
39.0069
37.8347
36.6636
35.4935
34.3243
33.1559
31.9883
30.8215
29.6553
28.4897
27.3246
26.1599
24.9957
23.8317
22.6681
21.5047
20.3414
19.1784
18.0154
16.8526
15.6898
14.5271
13.3644
12.2018
11.0393
9.87692
8.71462
7.55257
6.39067
5.22906
4.06765
2.90696
1.74541
0.594071
157.446
154.144
151.865
150.072
148.361
146.66
144.992
143.365
141.771
140.203
138.658
137.134
135.627
134.138
132.663
131.203
129.755
128.319
126.894
125.479
124.075
122.679
121.292
119.913
118.542
117.178
115.822
114.472
113.128
111.791
110.459
109.133
107.813
106.498
105.187
103.882
102.581
101.285
99.9931
98.7054
97.4217
96.142
94.8661
93.5939
92.3254
91.0603
89.7986
88.5403
87.2852
86.0332
84.7843
83.5383
82.2953
81.0551
79.8176
78.5829
77.3507
76.1211
74.8941
73.6694
72.4472
71.2272
70.0096
68.7941
67.5809
66.3698
65.1607
63.9537
62.7487
61.5456
60.3445
59.1452
57.9477
56.7521
55.5582
54.366
53.1755
51.9867
50.7995
49.6138
48.4298
47.2472
46.0661
44.8864
43.7081
42.5311
41.3554
40.1809
39.0076
37.8354
36.6643
35.4941
34.3249
33.1565
31.9889
30.8221
29.6558
28.4902
27.3251
26.1604
24.9962
23.8322
22.6686
21.5052
20.3419
19.1788
18.0158
16.853
15.6902
14.5274
13.3647
12.2022
11.0396
9.87723
8.71492
7.55284
6.39093
5.22929
4.06786
2.9071
1.74552
0.59197
157.313
154.195
151.87
150.073
148.364
146.662
144.993
143.366
141.773
140.205
138.659
137.135
135.628
134.139
132.664
131.203
129.755
128.319
126.894
125.48
124.075
122.679
121.292
119.913
118.542
117.179
115.822
114.472
113.128
111.791
110.459
109.133
107.813
106.498
105.188
103.882
102.582
101.285
99.9935
98.7059
97.4224
96.1428
94.867
93.595
92.3265
91.0616
89.8
88.5417
87.2867
86.0347
84.7858
83.5399
82.2969
81.0567
79.8192
78.5844
77.3522
76.1226
74.8955
73.6709
72.4486
71.2286
70.011
68.7955
67.5823
66.3711
65.1621
63.955
62.75
61.5469
60.3457
59.1464
57.949
56.7533
55.5594
54.3672
53.1767
51.9878
50.8006
49.6149
48.4308
47.2482
46.0671
44.8874
43.7091
42.5321
41.3563
40.1818
39.0085
37.8363
36.6652
35.495
34.3258
33.1574
31.9898
30.8229
29.6566
28.491
27.3259
26.1612
24.9969
23.8329
22.6693
21.5058
20.3426
19.1795
18.0164
16.8536
15.6907
14.528
13.3653
12.2027
11.0401
9.87771
8.71538
7.55328
6.39134
5.22968
4.06822
2.90737
1.74574
0.589201
157.179
154.244
151.876
150.074
148.368
146.665
144.995
143.368
141.774
140.206
138.66
137.136
135.629
134.139
132.665
131.204
129.756
128.32
126.895
125.48
124.075
122.68
121.293
119.914
118.543
117.179
115.822
114.472
113.129
111.791
110.46
109.134
107.813
106.498
105.188
103.882
102.582
101.285
99.9935
98.7059
97.4224
96.1429
94.8671
93.5951
92.3268
91.0619
89.8004
88.5423
87.2873
86.0355
84.7867
83.5409
82.298
81.0579
79.8205
78.5858
77.3537
76.1242
74.8971
73.6725
72.4502
71.2303
70.0126
68.7971
67.5839
66.3727
65.1636
63.9566
62.7515
61.5484
60.3472
59.1479
57.9504
56.7547
55.5608
54.3686
53.1781
51.9892
50.8019
49.6163
48.4322
47.2495
46.0684
44.8887
43.7103
42.5333
41.3576
40.1831
39.0097
37.8375
36.6663
35.4961
34.3269
33.1585
31.9908
30.8239
29.6577
28.492
27.3269
26.1622
24.9979
23.8339
22.6702
21.5067
20.3435
19.1803
18.0173
16.8544
15.6916
14.5288
13.366
12.2034
11.0409
9.8784
8.71604
7.55391
6.39194
5.23025
4.06877
2.90782
1.74607
0.58565
157.051
154.289
151.883
150.074
148.371
146.667
144.997
143.369
141.775
140.207
138.662
137.137
135.63
134.14
132.665
131.205
129.757
128.32
126.895
125.481
124.076
122.68
121.293
119.914
118.543
117.179
115.822
114.472
113.129
111.791
110.46
109.134
107.813
106.498
105.188
103.882
102.582
101.286
99.9937
98.7061
97.4225
96.1429
94.8672
93.5952
92.3268
91.0619
89.8004
88.5423
87.2873
86.0355
84.7868
83.541
82.2981
81.0581
79.8208
78.5861
77.3541
76.1247
74.8977
73.6732
72.4511
71.2312
70.0137
68.7983
67.5852
66.3741
65.1651
63.9581
62.7531
61.5501
60.3489
59.1496
57.9522
56.7565
55.5625
54.3703
53.1798
51.9909
50.8036
49.6179
48.4338
47.2511
46.07
44.8902
43.7118
42.5348
41.359
40.1845
39.0111
37.8389
36.6677
35.4975
34.3282
33.1598
31.9922
30.8253
29.659
28.4933
27.3281
26.1634
24.9991
23.8351
22.6714
21.5079
20.3446
19.1814
18.0184
16.8555
15.6926
14.5298
13.367
12.2044
11.0418
9.87932
8.71693
7.55477
6.39278
5.23105
4.06954
2.90847
1.74655
0.581311
156.943
154.326
151.89
150.074
148.374
146.67
144.999
143.371
141.776
140.208
138.662
137.137
135.631
134.141
132.666
131.205
129.757
128.321
126.896
125.481
124.076
122.68
121.293
119.914
118.543
117.18
115.823
114.473
113.129
111.792
110.46
109.134
107.814
106.498
105.188
103.883
102.582
101.286
99.9939
98.7062
97.4227
96.1431
94.8674
93.5953
92.3269
91.062
89.8005
88.5424
87.2874
86.0356
84.7869
83.5411
82.2982
81.0581
79.8208
78.5862
77.3542
76.1247
74.8977
73.6732
72.4511
71.2313
70.0137
68.7984
67.5853
66.3743
65.1654
63.9585
62.7535
61.5506
60.3495
59.1503
57.953
56.7574
55.5636
54.3714
53.181
51.9922
50.805
49.6194
48.4354
47.2528
46.0717
44.8919
43.7136
42.5366
41.3609
40.1863
39.013
37.8407
36.6695
35.4993
34.33
33.1615
31.9939
30.8269
29.6606
28.4949
27.3297
26.165
25.0006
23.8366
22.6728
21.5093
20.346
19.1828
18.0197
16.8568
15.6939
14.531
13.3683
12.2056
11.0429
9.88044
8.71803
7.55583
6.39382
5.23206
4.07051
2.90934
1.74719
0.57652
156.875
154.348
151.895
150.074
148.376
146.671
145
143.372
141.777
140.209
138.663
137.138
135.631
134.141
132.666
131.206
129.757
128.321
126.896
125.482
124.077
122.681
121.294
119.915
118.544
117.18
115.823
114.473
113.129
111.792
110.46
109.134
107.814
106.499
105.188
103.883
102.582
101.286
99.994
98.7064
97.4228
96.1433
94.8675
93.5955
92.3271
91.0622
89.8007
88.5425
87.2875
86.0357
84.7869
83.5412
82.2983
81.0582
79.8209
78.5862
77.3542
76.1248
74.8978
73.6733
72.4512
71.2314
70.0138
68.7985
67.5854
66.3743
65.1654
63.9585
62.7536
61.5506
60.3495
59.1503
57.953
56.7574
55.5636
54.3715
53.1811
51.9923
50.8052
49.6196
48.4356
47.253
46.072
44.8923
43.7141
42.5371
41.3615
40.187
39.0137
37.8415
36.6704
35.5003
34.331
33.1626
31.995
30.8282
29.6619
28.4962
27.3311
26.1664
25.002
23.838
22.6743
21.5108
20.3475
19.1843
18.0212
16.8582
15.6953
14.5325
13.3697
12.207
11.0444
9.88182
8.71939
7.55716
6.39512
5.23333
4.07176
2.91049
1.74813
0.57282
156.875
154.348
151.895
150.074
148.376
146.671
145
143.372
141.777
140.209
138.663
137.138
135.631
134.141
132.666
131.206
129.757
128.321
126.896
125.482
124.077
122.681
121.294
119.915
118.544
117.18
115.823
114.473
113.129
111.792
110.46
109.134
107.814
106.499
105.188
103.883
102.582
101.286
99.994
98.7064
97.4228
96.1433
94.8675
93.5955
92.3271
91.0622
89.8007
88.5425
87.2875