/*--------------------------------*- C++ -*----------------------------------*\
  =========                 |
  \\      /  F ield         | OpenFOAM: The Open Source CFD Toolbox
   \\    /   O peration     | Website:  https://openfoam.org
    \\  /    A nd           | Version:  8
     \\/     M anipulation  |
\*---------------------------------------------------------------------------*/
FoamFile
{
    version     2.0;
    format      ascii;
    class       surfaceScalarField;
    location    "1000";
    object      phi;
}
// * * * * * * * * * * * * * * * * * * * * * * * * * * * * * * * * * * * * * //

dimensions      [0 3 -1 0 0 0 0];

internalField   nonuniform List<scalar> 
14458
(
0.00222126
0.00139905
0.00205682
0.000164437
0.00198942
6.74046e-05
0.00194726
4.21619e-05
0.00191671
3.05478e-05
0.00189296
2.37485e-05
0.00187368
1.9277e-05
0.00185758
1.6101e-05
0.00184386
1.37262e-05
0.00183197
1.18876e-05
0.00182154
1.04249e-05
0.00181231
9.23473e-06
0.00180406
8.24834e-06
0.00179664
7.41832e-06
0.00178993
6.71082e-06
0.00178383
6.10118e-06
0.00177826
5.57076e-06
0.00177315
5.10542e-06
0.00176846
4.69405e-06
0.00176413
4.32816e-06
0.00176013
4.00074e-06
0.00175643
3.7062e-06
0.00175299
3.43988e-06
0.00174979
3.19818e-06
0.00174681
2.97786e-06
0.00174403
2.77634e-06
0.00174144
2.59124e-06
0.00173902
2.42094e-06
0.00173676
2.26368e-06
0.00173464
2.11811e-06
0.00173266
1.98292e-06
0.0017308
1.85724e-06
0.00172906
1.74007e-06
0.00172743
1.63061e-06
0.0017259
1.52806e-06
0.00172447
1.43202e-06
0.00172313
1.3418e-06
0.00172187
1.25694e-06
0.00172069
1.17693e-06
0.00171959
1.1015e-06
0.00171856
1.03022e-06
0.0017176
9.62795e-07
0.0017167
8.98883e-07
0.00171586
8.38321e-07
0.00171508
7.80818e-07
0.00171435
7.26172e-07
0.00171368
6.74185e-07
0.00171305
6.24669e-07
0.00171248
5.77465e-07
0.00171194
5.32424e-07
0.00171145
4.8949e-07
0.00171101
4.48382e-07
0.0017106
4.09068e-07
0.00171023
3.71425e-07
0.00170989
3.35477e-07
0.00170959
3.009e-07
0.00170932
2.67739e-07
0.00170909
2.3588e-07
0.00170888
2.05513e-07
0.0017087
1.76082e-07
0.00170856
1.478e-07
0.00170844
1.20551e-07
0.00170834
9.45678e-08
0.00170827
6.93109e-08
0.00170823
4.50334e-08
0.0017082
2.16118e-08
0.00170821
-5.6837e-10
0.00170823
-2.23167e-08
0.00170827
-4.31631e-08
0.00170833
-6.32971e-08
0.00170842
-8.23253e-08
0.00170852
-1.01034e-07
0.00170864
-1.19025e-07
0.00170877
-1.3651e-07
0.00170892
-1.52957e-07
0.00170909
-1.69493e-07
0.00170928
-1.85564e-07
0.00170948
-2.01462e-07
0.0017097
-2.16687e-07
0.00170993
-2.32226e-07
0.00171018
-2.47517e-07
0.00171044
-2.62856e-07
0.00171072
-2.77748e-07
0.00171101
-2.93002e-07
0.00171132
-3.07989e-07
0.00171164
-3.23014e-07
0.00171197
-3.37538e-07
0.00171233
-3.51946e-07
0.00171269
-3.65678e-07
0.00171307
-3.78903e-07
0.00171346
-3.92187e-07
0.00171386
-4.03616e-07
0.00171428
-4.13935e-07
0.0017147
-4.23067e-07
0.00171513
-4.32412e-07
0.00171557
-4.38523e-07
0.00171601
-4.4331e-07
0.00171646
-4.46187e-07
0.0017169
-4.53003e-07
0.00171735
-4.5206e-07
0.0017178
-4.50347e-07
0.00171825
-4.46078e-07
0.00171869
-4.47279e-07
0.00171913
-4.39651e-07
0.00171957
-4.32505e-07
0.00171999
-4.22764e-07
0.00172041
-4.26077e-07
0.00172082
-4.13986e-07
0.00172123
-4.03965e-07
0.00172162
-3.91032e-07
0.00172201
-3.91154e-07
0.00172239
-3.78118e-07
0.00172276
-3.69078e-07
0.00172313
-3.58064e-07
0.00172349
-3.64671e-07
0.00172385
-3.55742e-07
0.0017242
-3.51569e-07
0.00172455
-3.45858e-07
0.00172491
-3.49977e-07
0.00172526
-3.42572e-07
0.00172561
-3.43841e-07
-1.83213e-07
0.00311152
0.00259572
0.00288393
0.000392018
0.00278399
0.000167352
0.00272314
0.000103006
0.0026798
7.38914e-05
0.0026464
5.71457e-05
0.00261943
4.62487e-05
0.00259697
3.85575e-05
0.00257787
3.28289e-05
0.00256135
2.84052e-05
0.00254689
2.48926e-05
0.00253408
2.20389e-05
0.00252265
1.96763e-05
0.00251238
1.76901e-05
0.00250309
1.59984e-05
0.00249465
1.45416e-05
0.00248695
1.32747e-05
0.00247989
1.21637e-05
0.0024734
1.11821e-05
0.00246742
1.03092e-05
0.00246189
9.52831e-06
0.00245677
8.82601e-06
0.00245202
8.19122e-06
0.00244761
7.61516e-06
0.00244349
7.09019e-06
0.00243966
6.61004e-06
0.00243608
6.16921e-06
0.00243274
5.76359e-06
0.00242961
5.38909e-06
0.00242669
5.04245e-06
0.00242395
4.72064e-06
0.00242139
4.42143e-06
0.00241899
4.1425e-06
0.00241673
3.88196e-06
0.00241462
3.63797e-06
0.00241265
3.40938e-06
0.00241079
3.1947e-06
0.00240906
2.99277e-06
0.00240743
2.80243e-06
0.00240591
2.62295e-06
0.00240449
2.45337e-06
0.00240316
2.29297e-06
0.00240192
2.14096e-06
0.00240076
1.99691e-06
0.00239968
1.86014e-06
0.00239867
1.73016e-06
0.00239774
1.60652e-06
0.00239688
1.48877e-06
0.00239608
1.37652e-06
0.00239534
1.26943e-06
0.00239466
1.16729e-06
0.00239404
1.06956e-06
0.00239348
9.76098e-07
0.00239296
8.86626e-07
0.00239249
8.01095e-07
0.00239208
7.18928e-07
0.0023917
6.40118e-07
0.00239138
5.64429e-07
0.00239109
4.92099e-07
0.00239084
4.22203e-07
0.00239064
3.55017e-07
0.00239047
2.90328e-07
0.00239033
2.28449e-07
0.00239023
1.68507e-07
0.00239017
1.10847e-07
0.00239013
5.52609e-08
0.00239013
2.29415e-09
0.00239016
-4.93498e-08
0.00239021
-9.89439e-08
0.0023903
-1.468e-07
0.00239041
-1.92359e-07
0.00239054
-2.36885e-07
0.0023907
-2.79813e-07
0.00239089
-3.21496e-07
0.0023911
-3.61142e-07
0.00239133
-4.00567e-07
0.00239158
-4.38951e-07
0.00239185
-4.76775e-07
0.00239215
-5.13286e-07
0.00239247
-5.50061e-07
0.00239281
-5.8623e-07
0.00239317
-6.22263e-07
0.00239355
-6.57345e-07
0.00239395
-6.92766e-07
0.00239436
-7.27486e-07
0.0023948
-7.61956e-07
0.00239526
-7.95228e-07
0.00239574
-8.27916e-07
0.00239623
-8.59021e-07
0.00239674
-8.88821e-07
0.00239726
-9.18023e-07
0.0023978
-9.43673e-07
0.00239836
-9.66807e-07
0.00239892
-9.87401e-07
0.00239949
-1.00744e-06
0.00240008
-1.02166e-06
0.00240067
-1.03289e-06
0.00240126
-1.04054e-06
0.00240186
-1.05351e-06
0.00240246
-1.05359e-06
0.00240306
-1.0517e-06
0.00240366
-1.04548e-06
0.00240426
-1.04717e-06
0.00240485
-1.03469e-06
0.00240544
-1.02245e-06
0.00240603
-1.00632e-06
0.00240661
-1.01049e-06
0.00240718
-9.90413e-07
0.00240775
-9.73467e-07
0.00240832
-9.5258e-07
0.00240887
-9.52277e-07
0.00240943
-9.31804e-07
0.00240998
-9.17782e-07
0.00241053
-9.01627e-07
0.00241108
-9.13749e-07
0.00241162
-9.01933e-07
0.00241217
-8.98065e-07
0.00241272
-8.92565e-07
0.00241328
-9.03318e-07
0.00241383
-8.902e-07
0.00241439
-8.97689e-07
-4.71641e-07
0.00403426
0.00368821
0.00373892
0.00068736
0.00360103
0.000305244
0.00351841
0.000185629
0.00346051
0.000131791
0.00341635
0.000101301
0.00338092
8.16797e-05
0.00335155
6.79322e-05
0.00332663
5.7742e-05
0.00330514
4.98995e-05
0.00328634
4.36879e-05
0.00326973
3.86509e-05
0.00325492
3.44872e-05
0.00324162
3.0991e-05
0.0032296
2.80162e-05
0.00321869
2.54564e-05
0.00320873
2.32321e-05
0.00319961
2.12827e-05
0.00319123
1.95611e-05
0.00318351
1.8031e-05
0.00317637
1.66626e-05
0.00316977
1.54325e-05
0.00316364
1.4321e-05
0.00315794
1.33125e-05
0.00315264
1.23938e-05
0.00314769
1.15537e-05
0.00314308
1.07827e-05
0.00313877
1.00732e-05
0.00313474
9.4184e-06
0.00313097
8.81235e-06
0.00312744
8.24987e-06
0.00312414
7.72691e-06
0.00312104
7.23946e-06
0.00311814
6.78422e-06
0.00311542
6.35802e-06
0.00311287
5.95869e-06
0.00311048
5.58368e-06
0.00310824
5.23099e-06
0.00310614
4.89863e-06
0.00310418
4.58521e-06
0.00310235
4.28911e-06
0.00310063
4.00904e-06
0.00309903
3.74372e-06
0.00309753
3.49223e-06
0.00309614
3.2535e-06
0.00309484
3.02664e-06
0.00309364
2.81084e-06
0.00309252
2.60534e-06
0.00309149
2.40947e-06
0.00309054
2.2226e-06
0.00308966
2.04433e-06
0.00308885
1.87384e-06
0.00308812
1.71079e-06
0.00308745
1.55472e-06
0.00308685
1.40545e-06
0.0030863
1.26214e-06
0.00308582
1.1247e-06
0.00308539
9.92724e-07
0.00308502
8.66426e-07
0.00308469
7.44578e-07
0.00308442
6.27455e-07
0.0030842
5.14711e-07
0.00308402
4.06684e-07
0.00308389
3.02225e-07
0.00308379
2.01721e-07
0.00308374
1.04839e-07
0.00308373
1.21879e-08
0.00308376
-7.78985e-08
0.00308383
-1.64496e-07
0.00308393
-2.48048e-07
0.00308407
-3.27916e-07
0.00308423
-4.05733e-07
0.00308444
-4.80842e-07
0.00308467
-5.5376e-07
0.00308493
-6.2354e-07
0.00308522
-6.92468e-07
0.00308554
-7.59579e-07
0.00308589
-8.25531e-07
0.00308627
-8.89408e-07
0.00308667
-9.53178e-07
0.0030871
-1.01578e-06
0.00308755
-1.0778e-06
0.00308804
-1.13822e-06
0.00308854
-1.19857e-06
0.00308907
-1.25758e-06
0.00308962
-1.31573e-06
0.0030902
-1.37182e-06
0.0030908
-1.42648e-06
0.00309142
-1.47851e-06
0.00309206
-1.52813e-06
0.00309271
-1.57619e-06
0.00309339
-1.6189e-06
0.00309408
-1.65766e-06
0.00309478
-1.69229e-06
0.0030955
-1.72532e-06
0.00309623
-1.7501e-06
0.00309697
-1.77042e-06
0.00309771
-1.78534e-06
0.00309846
-1.80597e-06
0.00309922
-1.80979e-06
0.00309998
-1.81077e-06
0.00310074
-1.80563e-06
0.0031015
-1.80984e-06
0.00310226
-1.79595e-06
0.00310302
-1.78246e-06
0.00310378
-1.76377e-06
0.00310454
-1.76997e-06
0.00310529
-1.74615e-06
0.00310604
-1.72687e-06
0.0031068
-1.70259e-06
0.00310755
-1.70417e-06
0.0031083
-1.68099e-06
0.00310905
-1.66677e-06
0.0031098
-1.65005e-06
0.00311055
-1.6687e-06
0.00311131
-1.65834e-06
0.00311207
-1.65884e-06
0.00311284
-1.65726e-06
0.00311361
-1.67654e-06
0.00311438
-1.65728e-06
0.00311516
-1.67613e-06
-8.76482e-07
0.00509521
0.00469385
0.00472975
0.00105283
0.00454516
0.00048983
0.00443475
0.000296043
0.00435841
0.000208122
0.00430083
0.000158889
0.00425496
0.000127546
0.00421713
0.000105763
0.00418516
8.97078e-05
0.00415766
7.7402e-05
0.00413366
6.76852e-05
0.00411249
5.98246e-05
0.00409364
5.33392e-05
0.00407673
4.79018e-05
0.00406146
4.32812e-05
0.00404761
3.93095e-05
0.00403498
3.58614e-05
0.00402342
3.28419e-05
0.00401281
3.01772e-05
0.00400303
2.78102e-05
0.00399399
2.56945e-05
0.00398563
2.37934e-05
0.00397788
2.20765e-05
0.00397067
2.05193e-05
0.00396396
1.91011e-05
0.00395771
1.78048e-05
0.00395188
1.66154e-05
0.00394643
1.55212e-05
0.00394134
1.45115e-05
0.00393657
1.35773e-05
0.00393211
1.27104e-05
0.00392794
1.19045e-05
0.00392402
1.11535e-05
0.00392035
1.04523e-05
0.00391692
9.79595e-06
0.00391369
9.181e-06
0.00391067
8.6036e-06
0.00390784
8.06063e-06
0.00390519
7.54906e-06
0.00390271
7.06666e-06
0.00390039
6.61097e-06
0.00389822
6.18e-06
0.00389619
5.77179e-06
0.0038943
5.38488e-06
0.00389253
5.01763e-06
0.00389089
4.66868e-06
0.00388937
4.33677e-06
0.00388795
4.02073e-06
0.00388664
3.71951e-06
0.00388543
3.43218e-06
0.00388432
3.15803e-06
0.0038833
2.89591e-06
0.00388236
2.64525e-06
0.00388151
2.40535e-06
0.00388074
2.17584e-06
0.00388005
1.95559e-06
0.00387943
1.74437e-06
0.00387888
1.54158e-06
0.0038784
1.34737e-06
0.00387798
1.16017e-06
0.00387763
9.80234e-07
0.00387734
8.07061e-07
0.0038771
6.40973e-07
0.00387692
4.80531e-07
0.0038768
3.26125e-07
0.00387673
1.77293e-07
0.0038767
3.46739e-08
0.00387673
-1.03829e-07
0.0038768
-2.37105e-07
0.00387692
-3.65672e-07
0.00387708
-4.88864e-07
0.00387728
-6.0869e-07
0.00387753
-7.24434e-07
0.00387781
-8.36762e-07
0.00387813
-9.44581e-07
0.00387849
-1.05066e-06
0.00387888
-1.1539e-06
0.00387931
-1.2551e-06
0.00387978
-1.35319e-06
0.00388027
-1.45054e-06
0.0038808
-1.54587e-06
0.00388137
-1.63991e-06
0.00388196
-1.73138e-06
0.00388258
-1.82214e-06
0.00388324
-1.91061e-06
0.00388392
-1.99737e-06
0.00388463
-2.08092e-06
0.00388536
-2.16202e-06
0.00388612
-2.23918e-06
0.00388691
-2.3127e-06
0.00388771
-2.38346e-06
0.00388854
-2.44702e-06
0.00388939
-2.50504e-06
0.00389025
-2.55736e-06
0.00389113
-2.60691e-06
0.00389203
-2.64587e-06
0.00389294
-2.67878e-06
0.00389386
-2.70469e-06
0.00389479
-2.73671e-06
0.00389572
-2.74815e-06
0.00389667
-2.75573e-06
0.00389762
-2.75576e-06
0.00389857
-2.76651e-06
0.00389953
-2.75545e-06
0.00390049
-2.74468e-06
0.00390146
-2.72777e-06
0.00390243
-2.74041e-06
0.0039034
-2.71719e-06
0.00390437
-2.69943e-06
0.00390535
-2.67594e-06
0.00390632
-2.6833e-06
0.0039073
-2.66124e-06
0.00390829
-2.64995e-06
0.00390928
-2.63592e-06
0.00391027
-2.66418e-06
0.00391127
-2.65777e-06
0.00391228
-2.66434e-06
0.00391329
-2.6681e-06
0.00391431
-2.69696e-06
0.00391533
-2.66831e-06
0.00391635
-2.69801e-06
-1.40489e-06
0.00634387
0.00561001
0.00590982
0.00148688
0.00566913
0.000730515
0.00552327
0.000441904
0.00542325
0.000308148
0.0053485
0.000233634
0.00528942
0.000186628
0.00524096
0.00015422
0.00520019
0.000130482
0.00516522
0.000112371
0.00513478
9.81207e-05
0.00510798
8.66251e-05
0.00508416
7.71619e-05
0.00506282
6.92426e-05
0.00504358
6.25234e-05
0.00502613
5.67553e-05
0.00501024
5.17531e-05
0.0049957
4.73769e-05
0.00498236
4.35183e-05
0.00497008
4.00931e-05
0.00495874
3.70338e-05
0.00494825
3.42863e-05
0.00493852
3.18063e-05
0.00492948
2.95581e-05
0.00492107
2.75114e-05
0.00491323
2.56413e-05
0.00490592
2.39261e-05
0.00489909
2.23488e-05
0.00489271
2.08937e-05
0.00488674
1.95476e-05
0.00488115
1.82991e-05
0.00487592
1.71386e-05
0.00487102
1.60574e-05
0.00486642
1.5048e-05
0.00486211
1.41035e-05
0.00485807
1.32187e-05
0.00485429
1.2388e-05
0.00485074
1.1607e-05
0.00484742
1.08713e-05
0.00484431
1.01777e-05
0.0048414
9.52252e-06
0.00483868
8.90299e-06
0.00483613
8.31628e-06
0.00483376
7.76022e-06
0.00483154
7.23247e-06
0.00482948
6.73108e-06
0.00482756
6.25423e-06
0.00482578
5.80022e-06
0.00482413
5.36757e-06
0.00482261
4.95488e-06
0.00482121
4.56113e-06
0.00481992
4.18472e-06
0.00481874
3.82482e-06
0.00481766
3.48039e-06
0.00481669
3.15083e-06
0.00481581
2.83468e-06
0.00481502
2.53151e-06
0.00481432
2.24047e-06
0.00481371
1.9616e-06
0.00481318
1.693e-06
0.00481272
1.43482e-06
0.00481234
1.18638e-06
0.00481204
9.47941e-07
0.0048118
7.1777e-07
0.00481163
4.96232e-07
0.00481152
2.82682e-07
0.00481148
7.77567e-08
0.0048115
-1.21093e-07
0.00481157
-3.12606e-07
0.0048117
-4.97348e-07
0.00481189
-6.74656e-07
0.00481213
-8.46896e-07
0.00481242
-1.01332e-06
0.00481276
-1.17477e-06
0.00481314
-1.33007e-06
0.00481357
-1.48236e-06
0.00481405
-1.63044e-06
0.00481457
-1.77531e-06
0.00481513
-1.91575e-06
0.00481574
-2.05444e-06
0.00481638
-2.18997e-06
0.00481706
-2.32317e-06
0.00481778
-2.45261e-06
0.00481854
-2.58033e-06
0.00481934
-2.70457e-06
0.00482016
-2.82598e-06
0.00482103
-2.94285e-06
0.00482192
-3.05598e-06
0.00482284
-3.16375e-06
0.0048238
-3.26642e-06
0.00482478
-3.36502e-06
0.00482579
-3.45448e-06
0.00482682
-3.53684e-06
0.00482787
-3.61176e-06
0.00482895
-3.6827e-06
0.00483004
-3.74072e-06
0.00483115
-3.79132e-06
0.00483228
-3.83312e-06
0.00483343
-3.88104e-06
0.00483458
-3.90504e-06
0.00483575
-3.92448e-06
0.00483693
-3.93459e-06
0.00483812
-3.95642e-06
0.00483932
-3.95308e-06
0.00484052
-3.95022e-06
0.00484173
-3.93972e-06
0.00484295
-3.96211e-06
0.00484418
-3.94384e-06
0.00484541
-3.93217e-06
0.00484665
-3.91325e-06
0.0048479
-3.92904e-06
0.00484915
-3.91123e-06
0.0048504
-3.90603e-06
0.00485167
-3.89687e-06
0.00485294
-3.93491e-06
0.00485421
-3.93367e-06
0.0048555
-3.94725e-06
0.00485679
-3.95624e-06
0.00485808
-3.9934e-06
0.00485937
-3.94991e-06
0.00486066
-3.99173e-06
-2.07426e-06
0.00782498
0.00642447
0.00732969
0.00198217
0.00702383
0.00103637
0.00683327
0.000632459
0.00670272
0.000438696
0.00660586
0.000330497
0.00652983
0.000262659
0.00646783
0.000216225
0.00641588
0.000182423
0.00637149
0.000156761
0.00633297
0.000136647
0.00629912
0.000120473
0.00626909
0.000107193
0.00624223
9.61033e-05
0.00621804
8.67109e-05
0.00619614
7.86603e-05
0.0061762
7.1688e-05
0.00615798
6.55951e-05
0.00614127
6.02283e-05
0.0061259
5.54684e-05
0.00611171
5.12203e-05
0.00609859
4.74078e-05
0.00608643
4.39688e-05
0.00607513
4.08529e-05
0.00606463
3.80178e-05
0.00605484
3.54284e-05
0.00604571
3.30548e-05
0.00603719
3.08728e-05
0.00602922
2.88604e-05
0.00602177
2.69996e-05
0.00601479
2.52741e-05
0.00600826
2.36708e-05
0.00600214
2.21774e-05
0.0059964
2.07835e-05
0.00599103
1.94797e-05
0.00598599
1.82584e-05
0.00598126
1.71122e-05
0.00597684
1.60346e-05
0.00597269
1.50199e-05
0.0059688
1.40632e-05
0.00596517
1.31598e-05
0.00596176
1.23057e-05
0.00595858
1.1497e-05
0.00595561
1.07306e-05
0.00595284
1.00033e-05
0.00595026
9.31242e-06
0.00594786
8.65545e-06
0.00594563
8.03004e-06
0.00594356
7.43411e-06
0.00594165
6.86576e-06
0.00593989
6.32348e-06
0.00593827
5.80521e-06
0.00593678
5.30971e-06
0.00593543
4.83556e-06
0.0059342
4.38185e-06
0.00593308
3.94673e-06
0.00593209
3.52949e-06
0.0059312
3.12901e-06
0.00593041
2.74516e-06
0.00592973
2.37562e-06
0.00592915
2.02044e-06
0.00592865
1.6787e-06
0.00592825
1.35057e-06
0.00592794
1.03397e-06
0.0059277
7.29213e-07
0.00592755
4.35444e-07
0.00592747
1.53303e-07
0.00592747
-1.20346e-07
0.00592754
-3.84128e-07
0.00592769
-6.38579e-07
0.00592789
-8.83042e-07
0.00592817
-1.12029e-06
0.0059285
-1.34955e-06
0.0059289
-1.57187e-06
0.00592936
-1.78594e-06
0.00592987
-1.99537e-06
0.00593044
-2.19884e-06
0.00593106
-2.39753e-06
0.00593173
-2.59007e-06
0.00593246
-2.77954e-06
0.00593323
-2.96434e-06
0.00593406
-3.14544e-06
0.00593492
-3.32124e-06
0.00593584
-3.49406e-06
0.00593679
-3.66193e-06
0.00593779
-3.82561e-06
0.00593883
-3.98316e-06
0.00593991
-4.13553e-06
0.00594103
-4.28091e-06
0.00594218
-4.41963e-06
0.00594337
-4.55281e-06
0.00594459
-4.67484e-06
0.00594584
-4.78803e-06
0.00594712
-4.89206e-06
0.00594843
-4.9908e-06
0.00594976
-5.07427e-06
0.00595112
-5.14869e-06
0.0059525
-5.21258e-06
0.0059539
-5.28271e-06
0.00595532
-5.32528e-06
0.00595676
-5.36224e-06
0.00595821
-5.38813e-06
0.00595968
-5.42668e-06
0.00596116
-5.4363e-06
0.00596266
-5.44604e-06
0.00596417
-5.44658e-06
0.00596569
-5.48366e-06
0.00596722
-5.47424e-06
0.00596876
-5.4718e-06
0.0059703
-5.46039e-06
0.00597186
-5.48746e-06
0.00597343
-5.4758e-06
0.005975
-5.47767e-06
0.00597658
-5.47402e-06
0.00597817
-5.52279e-06
0.00597976
-5.52609e-06
0.00598136
-5.54517e-06
0.00598296
-5.55725e-06
0.00598457
-5.60045e-06
0.00598615
-5.53406e-06
0.00598775
-5.58402e-06
-2.89552e-06
0.00958315
0.0071223
0.00904307
0.00252225
0.0086654
0.00141405
0.00841974
0.00087812
0.00825013
0.000608298
0.00812471
0.000455922
0.00802681
0.000360556
0.0079474
0.000295638
0.00788117
0.000248652
0.00782478
0.000213153
0.00777598
0.000185443
0.00773322
0.000163237
0.00769536
0.000145056
0.00766155
0.00012991
0.00763115
0.000117108
0.00760366
0.000106154
0.00757866
9.66823e-05
0.00755584
8.84157e-05
0.00753493
8.11428e-05
0.0075157
7.46989e-05
0.00749796
6.89532e-05
0.00748157
6.38009e-05
0.00746638
5.91567e-05
0.00745229
5.49517e-05
0.00743917
5.1128e-05
0.00742697
4.76377e-05
0.00741558
4.44399e-05
0.00740495
4.15015e-05
0.00739502
3.87928e-05
0.00738573
3.6289e-05
0.00737704
3.39683e-05
0.00736889
3.18126e-05
0.00736127
2.98053e-05
0.00735412
2.79324e-05
0.00734742
2.61811e-05
0.00734113
2.4541e-05
0.00733524
2.30021e-05
0.00732972
2.15557e-05
0.00732455
2.0194e-05
0.0073197
1.89104e-05
0.00731516
1.76986e-05
0.00731091
1.65531e-05
0.00730694
1.54687e-05
0.00730323
1.44412e-05
0.00729977
1.34663e-05
0.00729654
1.25404e-05
0.00729354
1.16601e-05
0.00729074
1.08221e-05
0.00728815
1.00238e-05
0.00728576
9.26253e-06
0.00728355
8.53622e-06
0.00728151
7.8422e-06
0.00727964
7.17875e-06
0.00727793
6.54397e-06
0.00727638
5.93655e-06
0.00727497
5.35415e-06
0.0072737
4.79576e-06
0.00727257
4.25986e-06
0.00727157
3.74609e-06
0.00727069
3.25171e-06
0.00726994
2.77656e-06
0.0072693
2.31944e-06
0.00726877
1.88038e-06
0.00726834
1.45692e-06
0.00726802
1.04928e-06
0.0072678
6.56335e-07
0.00726768
2.78711e-07
0.00726765
-8.73566e-08
0.0072677
-4.40495e-07
0.00726784
-7.81187e-07
0.00726807
-1.10875e-06
0.00726838
-1.42636e-06
0.00726876
-1.73326e-06
0.00726922
-2.03073e-06
0.00726975
-2.31739e-06
0.00727035
-2.59726e-06
0.00727102
-2.86893e-06
0.00727176
-3.13381e-06
0.00727256
-3.39043e-06
0.00727342
-3.64219e-06
0.00727434
-3.88737e-06
0.00727533
-4.12713e-06
0.00727636
-4.35973e-06
0.00727746
-4.58773e-06
0.0072786
-4.80902e-06
0.0072798
-5.02449e-06
0.00728105
-5.23205e-06
0.00728235
-5.43272e-06
0.00728369
-5.62464e-06
0.00728508
-5.80812e-06
0.00728651
-5.98446e-06
0.00728798
-6.14748e-06
0.0072895
-6.29993e-06
0.00729104
-6.44121e-06
0.00729263
-6.5758e-06
0.00729425
-6.69259e-06
0.0072959
-6.7988e-06
0.00729758
-6.89232e-06
0.00729929
-6.99166e-06
0.00730102
-7.05993e-06
0.00730278
-7.1216e-06
0.00730456
-7.16979e-06
0.00730636
-7.23098e-06
0.00730819
-7.25941e-06
0.00731003
-7.28762e-06
0.00731189
-7.30411e-06
0.00731376
-7.35926e-06
0.00731565
-7.3626e-06
0.00731755
-7.37324e-06
0.00731946
-7.37203e-06
0.00732139
-7.41177e-06
0.00732332
-7.40766e-06
0.00732526
-7.41783e-06
0.00732721
-7.41967e-06
0.00732916
-7.47705e-06
0.00733112
-7.48348e-06
0.00733308
-7.50628e-06
0.00733504
-7.51843e-06
0.00733701
-7.56348e-06
0.00733894
-7.46449e-06
0.00734088
-7.52141e-06
-3.89671e-06
0.0116649
0.00769175
0.0111083
0.00307885
0.0106583
0.00186413
0.0103471
0.00118928
0.0101283
0.000827098
0.00996616
0.000618058
0.00984002
0.0004867
0.00973813
0.000397522
0.00965352
0.000333268
0.00958173
0.000284941
0.0095198
0.000247369
0.00946568
0.000217365
0.00941786
0.000192873
0.00937524
0.000172524
0.00933699
0.000155363
0.00930244
0.000140707
0.00927106
0.000128056
0.00924245
0.000117031
0.00921625
0.000107344
0.00919217
9.87715e-05
0.00916999
9.11358e-05
0.0091495
8.42951e-05
0.00913052
7.81345e-05
0.00911291
7.25607e-05
0.00909654
6.74959e-05
0.0090813
6.28757e-05
0.0090671
5.86454e-05
0.00905384
5.47602e-05
0.00904145
5.11805e-05
0.00902987
4.78733e-05
0.00901903
4.48092e-05
0.00900888
4.19642e-05
0.00899936
3.9316e-05
0.00899045
3.68461e-05
0.00898209
3.45372e-05
0.00897426
3.23757e-05
0.00896691
3.03481e-05
0.00896003
2.8443e-05
0.00895357
2.66499e-05
0.00894752
2.496e-05
0.00894185
2.33651e-05
0.00893655
2.18577e-05
0.00893159
2.04311e-05
0.00892695
1.90796e-05
0.00892262
1.77976e-05
0.00891858
1.65802e-05
0.00891482
1.54229e-05
0.00891132
1.43215e-05
0.00890807
1.32724e-05
0.00890506
1.22722e-05
0.00890228
1.1318e-05
0.00889971
1.04063e-05
0.00889736
9.53502e-06
0.0088952
8.70145e-06
0.00889323
7.90385e-06
0.00889145
7.13928e-06
0.00888984
6.40631e-06
0.00888839
5.70296e-06
0.00888711
5.02858e-06
0.00888598
4.37987e-06
0.008885
3.75646e-06
0.00888416
3.15676e-06
0.00888346
2.58064e-06
0.0088829
2.02518e-06
0.00888245
1.49044e-06
0.00888214
9.75013e-07
0.00888193
4.79488e-07
0.00888185
-6.08356e-10
0.00888187
-4.64067e-07
0.008882
-9.11327e-07
0.00888223
-1.34154e-06
0.00888257
-1.75839e-06
0.00888299
-2.16112e-06
0.00888351
-2.55129e-06
0.00888412
-2.92744e-06
0.00888482
-3.29408e-06
0.0088856
-3.64971e-06
0.00888646
-3.996e-06
0.00888741
-4.33135e-06
0.00888842
-4.65961e-06
0.00888951
-4.97892e-06
0.00889068
-5.29064e-06
0.00889191
-5.5929e-06
0.00889321
-5.88862e-06
0.00889458
-6.17553e-06
0.00889601
-6.45469e-06
0.0088975
-6.72385e-06
0.00889905
-6.98422e-06
0.00890066
-7.23381e-06
0.00890232
-7.473e-06
0.00890404
-7.70326e-06
0.00890581
-7.91787e-06
0.00890763
-8.11989e-06
0.0089095
-8.30862e-06
0.00891141
-8.48904e-06
0.00891337
-8.64892e-06
0.00891537
-8.79625e-06
0.0089174
-8.92857e-06
0.00891948
-9.06631e-06
0.00892158
-9.16875e-06
0.00892372
-9.26301e-06
0.0089259
-9.34109e-06
0.0089281
-9.43233e-06
0.00893032
-9.48607e-06
0.00893257
-9.53842e-06
0.00893485
-9.57609e-06
0.00893714
-9.6549e-06
0.00893945
-9.67482e-06
0.00894178
-9.70141e-06
0.00894412
-9.71264e-06
0.00894648
-9.76729e-06
0.00894884
-9.77136e-06
0.00895121
-9.78945e-06
0.00895359
-9.79572e-06
0.00895597
-9.86126e-06
0.00895836
-9.8681e-06
0.00896075
-9.89105e-06
0.00896313
-9.89881e-06
0.00896551
-9.94136e-06
0.00896784
-9.79781e-06
0.00897018
-9.85536e-06
-5.10011e-06
0.0141222
0.00812849
0.0135876
0.00361341
0.013076
0.0023758
0.0126916
0.00157368
0.0124125
0.00110616
0.0122038
0.000826792
0.0120413
0.000649181
0.0119104
0.000528424
0.0118021
0.000441626
0.0117104
0.000376571
0.0116316
0.000326175
0.0115629
0.000286065
0.0115024
0.000253426
0.0114485
0.00022638
0.0114002
0.000203625
0.0113567
0.000184235
0.0113172
0.000167526
0.0112813
0.00015299
0.0112484
0.000140237
0.0112182
0.000128965
0.0111904
0.000118938
0.0111647
0.000109964
0.011141
0.00010189
0.0111189
9.45917e-05
0.0110985
8.79652e-05
0.0110794
8.1925e-05
0.0110617
7.63983e-05
0.0110451
7.13257e-05
0.0110296
6.66547e-05
0.0110152
6.23415e-05
0.0110016
5.83476e-05
0.0109889
5.46408e-05
0.0109771
5.11922e-05
0.0109659
4.79769e-05
0.0109555
4.49726e-05
0.0109457
4.21609e-05
0.0109365
3.95244e-05
0.0109279
3.70479e-05
0.0109199
3.47179e-05
0.0109123
3.25226e-05
0.0109052
3.04512e-05
0.0108986
2.8494e-05
0.0108924
2.66422e-05
0.0108866
2.48883e-05
0.0108811
2.32249e-05
0.0108761
2.16457e-05
0.0108714
2.01448e-05
0.010867
1.87168e-05
0.0108629
1.73567e-05
0.0108591
1.60603e-05
0.0108556
1.48237e-05
0.0108523
1.36425e-05
0.0108494
1.25137e-05
0.0108466
1.1434e-05
0.0108441
1.0401e-05
0.0108419
9.41098e-06
0.0108398
8.46202e-06
0.010838
7.55155e-06
0.0108363
6.67851e-06
0.0108348
5.83901e-06
0.0108336
5.03232e-06
0.0108325
4.25642e-06
0.0108315
3.5109e-06
0.0108308
2.79235e-06
0.0108302
2.10061e-06
0.0108297
1.4339e-06
0.0108294
7.92685e-07
0.0108292
1.7195e-07
0.0108292
-4.27575e-07
0.0108293
-1.0065e-06
0.0108295
-1.56356e-06
0.0108298
-2.10293e-06
0.0108303
-2.62394e-06
0.0108309
-3.12846e-06
0.0108316
-3.61501e-06
0.0108324
-4.08856e-06
0.0108333
-4.5476e-06
0.0108343
-4.99406e-06
0.0108354
-5.42633e-06
0.0108365
-5.84862e-06
0.0108378
-6.25903e-06
0.0108392
-6.65915e-06
0.0108407
-7.04709e-06
0.0108422
-7.42603e-06
0.0108438
-7.79367e-06
0.0108455
-8.15123e-06
0.0108473
-8.49643e-06
0.0108491
-8.83056e-06
0.010851
-9.15167e-06
0.010853
-9.46009e-06
0.0108551
-9.75753e-06
0.0108572
-1.00367e-05
0.0108594
-1.03012e-05
0.0108616
-1.05499e-05
0.0108639
-1.07883e-05
0.0108663
-1.10032e-05
0.0108687
-1.12034e-05
0.0108711
-1.13857e-05
0.0108736
-1.15722e-05
0.0108762
-1.17191e-05
0.0108788
-1.1856e-05
0.0108814
-1.19731e-05
0.0108841
-1.21027e-05
0.0108868
-1.21896e-05
0.0108895
-1.22738e-05
0.0108923
-1.2339e-05
0.0108951
-1.2446e-05
0.0108979
-1.24873e-05
0.0109007
-1.25343e-05
0.0109036
-1.25609e-05
0.0109064
-1.26319e-05
0.0109093
-1.26452e-05
0.0109122
-1.2672e-05
0.0109151
-1.2682e-05
0.010918
-1.27525e-05
0.0109209
-1.27572e-05
0.0109237
-1.27773e-05
0.0109266
-1.27762e-05
0.0109295
-1.28104e-05
0.0109323
-1.26093e-05
0.0109351
-1.26644e-05
-6.55205e-06
0.0170157
0.00843801
0.0165448
0.00408431
0.0160001
0.0029205
0.0155424
0.00203134
0.0151931
0.00145547
0.0149266
0.00109326
0.0147179
0.000857872
0.0145497
0.000696631
0.0144107
0.000580626
0.0142935
0.000493825
0.0141929
0.000426762
0.0141054
0.00037354
0.0140285
0.000330354
0.0139602
0.000294663
0.0138991
0.000264709
0.0138441
0.000239239
0.0137943
0.000217334
0.013749
0.000198312
0.0137076
0.00018165
0.0136696
0.000166945
0.0136347
0.000153879
0.0136024
0.000142201
0.0135726
0.000131705
0.013545
0.000122227
0.0135193
0.00011363
0.0134954
0.000105799
0.0134732
9.86403e-05
0.0134524
9.2074e-05
0.0134331
8.60317e-05
0.013415
8.04557e-05
0.013398
7.52956e-05
0.0133821
7.0509e-05
0.0133673
6.60579e-05
0.0133533
6.191e-05
0.0133403
5.80362e-05
0.013328
5.44122e-05
0.0133165
5.10152e-05
0.0133058
4.78258e-05
0.0132956
4.48259e-05
0.0132862
4.20006e-05
0.0132773
3.93355e-05
0.013269
3.68181e-05
0.0132612
3.4437e-05
0.0132539
3.21824e-05
0.0132471
3.00448e-05
0.0132407
2.80158e-05
0.0132347
2.60879e-05
0.0132292
2.42541e-05
0.013224
2.25079e-05
0.0132193
2.08438e-05
0.0132148
1.92567e-05
0.0132107
1.77412e-05
0.013207
1.62931e-05
0.0132035
1.49083e-05
0.0132003
1.35834e-05
0.0131974
1.23141e-05
0.0131948
1.10975e-05
0.0131924
9.93058e-06
0.0131902
8.81158e-06
0.0131883
7.73589e-06
0.0131867
6.70238e-06
0.0131852
5.70846e-06
0.013184
4.7534e-06
0.0131829
3.83313e-06
0.0131821
2.94725e-06
0.0131814
2.09349e-06
0.013181
1.27217e-06
0.0131807
4.77758e-07
0.0131805
-2.89731e-07
0.0131805
-1.03137e-06
0.0131807
-1.74525e-06
0.0131811
-2.43604e-06
0.0131815
-3.10321e-06
0.0131822
-3.74896e-06
0.0131829
-4.37179e-06
0.0131838
-4.97727e-06
0.0131848
-5.56384e-06
0.013186
-6.13381e-06
0.0131872
-6.68547e-06
0.0131886
-7.22357e-06
0.0131901
-7.74613e-06
0.0131917
-8.25508e-06
0.0131934
-8.74843e-06
0.0131952
-9.22985e-06
0.0131971
-9.69691e-06
0.0131991
-1.01511e-05
0.0132012
-1.05901e-05
0.0132034
-1.10155e-05
0.0132056
-1.14251e-05
0.013208
-1.18194e-05
0.0132104
-1.22005e-05
0.013213
-1.25603e-05
0.0132156
-1.29029e-05
0.0132182
-1.32269e-05
0.013221
-1.35384e-05
0.0132238
-1.38229e-05
0.0132267
-1.40901e-05
0.0132296
-1.4336e-05
0.0132327
-1.45849e-05
0.0132357
-1.47887e-05
0.0132388
-1.49802e-05
0.013242
-1.51476e-05
0.0132452
-1.53263e-05
0.0132485
-1.54561e-05
0.0132518
-1.55806e-05
0.0132552
-1.56812e-05
0.0132585
-1.58244e-05
0.0132619
-1.58928e-05
0.0132654
-1.59647e-05
0.0132688
-1.60104e-05
0.0132723
-1.61011e-05
0.0132758
-1.61251e-05
0.0132793
-1.61607e-05
0.0132828
-1.61735e-05
0.0132862
-1.62488e-05
0.0132897
-1.62482e-05
0.0132932
-1.62613e-05
0.0132967
-1.62459e-05
0.0133002
-1.62665e-05
0.0133035
-1.59926e-05
0.0133069
-1.60368e-05
-8.29279e-06
0.0204181
0.00863699
0.020045
0.00445733
0.0195159
0.00344959
0.0190009
0.0025464
0.0185768
0.00187952
0.018242
0.00142811
0.0179759
0.00112395
0.0177603
0.000912207
0.017582
0.000758946
0.0174317
0.000644117
0.017303
0.000555474
0.0171913
0.000485259
0.0170932
0.000428414
0.0170063
0.000381544
0.0169288
0.000342298
0.016859
0.000308997
0.0167959
0.000280415
0.0167386
0.00025564
0.0166863
0.000233975
0.0166383
0.000214884
0.0165943
0.000197946
0.0165536
0.000182826
0.0165161
0.000169253
0.0164813
0.000157009
0.016449
0.000145914
0.016419
0.000135818
0.016391
0.000126596
0.016365
0.000118145
0.0163406
0.000110374
0.0163179
0.000103207
0.0162966
9.65792e-05
0.0162767
9.04349e-05
0.016258
8.47247e-05
0.0162405
7.94064e-05
0.0162241
7.4442e-05
0.0162087
6.97999e-05
0.0161943
6.54507e-05
0.0161807
6.13689e-05
0.016168
5.75313e-05
0.0161561
5.39184e-05
0.0161449
5.05116e-05
0.0161345
4.72948e-05
0.0161246
4.42533e-05
0.0161154
4.13741e-05
0.0161068
3.86452e-05
0.0160988
3.60558e-05
0.0160913
3.3596e-05
0.0160843
3.12568e-05
0.0160778
2.90302e-05
0.0160717
2.69086e-05
0.0160661
2.48856e-05
0.0160609
2.29544e-05
0.016056
2.11095e-05
0.0160516
1.93456e-05
0.0160475
1.76584e-05
0.0160438
1.60422e-05
0.0160404
1.44936e-05
0.0160373
1.30083e-05
0.0160346
1.15842e-05
0.0160321
1.02156e-05
0.0160299
8.90092e-06