/*--------------------------------*- C++ -*----------------------------------*\
  =========                 |
  \\      /  F ield         | OpenFOAM: The Open Source CFD Toolbox
   \\    /   O peration     | Website:  https://openfoam.org
    \\  /    A nd           | Version:  8
     \\/     M anipulation  |
\*---------------------------------------------------------------------------*/
FoamFile
{
    version     2.0;
    format      ascii;
    class       volVectorField;
    location    "1000";
    object      U;
}
// * * * * * * * * * * * * * * * * * * * * * * * * * * * * * * * * * * * * * //

dimensions      [0 1 -1 0 0 0 0];

internalField   nonuniform List<vector> 
7320
(
(22.6429 -0.848127 0)
(20.2991 -0.0156863 0)
(19.4729 0.000192381 0)
(18.9932 0.000303712 0)
(18.6577 0.000223815 0)
(18.4025 0.000174267 0)
(18.1985 0.000141577 0)
(18.0298 0.000118313 0)
(17.8872 0.000100895 0)
(17.7644 8.73982e-05 0)
(17.6573 7.66541e-05 0)
(17.5629 6.79091e-05 0)
(17.4788 6.0659e-05 0)
(17.4034 5.4557e-05 0)
(17.3353 4.93545e-05 0)
(17.2736 4.48714e-05 0)
(17.2174 4.09706e-05 0)
(17.1659 3.75482e-05 0)
(17.1186 3.45219e-05 0)
(17.0751 3.18307e-05 0)
(17.035 2.94224e-05 0)
(16.9978 2.7256e-05 0)
(16.9633 2.52966e-05 0)
(16.9313 2.35188e-05 0)
(16.9015 2.18984e-05 0)
(16.8737 2.04161e-05 0)
(16.8478 1.90539e-05 0)
(16.8236 1.78014e-05 0)
(16.801 1.66448e-05 0)
(16.7798 1.55742e-05 0)
(16.76 1.45794e-05 0)
(16.7415 1.36552e-05 0)
(16.7241 1.27935e-05 0)
(16.7078 1.19887e-05 0)
(16.6926 1.12336e-05 0)
(16.6783 1.05274e-05 0)
(16.6649 9.86404e-06 0)
(16.6523 9.24017e-06 0)
(16.6406 8.65121e-06 0)
(16.6296 8.0967e-06 0)
(16.6193 7.57256e-06 0)
(16.6097 7.07686e-06 0)
(16.6007 6.60622e-06 0)
(16.5923 6.16105e-06 0)
(16.5845 5.7382e-06 0)
(16.5772 5.33649e-06 0)
(16.5704 4.95385e-06 0)
(16.5641 4.5899e-06 0)
(16.5583 4.2427e-06 0)
(16.553 3.91149e-06 0)
(16.548 3.5958e-06 0)
(16.5435 3.29357e-06 0)
(16.5394 3.00426e-06 0)
(16.5356 2.72739e-06 0)
(16.5322 2.46322e-06 0)
(16.5291 2.20889e-06 0)
(16.5264 1.96467e-06 0)
(16.5239 1.73004e-06 0)
(16.5218 1.50798e-06 0)
(16.52 1.29124e-06 0)
(16.5184 1.08265e-06 0)
(16.5171 8.81713e-07 0)
(16.5161 6.91715e-07 0)
(16.5153 5.05389e-07 0)
(16.5147 3.26021e-07 0)
(16.5144 1.52867e-07 0)
(16.5143 -7.09384e-09 0)
(16.5144 -1.67967e-07 0)
(16.5147 -3.22102e-07 0)
(16.5153 -4.70921e-07 0)
(16.516 -6.07821e-07 0)
(16.5168 -7.46166e-07 0)
(16.5179 -8.79057e-07 0)
(16.5191 -1.00846e-06 0)
(16.5205 -1.12254e-06 0)
(16.5221 -1.24571e-06 0)
(16.5238 -1.3646e-06 0)
(16.5257 -1.48343e-06 0)
(16.5277 -1.58923e-06 0)
(16.5299 -1.7073e-06 0)
(16.5322 -1.8215e-06 0)
(16.5346 -1.9394e-06 0)
(16.5373 -2.03577e-06 0)
(16.54 -2.15618e-06 0)
(16.5429 -2.27107e-06 0)
(16.546 -2.39377e-06 0)
(16.5491 -2.48886e-06 0)
(16.5525 -2.60918e-06 0)
(16.5559 -2.71759e-06 0)
(16.5595 -2.83133e-06 0)
(16.5632 -2.90601e-06 0)
(16.5671 -3.00376e-06 0)
(16.571 -3.0878e-06 0)
(16.5751 -3.17369e-06 0)
(16.5792 -3.22934e-06 0)
(16.5834 -3.28544e-06 0)
(16.5877 -3.32606e-06 0)
(16.592 -3.35643e-06 0)
(16.5963 -3.40395e-06 0)
(16.6006 -3.3896e-06 0)
(16.605 -3.37212e-06 0)
(16.6093 -3.32726e-06 0)
(16.6136 -3.35712e-06 0)
(16.6179 -3.2707e-06 0)
(16.6221 -3.20082e-06 0)
(16.6263 -3.08834e-06 0)
(16.6304 -3.2005e-06 0)
(16.6344 -3.05637e-06 0)
(16.6383 -2.94842e-06 0)
(16.6422 -2.77132e-06 0)
(16.646 -2.8653e-06 0)
(16.6497 -2.68248e-06 0)
(16.6533 -2.56989e-06 0)
(16.6569 -2.3864e-06 0)
(16.6604 -2.62278e-06 0)
(16.6639 -2.46758e-06 0)
(16.6673 -2.38968e-06 0)
(16.6707 -2.22628e-06 0)
(16.6741 -2.34354e-06 0)
(16.6776 -2.20638e-06 0)
(16.6809 -2.1878e-06 0)
(16.6844 -1.11247e-06 0)
(26.6037 0.16714 0)
(23.9491 0.00743101 0)
(22.9106 0.00132356 0)
(22.324 0.00076137 0)
(21.922 0.00054753 0)
(21.6197 0.000424673 0)
(21.3794 0.000344309 0)
(21.1815 0.00028738 0)
(21.0145 0.000244876 0)
(20.8711 0.000212 0)
(20.7461 0.000185864 0)
(20.636 0.000164611 0)
(20.5381 0.000147003 0)
(20.4503 0.000132192 0)
(20.3712 0.000119571 0)
(20.2994 0.000108698 0)
(20.2341 9.92406e-05 0)
(20.1743 9.09444e-05 0)
(20.1194 8.36115e-05 0)
(20.0688 7.70903e-05 0)
(20.0222 7.12554e-05 0)
(19.979 6.60069e-05 0)
(19.939 6.12617e-05 0)
(19.9018 5.69555e-05 0)
(19.8672 5.30308e-05 0)
(19.835 4.94409e-05 0)
(19.8049 4.61438e-05 0)
(19.7769 4.31105e-05 0)
(19.7506 4.03098e-05 0)
(19.7261 3.77173e-05 0)
(19.7031 3.53096e-05 0)
(19.6816 3.30717e-05 0)
(19.6615 3.09851e-05 0)
(19.6426 2.90362e-05 0)
(19.6249 2.721e-05 0)
(19.6083 2.55e-05 0)
(19.5927 2.38937e-05 0)
(19.5782 2.2383e-05 0)
(19.5645 2.09583e-05 0)
(19.5518 1.96155e-05 0)
(19.5398 1.83466e-05 0)
(19.5286 1.71463e-05 0)
(19.5182 1.60081e-05 0)
(19.5085 1.49302e-05 0)
(19.4994 1.39067e-05 0)
(19.4909 1.29341e-05 0)
(19.4831 1.20083e-05 0)
(19.4758 1.11272e-05 0)
(19.469 1.0287e-05 0)
(19.4628 9.48544e-06 0)
(19.4571 8.72083e-06 0)
(19.4518 7.9894e-06 0)
(19.447 7.28963e-06 0)
(19.4426 6.61986e-06 0)
(19.4386 5.97971e-06 0)
(19.435 5.36457e-06 0)
(19.4318 4.77427e-06 0)
(19.429 4.20733e-06 0)
(19.4265 3.66696e-06 0)
(19.4243 3.14333e-06 0)
(19.4225 2.63974e-06 0)
(19.4209 2.15488e-06 0)
(19.4197 1.69258e-06 0)
(19.4188 1.24315e-06 0)
(19.4181 8.1067e-07 0)
(19.4177 3.93646e-07 0)
(19.4175 2.05326e-10 0)
(19.4176 -3.87276e-07 0)
(19.418 -7.59014e-07 0)
(19.4185 -1.11756e-06 0)
(19.4193 -1.45518e-06 0)
(19.4203 -1.78872e-06 0)
(19.4215 -2.10985e-06 0)
(19.4229 -2.42177e-06 0)
(19.4245 -2.71075e-06 0)
(19.4263 -3.00679e-06 0)
(19.4283 -3.29404e-06 0)
(19.4304 -3.57846e-06 0)
(19.4328 -3.84477e-06 0)
(19.4353 -4.12426e-06 0)
(19.4379 -4.39755e-06 0)
(19.4408 -4.67408e-06 0)
(19.4438 -4.92268e-06 0)
(19.4469 -5.19955e-06 0)
(19.4503 -5.46802e-06 0)
(19.4537 -5.74381e-06 0)
(19.4574 -5.98251e-06 0)
(19.4612 -6.24876e-06 0)
(19.4651 -6.49578e-06 0)
(19.4692 -6.74401e-06 0)
(19.4734 -6.938e-06 0)
(19.4777 -7.15204e-06 0)
(19.4821 -7.34048e-06 0)
(19.4867 -7.52208e-06 0)
(19.4913 -7.65792e-06 0)
(19.496 -7.7814e-06 0)
(19.5008 -7.87413e-06 0)
(19.5056 -7.94375e-06 0)
(19.5104 -8.03193e-06 0)
(19.5153 -8.02234e-06 0)
(19.5202 -7.9989e-06 0)
(19.5251 -7.93212e-06 0)
(19.5299 -7.95888e-06 0)
(19.5348 -7.8212e-06 0)
(19.5396 -7.69903e-06 0)
(19.5444 -7.51877e-06 0)
(19.5491 -7.63622e-06 0)
(19.5538 -7.40475e-06 0)
(19.5585 -7.2224e-06 0)
(19.5631 -6.95334e-06 0)
(19.5676 -7.04324e-06 0)
(19.5721 -6.7678e-06 0)
(19.5766 -6.59218e-06 0)
(19.5811 -6.33305e-06 0)
(19.5855 -6.62958e-06 0)
(19.59 -6.41482e-06 0)
(19.5944 -6.31732e-06 0)
(19.5989 -6.11954e-06 0)
(19.6034 -6.29272e-06 0)
(19.6079 -6.08637e-06 0)
(19.6123 -6.1135e-06 0)
(19.617 -3.1451e-06 0)
(28.9497 0.0984766 0)
(26.1304 0.00639105 0)
(24.9213 0.0023381 0)
(24.2467 0.00142135 0)
(23.7932 0.00101462 0)
(23.4561 0.000782729 0)
(23.1903 0.000632593 0)
(22.9724 0.00052694 0)
(22.7892 0.000448389 0)
(22.6322 0.000387804 0)
(22.4957 0.000339741 0)
(22.3756 0.000300718 0)
(22.2689 0.00026843 0)
(22.1734 0.000241295 0)
(22.0873 0.000218191 0)
(22.0093 0.000198301 0)
(21.9383 0.000181008 0)
(21.8733 0.000165847 0)
(21.8137 0.000152452 0)
(21.7589 0.000140544 0)
(21.7083 0.000129892 0)
(21.6615 0.000120314 0)
(21.6181 0.000111656 0)
(21.5778 0.000103801 0)
(21.5403 9.6643e-05 0)
(21.5054 9.00967e-05 0)
(21.4728 8.40864e-05 0)
(21.4424 7.85569e-05 0)
(21.414 7.34521e-05 0)
(21.3874 6.87272e-05 0)
(21.3625 6.43406e-05 0)
(21.3392 6.02627e-05 0)
(21.3174 5.64613e-05 0)
(21.2969 5.29109e-05 0)
(21.2777 4.95852e-05 0)
(21.2598 4.64704e-05 0)
(21.2429 4.35451e-05 0)
(21.2272 4.07937e-05 0)
(21.2124 3.81997e-05 0)
(21.1985 3.57545e-05 0)
(21.1856 3.34441e-05 0)
(21.1735 3.12589e-05 0)
(21.1621 2.9187e-05 0)
(21.1516 2.72247e-05 0)
(21.1417 2.53615e-05 0)
(21.1326 2.35912e-05 0)
(21.124 2.19061e-05 0)
(21.1161 2.03023e-05 0)
(21.1088 1.87733e-05 0)
(21.102 1.73147e-05 0)
(21.0958 1.59225e-05 0)
(21.09 1.45916e-05 0)
(21.0848 1.33186e-05 0)
(21.08 1.21001e-05 0)
(21.0757 1.09345e-05 0)
(21.0718 9.81569e-06 0)
(21.0682 8.7422e-06 0)
(21.0651 7.71142e-06 0)
(21.0624 6.72609e-06 0)
(21.06 5.77425e-06 0)
(21.058 4.859e-06 0)
(21.0563 3.97809e-06 0)
(21.0549 3.1354e-06 0)
(21.0539 2.31902e-06 0)
(21.0531 1.53333e-06 0)
(21.0526 7.75981e-07 0)
(21.0524 5.58981e-08 0)
(21.0525 -6.4826e-07 0)
(21.0528 -1.32477e-06 0)
(21.0534 -1.97722e-06 0)
(21.0542 -2.59696e-06 0)
(21.0552 -3.20471e-06 0)
(21.0565 -3.79092e-06 0)
(21.058 -4.3602e-06 0)
(21.0597 -4.89635e-06 0)
(21.0616 -5.43609e-06 0)
(21.0637 -5.96064e-06 0)
(21.0659 -6.47795e-06 0)
(21.0684 -6.96938e-06 0)
(21.0711 -7.47358e-06 0)
(21.0739 -7.96682e-06 0)
(21.0769 -8.46083e-06 0)
(21.0801 -8.91692e-06 0)
(21.0835 -9.40377e-06 0)
(21.087 -9.87611e-06 0)
(21.0907 -1.03528e-05 0)
(21.0946 -1.07786e-05 0)
(21.0986 -1.12319e-05 0)
(21.1028 -1.16549e-05 0)
(21.1071 -1.2072e-05 0)
(21.1115 -1.24164e-05 0)
(21.116 -1.27745e-05 0)
(21.1207 -1.30923e-05 0)
(21.1255 -1.33923e-05 0)
(21.1303 -1.36298e-05 0)
(21.1353 -1.3839e-05 0)
(21.1403 -1.40016e-05 0)
(21.1453 -1.41268e-05 0)
(21.1504 -1.42757e-05 0)
(21.1556 -1.42865e-05 0)
(21.1608 -1.42749e-05 0)
(21.1659 -1.42032e-05 0)
(21.1711 -1.42513e-05 0)
(21.1763 -1.40825e-05 0)
(21.1815 -1.39331e-05 0)
(21.1867 -1.37095e-05 0)
(21.1919 -1.38692e-05 0)
(21.197 -1.35801e-05 0)
(21.2022 -1.3359e-05 0)
(21.2073 -1.30313e-05 0)
(21.2125 -1.31634e-05 0)
(21.2176 -1.28339e-05 0)
(21.2227 -1.26399e-05 0)
(21.2278 -1.23462e-05 0)
(21.233 -1.27576e-05 0)
(21.2381 -1.25279e-05 0)
(21.2433 -1.24584e-05 0)
(21.2485 -1.2267e-05 0)
(21.2538 -1.25449e-05 0)
(21.2591 -1.22769e-05 0)
(21.2643 -1.23959e-05 0)
(21.2698 -6.40188e-06 0)
(30.6449 0.0459572 0)
(27.8131 0.00831863 0)
(26.4561 0.00392316 0)
(25.6943 0.00237911 0)
(25.1892 0.00168081 0)
(24.8184 0.00128804 0)
(24.5284 0.00103663 0)
(24.2922 0.000861123 0)
(24.0944 0.000731339 0)
(23.9254 0.000631621 0)
(23.7788 0.000552737 0)
(23.6501 0.000488831 0)
(23.5359 0.000436044 0)
(23.4338 0.000391745 0)
(23.3419 0.000354071 0)
(23.2586 0.000321667 0)
(23.1829 0.00029352 0)
(23.1137 0.000268858 0)
(23.0503 0.000247085 0)
(22.9919 0.000227737 0)
(22.9381 0.000210439 0)
(22.8883 0.00019489 0)
(22.8421 0.000180843 0)
(22.7993 0.000168101 0)
(22.7594 0.000156493 0)
(22.7223 0.000145881 0)
(22.6877 0.000136141 0)
(22.6554 0.000127181 0)
(22.6252 0.000118912 0)
(22.597 0.000111259 0)
(22.5705 0.000104156 0)
(22.5458 9.75534e-05 0)
(22.5226 9.13996e-05 0)
(22.5009 8.56529e-05 0)
(22.4805 8.02718e-05 0)
(22.4614 7.52316e-05 0)
(22.4436 7.04985e-05 0)
(22.4268 6.60474e-05 0)
(22.4111 6.1852e-05 0)
(22.3964 5.7897e-05 0)
(22.3826 5.41606e-05 0)
(22.3697 5.06268e-05 0)
(22.3577 4.72774e-05 0)
(22.3465 4.41046e-05 0)
(22.336 4.10925e-05 0)
(22.3262 3.82307e-05 0)
(22.3171 3.55071e-05 0)
(22.3087 3.2915e-05 0)
(22.3009 3.04439e-05 0)
(22.2937 2.80869e-05 0)
(22.287 2.58368e-05 0)
(22.2809 2.36864e-05 0)
(22.2753 2.16297e-05 0)
(22.2702 1.96614e-05 0)
(22.2655 1.77777e-05 0)
(22.2613 1.59705e-05 0)
(22.2576 1.42369e-05 0)
(22.2542 1.25724e-05 0)
(22.2513 1.09793e-05 0)
(22.2487 9.4426e-06 0)
(22.2465 7.96516e-06 0)
(22.2447 6.54339e-06 0)
(22.2432 5.1811e-06 0)
(22.242 3.86364e-06 0)
(22.2411 2.59556e-06 0)
(22.2406 1.37328e-06 0)
(22.2403 2.06413e-07 0)
(22.2403 -9.30929e-07 0)
(22.2406 -2.02473e-06 0)
(22.2411 -3.07966e-06 0)
(22.2419 -4.08625e-06 0)
(22.243 -5.06973e-06 0)
(22.2443 -6.01931e-06 0)
(22.2458 -6.94128e-06 0)
(22.2475 -7.81671e-06 0)
(22.2495 -8.68971e-06 0)
(22.2516 -9.53835e-06 0)
(22.254 -1.03728e-05 0)
(22.2565 -1.11706e-05 0)
(22.2593 -1.19783e-05 0)
(22.2622 -1.27675e-05 0)
(22.2654 -1.35524e-05 0)
(22.2687 -1.42862e-05 0)
(22.2722 -1.50507e-05 0)
(22.2758 -1.57917e-05 0)
(22.2797 -1.65312e-05 0)
(22.2837 -1.72029e-05 0)
(22.2878 -1.78992e-05 0)
(22.2921 -1.85513e-05 0)
(22.2965 -1.91879e-05 0)
(22.3011 -1.97295e-05 0)
(22.3058 -2.02767e-05 0)
(22.3106 -2.07667e-05 0)
(22.3155 -2.12258e-05 0)
(22.3205 -2.16023e-05 0)
(22.3256 -2.19343e-05 0)
(22.3308 -2.22024e-05 0)
(22.336 -2.2418e-05 0)
(22.3413 -2.26572e-05 0)
(22.3467 -2.27216e-05 0)
(22.3521 -2.2755e-05 0)
(22.3575 -2.27116e-05 0)
(22.363 -2.28091e-05 0)
(22.3685 -2.26429e-05 0)
(22.374 -2.24998e-05 0)
(22.3795 -2.22672e-05 0)
(22.3851 -2.24931e-05 0)
(22.3906 -2.21823e-05 0)
(22.3962 -2.19575e-05 0)
(22.4018 -2.16073e-05 0)
(22.4074 -2.18078e-05 0)
(22.413 -2.1461e-05 0)
(22.4187 -2.1283e-05 0)
(22.4243 -2.09891e-05 0)
(22.43 -2.15348e-05 0)
(22.4357 -2.1323e-05 0)
(22.4415 -2.13102e-05 0)
(22.4473 -2.11513e-05 0)
(22.4531 -2.1552e-05 0)
(22.459 -2.12002e-05 0)
(22.4647 -2.14406e-05 0)
(22.4708 -1.10782e-05 0)
(31.9342 0.0469922 0)
(29.2283 0.0125097 0)
(27.7543 0.00606046 0)
(26.9065 0.00365719 0)
(26.348 0.00255943 0)
(25.9421 0.00194753 0)
(25.6273 0.00155993 0)
(25.3724 0.00129159 0)
(25.1601 0.00109437 0)
(24.9793 0.000943506 0)
(24.8229 0.000824562 0)
(24.6858 0.000728455 0)
(24.5645 0.000649236 0)
(24.4562 0.000582869 0)
(24.3587 0.000526508 0)
(24.2706 0.000478088 0)
(24.1905 0.000436071 0)
(24.1174 0.00039929 0)
(24.0504 0.000366842 0)
(23.9888 0.000338028 0)
(23.9319 0.000312281 0)
(23.8794 0.000289151 0)
(23.8308 0.000268265 0)
(23.7856 0.000249327 0)
(23.7436 0.000232082 0)
(23.7045 0.000216321 0)
(23.6681 0.000201862 0)
(23.634 0.000188563 0)
(23.6022 0.000176292 0)
(23.5725 0.00016494 0)
(23.5447 0.000154406 0)
(23.5186 0.000144616 0)
(23.4942 0.000135493 0)
(23.4713 0.000126975 0)
(23.4499 0.000119002 0)
(23.4298 0.000111534 0)
(23.411 0.000104522 0)
(23.3933 9.79289e-05 0)
(23.3768 9.17162e-05 0)
(23.3613 8.58594e-05 0)
(23.3468 8.0327e-05 0)
(23.3332 7.50953e-05 0)
(23.3205 7.01381e-05 0)
(23.3087 6.54418e-05 0)
(23.2976 6.0984e-05 0)
(23.2873 5.67489e-05 0)
(23.2777 5.27191e-05 0)
(23.2688 4.88839e-05 0)
(23.2606 4.52283e-05 0)
(23.2529 4.17416e-05 0)
(23.2459 3.84132e-05 0)
(23.2394 3.52327e-05 0)
(23.2335 3.21911e-05 0)
(23.228 2.92804e-05 0)
(23.2231 2.64947e-05 0)
(23.2186 2.38227e-05 0)
(23.2146 2.12598e-05 0)
(23.211 1.87995e-05 0)
(23.2079 1.6443e-05 0)
(23.2051 1.4172e-05 0)
(23.2027 1.19887e-05 0)
(23.2007 9.88796e-06 0)
(23.1991 7.87321e-06 0)
(23.1978 5.92669e-06 0)
(23.1968 4.05292e-06 0)
(23.1961 2.24678e-06 0)
(23.1958 5.18476e-07 0)
(23.1957 -1.16328e-06 0)
(23.196 -2.78216e-06 0)
(23.1965 -4.34353e-06 0)
(23.1972 -5.83733e-06 0)
(23.1982 -7.29358e-06 0)
(23.1995 -8.70033e-06 0)
(23.201 -1.00658e-05 0)
(23.2028 -1.13682e-05 0)
(23.2047 -1.26591e-05 0)
(23.2069 -1.39135e-05 0)
(23.2093 -1.51437e-05 0)
(23.212 -1.63237e-05 0)
(23.2148 -1.75076e-05 0)
(23.2178 -1.86626e-05 0)
(23.221 -1.98053e-05 0)
(23.2244 -2.08808e-05 0)
(23.2279 -2.1984e-05 0)
(23.2317 -2.30521e-05 0)
(23.2356 -2.41104e-05 0)
(23.2397 -2.50819e-05 0)
(23.2439 -2.60726e-05 0)
(23.2483 -2.70036e-05 0)
(23.2528 -2.79076e-05 0)
(23.2575 -2.86934e-05 0)
(23.2623 -2.94751e-05 0)
(23.2672 -3.01822e-05 0)
(23.2722 -3.08446e-05 0)
(23.2773 -3.14043e-05 0)
(23.2826 -3.19027e-05 0)
(23.2879 -3.23208e-05 0)
(23.2933 -3.26709e-05 0)
(23.2988 -3.30431e-05 0)
(23.3043 -3.32061e-05 0)
(23.3099 -3.333e-05 0)
(23.3156 -3.33605e-05 0)
(23.3213 -3.35502e-05 0)
(23.3271 -3.34324e-05 0)
(23.3328 -3.33416e-05 0)
(23.3387 -3.31447e-05 0)
(23.3445 -3.34722e-05 0)
(23.3504 -3.3183e-05 0)
(23.3564 -3.29962e-05 0)
(23.3623 -3.26626e-05 0)
(23.3683 -3.29595e-05 0)
(23.3743 -3.26299e-05 0)
(23.3804 -3.24978e-05 0)
(23.3864 -3.22296e-05 0)
(23.3925 -3.29179e-05 0)
(23.3987 -3.27425e-05 0)
(23.4049 -3.27978e-05 0)
(23.4111 -3.26768e-05 0)
(23.4173 -3.31936e-05 0)
(23.4236 -3.27127e-05 0)
(23.4297 -3.30765e-05 0)
(23.4361 -1.70827e-05 0)
(32.9266 0.0603716 0)
(30.4695 0.0174492 0)
(28.9196 0.00880608 0)
(27.99 0.00533476 0)
(27.3757 0.00370685 0)
(26.9322 0.00280126 0)
(26.5909 0.00223228 0)
(26.3162 0.00184148 0)
(26.0885 0.00155608 0)
(25.8954 0.00133882 0)
(25.7288 0.00116818 0)
(25.5832 0.00103071 0)
(25.4546 0.00091768 0)
(25.3399 0.000823175 0)
(25.2369 0.000743053 0)
(25.1439 0.000674318 0)
(25.0594 0.000614743 0)
(24.9824 0.000562649 0)
(24.9118 0.000516735 0)
(24.847 0.000475994 0)
(24.7873 0.000439617 0)
(24.7321 0.000406957 0)
(24.6809 0.000377484 0)
(24.6335 0.000350773 0)
(24.5894 0.000326462 0)
(24.5484 0.000304252 0)
(24.5101 0.000283886 0)
(24.4744 0.000265161 0)
(24.4411 0.000247888 0)
(24.4099 0.000231913 0)
(24.3807 0.000217095 0)
(24.3534 0.000203326 0)
(24.3278 0.000190499 0)
(24.3038 0.000178525 0)
(24.2813 0.000167321 0)
(24.2602 0.000156827 0)
(24.2405 0.000146976 0)
(24.2219 0.000137715 0)
(24.2046 0.000128991 0)
(24.1883 0.000120767 0)
(24.1731 0.000113 0)
(24.1589 0.000105656 0)
(24.1455 9.86998e-05 0)
(24.1331 9.21093e-05 0)
(24.1215 8.58543e-05 0)
(24.1106 7.99125e-05 0)
(24.1005 7.42599e-05 0)
(24.0912 6.88803e-05 0)
(24.0825 6.37534e-05 0)
(24.0744 5.88638e-05 0)
(24.067 5.41967e-05 0)
(24.0602 4.97374e-05 0)
(24.0539 4.54734e-05 0)
(24.0481 4.13932e-05 0)
(24.0429 3.7488e-05 0)
(24.0381 3.37433e-05 0)
(24.0339 3.01517e-05 0)
(24.0301 2.67043e-05 0)
(24.0267 2.34009e-05 0)
(24.0237 2.02195e-05 0)
(24.0211 1.71611e-05 0)
(24.019 1.42186e-05 0)
(24.0172 1.13948e-05 0)
(24.0157 8.66853e-06 0)
(24.0146 6.04389e-06 0)
(24.0138 3.51389e-06 0)
(24.0134 1.08931e-06 0)
(24.0132 -1.26754e-06 0)
(24.0133 -3.53827e-06 0)
(24.0138 -5.72841e-06 0)
(24.0145 -7.82736e-06 0)
(24.0155 -9.87027e-06 0)
(24.0167 -1.18441e-05 0)
(24.0182 -1.37593e-05 0)
(24.0199 -1.55911e-05 0)
(24.0219 -1.73989e-05 0)
(24.0241 -1.91542e-05 0)
(24.0265 -2.08721e-05 0)
(24.0291 -2.25227e-05 0)
(24.032 -2.41678e-05 0)
(24.035 -2.577e-05 0)
(24.0382 -2.73488e-05 0)
(24.0417 -2.88419e-05 0)
(24.0453 -3.03563e-05 0)
(24.0491 -3.18212e-05 0)
(24.053 -3.32657e-05 0)
(24.0572 -3.46027e-05 0)
(24.0614 -3.5951e-05 0)
(24.0659 -3.72225e-05 0)
(24.0705 -3.84541e-05 0)
(24.0752 -3.95443e-05 0)
(24.0801 -4.06186e-05 0)
(24.0851 -4.16005e-05 0)
(24.0903 -4.25231e-05 0)
(24.0955 -4.33234e-05 0)
(24.1009 -4.40445e-05 0)
(24.1063 -4.4669e-05 0)
(24.1118 -4.52093e-05 0)
(24.1175 -4.57701e-05 0)
(24.1232 -4.60866e-05 0)
(24.129 -4.63564e-05 0)
(24.1348 -4.6514e-05 0)
(24.1408 -4.68476e-05 0)
(24.1467 -4.68293e-05 0)
(24.1528 -4.68406e-05 0)
(24.1589 -4.67259e-05 0)
(24.165 -4.71953e-05 0)
(24.1712 -4.69694e-05 0)
(24.1774 -4.68591e-05 0)
(24.1836 -4.65754e-05 0)
(24.1899 -4.6994e-05 0)
(24.1963 -4.67067e-05 0)
(24.2026 -4.66408e-05 0)
(24.209 -4.64114e-05 0)
(24.2154 -4.72427e-05 0)
(24.2219 -4.71066e-05 0)
(24.2283 -4.72258e-05 0)
(24.2348 -4.713e-05 0)
(24.2413 -4.77409e-05 0)
(24.2478 -4.70623e-05 0)
(24.2542 -4.7533e-05 0)
(24.2608 -2.4533e-05 0)
(33.6709 0.0694784 0)
(31.5724 0.022704 0)
(30.0008 0.0122434 0)
(28.9993 0.00751391 0)
(28.3282 0.00520147 0)
(27.8445 0.00390706 0)
(27.4742 0.00309741 0)
(27.1779 0.00254504 0)
(26.9335 0.00214414 0)
(26.727 0.00184049 0)
(26.5495 0.00160296 0)
(26.3948 0.00141224 0)
(26.2583 0.00125586 0)
(26.137 0.0011254 0)
(26.0282 0.00101502 0)
(25.93 0.000920476 0)
(25.841 0.00083865 0)
(25.7598 0.000767186 0)
(25.6856 0.000704269 0)
(25.6174 0.000648494 0)
(25.5547 0.000598735 0)
(25.4967 0.000554095 0)
(25.443 0.00051384 0)
(25.3933 0.000477378 0)
(25.347 0.000444211 0)
(25.304 0.000413926 0)
(25.2639 0.00038617 0)
(25.2265 0.000360659 0)
(25.1916 0.000337138 0)
(25.1589 0.000315391 0)
(25.1283 0.000295228 0)
(25.0997 0.000276496 0)
(25.0729 0.000259051 0)
(25.0477 0.000242772 0)
(25.0242 0.000227543 0)
(25.0021 0.000213283 0)
(24.9814 0.0001999 0)
(24.962 0.000187321 0)
(24.9438 0.000175474 0)
(24.9268 0.000164308 0)
(24.9108 0.000153764 0)
(24.8959 0.000143797 0)
(24.8819 0.000134357 0)
(24.8688 0.000125415 0)
(24.8566 0.000116929 0)
(24.8453 0.00010887 0)
(24.8347 0.000101204 0)
(24.8248 9.3909e-05 0)
(24.8156 8.69578e-05 0)
(24.8072 8.0329e-05 0)
(24.7993 7.40026e-05 0)
(24.7921 6.79586e-05 0)
(24.7855 6.218e-05 0)
(24.7794 5.66511e-05 0)
(24.7738 5.13594e-05 0)
(24.7688 4.62861e-05 0)
(24.7642 4.1421e-05 0)
(24.7602 3.67518e-05 0)
(24.7565 3.22762e-05 0)
(24.7534 2.79681e-05 0)
(24.7506 2.3827e-05 0)
(24.7482 1.9843e-05 0)
(24.7462 1.60182e-05 0)
(24.7446 1.23272e-05 0)
(24.7433 8.77374e-06 0)
(24.7424 5.34834e-06 0)
(24.7418 2.06234e-06 0)
(24.7416 -1.12929e-06 0)
(24.7416 -4.20686e-06 0)
(24.742 -7.17547e-06 0)
(24.7426 -1.00238e-05 0)
(24.7435 -1.27925e-05 0)
(24.7447 -1.54676e-05 0)
(24.7461 -1.8062e-05 0)
(24.7478 -2.05484e-05 0)
(24.7497 -2.29936e-05 0)
(24.7519 -2.53661e-05 0)
(24.7543 -2.76837e-05 0)
(24.7569 -2.99129e-05 0)
(24.7597 -3.21234e-05 0)
(24.7628 -3.42732e-05 0)
(24.766 -3.63851e-05 0)
(24.7695 -3.83898e-05 0)
(24.7731 -4.04061e-05 0)
(24.7769 -4.23555e-05 0)
(24.7809 -4.42714e-05 0)
(24.7851 -4.60574e-05 0)
(24.7894 -4.78444e-05 0)
(24.7939 -4.95356e-05 0)
(24.7985 -5.11726e-05 0)
(24.8033 -5.26444e-05 0)
(24.8083 -5.40865e-05 0)
(24.8134 -5.54175e-05 0)
(24.8186 -5.66734e-05 0)
(24.8239 -5.77873e-05 0)
(24.8294 -5.88022e-05 0)
(24.8349 -5.97035e-05 0)
(24.8406 -6.05027e-05 0)
(24.8464 -6.13195e-05 0)
(24.8522 -6.1855e-05 0)
(24.8582 -6.23348e-05 0)
(24.8642 -6.26805e-05 0)
(24.8703 -6.3216e-05 0)
(24.8765 -6.33524e-05 0)
(24.8827 -6.35186e-05 0)
(24.889 -6.35335e-05 0)
(24.8954 -6.41853e-05 0)
(24.9018 -6.40619e-05 0)
(24.9082 -6.40632e-05 0)
(24.9147 -6.38569e-05 0)
(24.9213 -6.44164e-05 0)
(24.9278 -6.4188e-05 0)
(24.9344 -6.41989e-05 0)
(24.941 -6.40108e-05 0)
(24.9477 -6.49754e-05 0)
(24.9543 -6.48692e-05 0)
(24.961 -6.50353e-05 0)
(24.9677 -6.4938e-05 0)
(24.9744 -6.5608e-05 0)
(24.9811 -6.46425e-05 0)
(24.9875 -6.5192e-05 0)
(24.9943 -3.36315e-05 0)
(34.1947 0.0755308 0)
(32.5411 0.0282332 0)
(31.0182 0.016421 0)
(29.9639 0.010304 0)
(29.2379 0.00713878 0)
(28.712 0.00533866 0)
(28.3102 0.00421211 0)
(27.9902 0.00344701 0)
(27.7273 0.0028947 0)
(27.5061 0.0024784 0)
(27.3165 0.0021541 0)
(27.1518 0.00189464 0)
(27.0068 0.00168251 0)
(26.8782 0.00150601 0)
(26.763 0.00135698 0)
(26.6593 0.00122958 0)
(26.5653 0.00111949 0)
(26.4798 0.00102348 0)
(26.4016 0.000939052 0)
(26.3299 0.000864294 0)
(26.2639 0.000797665 0)
(26.203 0.000737943 0)
(26.1466 0.000684131 0)
(26.0944 0.000635425 0)
(26.0459 0.00059115 0)
(26.0007 0.000550746 0)
(25.9587 0.000513737 0)
(25.9194 0.000479739 0)
(25.8828 0.000448406 0)
(25.8486 0.00041945 0)
(25.8165 0.000392615 0)
(25.7865 0.000367694 0)
(25.7584 0.000344492 0)
(25.7321 0.000322847 0)
(25.7074 0.000302608 0)
(25.6843 0.00028366 0)
(25.6626 0.000265882 0)
(25.6423 0.000249176 0)
(25.6232 0.000233447 0)
(25.6053 0.000218625 0)
(25.5886 0.000204633 0)
(25.5729 0.000191407 0)
(25.5582 0.000178886 0)
(25.5445 0.000167025 0)
(25.5317 0.000155773 0)
(25.5197 0.000145087 0)
(25.5086 0.000134925 0)
(25.4982 0.000125256 0)
(25.4886 0.000116045 0)
(25.4796 0.000107261 0)
(25.4714 9.88799e-05 0)
(25.4637 9.08738e-05 0)
(25.4567 8.32201e-05 0)
(25.4502 7.58981e-05 0)
(25.4443 6.88907e-05 0)
(25.439 6.21738e-05 0)
(25.4341 5.57333e-05 0)
(25.4298 4.95529e-05 0)
(25.4259 4.36279e-05 0)
(25.4224 3.79269e-05 0)
(25.4194 3.24473e-05 0)
(25.4168 2.71761e-05 0)
(25.4146 2.2114e-05 0)
(25.4128 1.72311e-05 0)
(25.4114 1.253e-05 0)
(25.4103 7.99837e-06 0)
(25.4095 3.64806e-06 0)
(25.4091 -5.74002e-07 0)
(25.4091 -4.64825e-06 0)
(25.4093 -8.57922e-06 0)
(25.4098 -1.2354e-05 0)
(25.4106 -1.60192e-05 0)
(25.4117 -1.95601e-05 0)
(25.4131 -2.29925e-05 0)
(25.4147 -2.62865e-05 0)
(25.4165 -2.95169e-05 0)
(25.4187 -3.2649e-05 0)
(25.421 -3.5704e-05 0)
(25.4236 -3.86446e-05 0)
(25.4264 -4.15489e-05 0)
(25.4294 -4.43703e-05 0)
(25.4326 -4.71353e-05 0)
(25.4361 -4.97682e-05 0)
(25.4397 -5.23993e-05 0)
(25.4435 -5.49428e-05 0)
(25.4475 -5.74371e-05 0)
(25.4517 -5.97768e-05 0)
(25.456 -6.21047e-05 0)
(25.4606 -6.43158e-05 0)
(25.4653 -6.64563e-05 0)
(25.4701 -6.84072e-05 0)
(25.4751 -7.03119e-05 0)
(25.4802 -7.20853e-05 0)
(25.4855 -7.37661e-05 0)
(25.4909 -7.52842e-05 0)
(25.4964 -7.66806e-05 0)
(25.5021 -7.79451e-05 0)
(25.5079 -7.90863e-05 0)
(25.5137 -8.02404e-05 0)
(25.5197 -8.10722e-05 0)
(25.5258 -8.18371e-05 0)
(25.532 -8.24408e-05 0)
(25.5382 -8.32442e-05 0)
(25.5446 -8.35965e-05 0)
(25.551 -8.39752e-05 0)
(25.5574 -8.41697e-05 0)
(25.564 -8.50466e-05 0)
(25.5706 -8.50643e-05 0)
(25.5772 -8.52105e-05 0)
(25.5839 -8.51057e-05 0)
(25.5906 -8.58216e-05 0)
(25.5974 -8.56626e-05 0)
(25.6041 -8.57546e-05 0)
(25.6109 -8.56019e-05 0)
(25.6177 -8.66822e-05 0)
(25.6246 -8.65867e-05 0)
(25.6314 -8.6773e-05 0)
(25.6382 -8.66369e-05 0)
(25.645 -8.73205e-05 0)
(25.6518 -8.59604e-05 0)
(25.6584 -8.65509e-05 0)
(25.6652 -4.46347e-05 0)
(34.5334 0.0801402 0)
(33.3602 0.0337828 0)
(31.9723 0.0212954 0)
(30.8975 0.0138032 0)
(30.1241 0.00962832 0)
(29.5557 0.00718747 0)
(29.1205 0.00564903 0)
(28.7745 0.00460538 0)
(28.4912 0.00385486 0)
(28.2535 0.00329156 0)
(28.0506 0.00285447 0)
(27.8746 0.002506 0)
(27.7203 0.00222199 0)
(27.5835 0.00198632 0)
(27.4613 0.00178779 0)
(27.3515 0.00161842 0)
(27.2521 0.00147234 0)
(27.1617 0.00134513 0)
(27.0792 0.00123343 0)
(27.0035 0.00113465 0)
(26.934 0.0010467 0)
(26.8699 0.000967953 0)
(26.8106 0.000897064 0)
(26.7556 0.000832953 0)
(26.7047 0.000774718 0)
(26.6572 0.000721613 0)
(26.6131 0.000673003 0)
(26.5719 0.000628372 0)
(26.5334 0.000587262 0)
(26.4975 0.00054929 0)
(26.4638 0.000514117 0)
(26.4324 0.000481466 0)
(26.4029 0.000451081 0)
(26.3753 0.000422745 0)
(26.3494 0.00039626 0)
(26.3251 0.000371472 0)
(26.3023 0.000348222 0)
(26.281 0.000326381 0)
(26.261 0.000305825 0)
(26.2422 0.000286458 0)
(26.2246 0.000268179 0)
(26.2081 0.000250907 0)
(26.1927 0.000234558 0)
(26.1783 0.000219076 0)
(26.1648 0.00020439 0)
(26.1522 0.000190447 0)
(26.1404 0.00017719 0)
(26.1295 0.000164578 0)
(26.1193 0.000152565 0)
(26.1098 0.000141113 0)
(26.1011 0.000130186 0)
(26.093 0.00011975 0)
(26.0855 0.000109775 0)
(26.0786 0.000100234 0)
(26.0724 9.11035e-05 0)
(26.0666 8.23535e-05 0)
(26.0614 7.39646e-05 0)
(26.0568 6.59158e-05 0)
(26.0526 5.81985e-05 0)
(26.0488 5.07759e-05 0)
(26.0455 4.36422e-05 0)
(26.0427 3.67807e-05 0)
(26.0403 3.01898e-05 0)
(26.0382 2.38346e-05 0)
(26.0366 1.77161e-05 0)
(26.0353 1.18185e-05 0)
(26.0344 6.15354e-06 0)
(26.0338 6.60721e-07 0)
(26.0335 -4.64316e-06 0)
(26.0336 -9.76309e-06 0)
(26.034 -1.46824e-05 0)
(26.0347 -1.94542e-05 0)
(26.0356 -2.40634e-05 0)
(26.0369 -2.85293e-05 0)
(26.0384 -3.28194e-05 0)
(26.0402 -3.70169e-05 0)
(26.0422 -4.10841e-05 0)
(26.0445 -4.5046e-05 0)
(26.047 -4.88618e-05 0)
(26.0498 -5.26183e-05 0)
(26.0527 -5.62643e-05 0)
(26.0559 -5.98309e-05 0)
(26.0593 -6.32361e-05 0)
(26.0629 -6.66221e-05 0)
(26.0667 -6.98959e-05 0)
(26.0707 -7.31016e-05 0)
(26.0749 -7.61253e-05 0)
(26.0792 -7.91211e-05 0)
(26.0838 -8.19767e-05 0)
(26.0884 -8.47428e-05 0)
(26.0933 -8.72936e-05 0)
(26.0983 -8.97784e-05 0)
(26.1035 -9.21098e-05 0)
(26.1088 -9.43284e-05 0)
(26.1143 -9.63621e-05 0)
(26.1199 -9.82475e-05 0)
(26.1256 -9.99802e-05 0)
(26.1314 -0.000101564 0)
(26.1374 -0.000103154 0)
(26.1435 -0.000104375 0)
(26.1497 -0.000105514 0)
(26.1559 -0.000106458 0)
(26.1623 -0.000107607 0)
(26.1688 -0.000108247 0)
(26.1753 -0.000108903 0)
(26.1819 -0.000109335 0)
(26.1886 -0.000110485 0)
(26.1953 -0.000110687 0)
(26.2021 -0.000111014 0)
(26.209 -0.000111036 0)
(26.2158 -0.000111924 0)
(26.2227 -0.000111844 0)
(26.2296 -0.000112018 0)
(26.2366 -0.000111891 0)
(26.2435 -0.000113066 0)
(26.2505 -0.000112956 0)
(26.2574 -0.00011313 0)
(26.2644 -0.00011291 0)
(26.2713 -0.000113554 0)
(26.2782 -0.000111675 0)
(26.2848 -0.000112258 0)
(26.2917 -5.78816e-05 0)
(34.7383 0.0835127 0)
(34.0044 0.0389143 0)
(32.8456 0.0266757 0)
(31.8006 0.0180608 0)
(30.9964 0.0127823 0)
(30.3892 0.00956165 0)
(29.9198 0.00749912 0)
(29.546 0.00609465 0)
(29.2402 0.0050859 0)
(28.9844 0.00433096 0)
(28.7664 0.00374711 0)
(28.578 0.00328317 0)
(28.413 0.00290621 0)
(28.2672 0.00259425 0)
(28.1371 0.00233211 0)
(28.0204 0.00210896 0)
(27.9149 0.00191685 0)
(27.8191 0.00174986 0)
(27.7318 0.00160346 0)
(27.6518 0.00147416 0)
(27.5783 0.0013592 0)
(27.5106 0.00125637 0)
(27.4481 0.0011639 0)
(27.3901 0.00108036 0)
(27.3364 0.00100453 0)
(27.2864 0.000935443 0)
(27.2399 0.000872249 0)
(27.1966 0.000814266 0)
(27.1561 0.000760891 0)
(27.1183 0.000711618 0)
(27.0829 0.000666003 0)
(27.0498 0.000623679 0)
(27.0188 0.000584311 0)
(26.9898 0.000547616 0)
(26.9625 0.000513333 0)
(26.937 0.000481257 0)
(26.913 0.000451183 0)
(26.8905 0.000422941 0)
(26.8695 0.00039637 0)
(26.8497 0.000371343 0)
(26.8312 0.000347731 0)
(26.8138 0.000325424 0)
(26.7975 0.000304318 0)
(26.7823 0.000284333 0)
(26.7681 0.000265382 0)
(26.7548 0.000247393 0)
(26.7423 0.000230294 0)
(26.7307 0.00021403 0)
(26.72 0.000198541 0)
(26.7099 0.000183779 0)
(26.7006 0.000169696 0)
(26.692 0.000156249 0)
(26.6841 0.000143398 0)
(26.6768 0.000131108 0)
(26.67 0.000119348 0)
(26.6639 0.000108081 0)
(26.6583 9.72806e-05 0)
(26.6532 8.69195e-05 0)
(26.6487 7.69848e-05 0)
(26.6446 6.74328e-05 0)
(26.641 5.82537e-05 0)
(26.6379 4.94259e-05 0)
(26.6352 4.09449e-05 0)
(26.6329 3.27702e-05 0)
(26.631 2.49001e-05 0)
(26.6294 1.73148e-05 0)
(26.6283 1.00252e-05 0)
(26.6275 2.96462e-06 0)
(26.6271 -3.85618e-06 0)
(26.6269 -1.04451e-05 0)
(26.6272 -1.67788e-05 0)
(26.6277 -2.29174e-05 0)
(26.6285 -2.88457e-05 0)
(26.6296 -3.45869e-05 0)
(26.631 -4.01062e-05 0)
(26.6327 -4.54959e-05 0)
(26.6346 -5.07153e-05 0)
(26.6368 -5.57941e-05 0)
(26.6392 -6.06876e-05 0)
(26.6419 -6.54923e-05 0)
(26.6448 -7.01525e-05 0)
(26.6479 -7.47046e-05 0)
(26.6512 -7.90607e-05 0)
(26.6547 -8.3375e-05 0)
(26.6585 -8.75476e-05 0)
(26.6624 -9.16292e-05 0)
(26.6666 -9.54977e-05 0)
(26.6709 -9.93186e-05 0)
(26.6754 -0.000102972 0)
(26.6801 -0.000106515 0)
(26.6849 -0.000109814 0)
(26.6899 -0.000113024 0)
(26.6951 -0.000116055 0)
(26.7005 -0.00011895 0)
(26.7059 -0.000121636 0)
(26.7116 -0.000124142 0)
(26.7173 -0.000126471 0)
(26.7232 -0.000128622 0)
(26.7293 -0.000130766 0)
(26.7354 -0.000132489 0)
(26.7417 -0.000134111 0)
(26.748 -0.000135497 0)
(26.7545 -0.000137086 0)
(26.761 -0.000138099 0)
(26.7677 -0.000139115 0)
(26.7744 -0.000139853 0)
(26.7812 -0.000141337 0)
(26.788 -0.000141775 0)
(26.7949 -0.000142328 0)
(26.8019 -0.000142509 0)
(26.8089 -0.00014359 0)
(26.8159 -0.000143602 0)
(26.823 -0.000143863 0)
(26.83 -0.000143755 0)
(26.8371 -0.000145001 0)
(26.8441 -0.000144851 0)
(26.8512 -0.000144977 0)
(26.8582 -0.000144625 0)