/*--------------------------------*- C++ -*----------------------------------*\
  =========                 |
  \\      /  F ield         | OpenFOAM: The Open Source CFD Toolbox
   \\    /   O peration     | Website:  https://openfoam.org
    \\  /    A nd           | Version:  7
     \\/     M anipulation  |
\*---------------------------------------------------------------------------*/
FoamFile
{
    version     2.0;
    format      ascii;
    class       volScalarField;
    location    "200";
    object      k;
}
// * * * * * * * * * * * * * * * * * * * * * * * * * * * * * * * * * * * * * //

dimensions      [0 2 -2 0 0 0 0];

internalField   nonuniform List<scalar> 
32100
(
4.48106e+07
4.47651e+07
4.46725e+07
4.44543e+07
4.41066e+07
4.36106e+07
4.296e+07
4.21691e+07
4.12773e+07
4.03394e+07
3.94293e+07
3.86289e+07
3.80379e+07
3.77392e+07
3.76149e+07
4.38952e+07
4.38731e+07
4.38073e+07
4.36557e+07
4.33972e+07
4.30078e+07
4.24729e+07
4.17999e+07
4.10201e+07
4.01827e+07
3.93538e+07
3.86133e+07
3.80546e+07
3.77613e+07
3.76497e+07
4.33764e+07
4.33739e+07
4.33539e+07
4.32751e+07
4.31135e+07
4.2831e+07
4.2401e+07
4.1822e+07
4.11188e+07
4.03368e+07
3.95435e+07
3.88169e+07
3.82497e+07
3.79462e+07
3.78362e+07
4.3201e+07
4.32202e+07
4.32568e+07
4.32624e+07
4.32077e+07
4.30345e+07
4.27e+07
4.21929e+07
4.15329e+07
4.07669e+07
3.99679e+07
3.92014e+07
3.85952e+07
3.82602e+07
3.81519e+07
4.33086e+07
4.33502e+07
4.34519e+07
4.35534e+07
4.36234e+07
4.35685e+07
4.33254e+07
4.28752e+07
4.2237e+07
4.14507e+07
4.05879e+07
3.97416e+07
3.90589e+07
3.86746e+07
3.85681e+07
4.36482e+07
4.37129e+07
4.3917e+07
4.40945e+07
4.43157e+07
4.43987e+07
4.42485e+07
4.38415e+07
4.31947e+07
4.23622e+07
4.13792e+07
4.04108e+07
3.96173e+07
3.91585e+07
3.90534e+07
4.4168e+07
4.4213e+07
4.43975e+07
4.47988e+07
4.52446e+07
4.54989e+07
4.54471e+07
4.50785e+07
4.44319e+07
4.34908e+07
4.23661e+07
4.12021e+07
4.02407e+07
3.96629e+07
3.9559e+07
4.48788e+07
4.48685e+07
4.50409e+07
4.57104e+07
4.63759e+07
4.68532e+07
4.69063e+07
4.65603e+07
4.59051e+07
4.48721e+07
4.35243e+07
4.21013e+07
4.09304e+07
4.01315e+07
4.00318e+07
4.57889e+07
4.54704e+07
4.56947e+07
4.66302e+07
4.76752e+07
4.84736e+07
4.86331e+07
4.82899e+07
4.7614e+07
4.65378e+07
4.49546e+07
4.3168e+07
4.16749e+07
4.06297e+07
4.05379e+07
4.73238e+07
4.60977e+07
4.61508e+07
4.76691e+07
4.90778e+07
5.04011e+07
5.06452e+07
5.02677e+07
4.96263e+07
4.85262e+07
4.67759e+07
4.46591e+07
4.27868e+07
4.12733e+07
4.11875e+07
5.14022e+07
4.79451e+07
4.69117e+07
4.90726e+07
5.08817e+07
5.2694e+07
5.27227e+07
5.24396e+07
5.20141e+07
5.10122e+07
4.9343e+07
4.6375e+07
4.54859e+07
4.4233e+07
4.41547e+07
5.493e+07
5.62492e+07
6.57496e+07
6.29416e+07
5.39566e+07
5.60947e+07
5.57048e+07
5.51943e+07
5.5385e+07
5.59807e+07
5.63108e+07
4.88328e+07
5.03757e+07
5.15551e+07
5.14882e+07
5.76856e+07
8.26043e+07
1.47352e+08
9.0309e+07
6.74221e+07
6.48918e+07
6.53018e+07
6.10267e+07
6.26968e+07
8.08917e+07
1.24047e+08
1.22141e+08
7.64885e+07
9.99693e+07
9.9912e+07
1.79501e+08
2.78979e+08
3.18524e+08
2.97253e+08
2.52693e+08
1.33044e+08
1.57929e+08
1.13552e+08
1.00902e+08
1.39658e+08
2.25253e+08
2.28191e+08
1.14547e+08
2.00826e+08
2.00696e+08
4.13139e+08
4.36228e+08
4.32745e+08
4.2653e+08
3.87507e+08
3.52426e+08
3.24578e+08
3.09555e+08
3.08228e+08
2.71236e+08
3.0362e+08
3.14786e+08
2.9203e+08
2.69566e+08
2.69407e+08
5.08482e+08
5.43627e+08
5.40154e+08
5.2465e+08
4.93497e+08
4.43387e+08
4.19163e+08
4.01279e+08
3.88707e+08
3.48887e+08
3.45874e+08
3.48113e+08
3.44379e+08
3.20266e+08
3.20081e+08
5.6443e+08
5.81516e+08
5.71223e+08
5.56808e+08
5.21076e+08
4.84749e+08
4.5862e+08
4.48052e+08
4.27853e+08
3.93142e+08
3.74628e+08
3.76157e+08
3.72357e+08
3.53948e+08
3.53752e+08
6.07059e+08
6.13036e+08
6.01071e+08
5.86182e+08
5.51782e+08
5.16363e+08
4.81496e+08
4.64455e+08
4.50566e+08
4.25568e+08
3.97599e+08
3.96127e+08
3.9527e+08
3.80886e+08
3.80685e+08
6.46655e+08
6.47765e+08
6.4531e+08
6.2833e+08
5.94142e+08
5.56495e+08
5.18787e+08
4.83277e+08
4.71959e+08
4.5045e+08
4.22708e+08
4.21282e+08
4.20106e+08
4.1142e+08
4.1121e+08
6.91019e+08
6.90973e+08
7.04897e+08
6.95163e+08
6.50185e+08
6.10725e+08
5.73693e+08
5.33462e+08
5.09015e+08
4.82702e+08
4.53868e+08
4.5751e+08
4.56354e+08
4.43585e+08
4.43372e+08
7.54209e+08
7.59305e+08
7.90419e+08
7.79571e+08
7.25637e+08
6.85013e+08
6.56819e+08
6.15893e+08
5.72229e+08
5.34256e+08
4.90719e+08
4.84487e+08
4.84685e+08
4.79222e+08
4.79004e+08
8.3929e+08
8.53205e+08
8.88753e+08
8.77289e+08
8.22916e+08
7.71591e+08
7.72521e+08
7.40743e+08
6.69572e+08
6.13211e+08
5.44954e+08
5.27602e+08
5.29558e+08
5.23098e+08
5.22876e+08
9.54828e+08
9.75115e+08
1.01235e+09
1.00438e+09
9.47136e+08
8.8202e+08
9.10213e+08
8.85903e+08
8.00799e+08
7.26434e+08
6.25067e+08
5.99082e+08
6.01571e+08
5.80418e+08
5.80191e+08
1.10183e+09
1.12607e+09
1.15553e+09
1.15927e+09
1.10607e+09
1.03792e+09
1.06032e+09
1.05122e+09
9.59653e+08
8.64272e+08
7.38112e+08
6.99147e+08
6.99966e+08
6.55711e+08
6.55473e+08
1.28484e+09
1.29827e+09
1.3204e+09
1.3408e+09
1.29053e+09
1.21309e+09
1.21862e+09
1.21918e+09
1.14263e+09
1.01965e+09
8.7057e+08
8.29044e+08
8.2026e+08
7.53019e+08
7.52764e+08
1.51376e+09
1.51383e+09
1.53583e+09
1.56618e+09
1.50748e+09
1.40707e+09
1.38248e+09
1.37092e+09
1.33172e+09
1.19708e+09
1.01722e+09
9.83692e+08
9.57802e+08
8.74334e+08
8.74051e+08
1.7699e+09
1.76396e+09
1.78507e+09
1.81677e+09
1.75163e+09
1.62354e+09
1.57019e+09
1.5347e+09
1.52018e+09
1.38634e+09
1.16578e+09
1.12886e+09
1.10683e+09
1.02174e+09
1.02141e+09
2.04602e+09
2.02666e+09
2.04068e+09
2.06037e+09
2.01785e+09
1.87138e+09
1.79237e+09
1.72351e+09
1.70015e+09
1.61339e+09
1.3256e+09
1.27876e+09
1.26524e+09
1.21068e+09
1.21029e+09
2.37765e+09
2.30131e+09
2.29114e+09
2.30474e+09
2.30496e+09
2.16867e+09
2.06304e+09
1.94715e+09
1.90693e+09
1.84753e+09
1.54656e+09
1.48333e+09
1.47102e+09
1.47065e+09
1.47014e+09
2.85307e+09
2.69739e+09
2.61769e+09
2.62914e+09
2.67654e+09
2.56103e+09
2.43278e+09
2.25514e+09
2.2141e+09
2.18573e+09
1.8483e+09
1.72297e+09
1.71817e+09
1.81131e+09
1.81066e+09
3.607e+09
3.418e+09
3.22335e+09
3.09059e+09
3.14159e+09
3.04344e+09
2.89944e+09
2.70347e+09
2.65647e+09
2.64569e+09
2.26196e+09
2.00262e+09
2.02197e+09
2.2573e+09
2.25645e+09
4.6733e+09
4.6157e+09
4.58889e+09
3.71738e+09
3.75275e+09
3.63213e+09
3.43924e+09
3.36254e+09
3.33074e+09
3.22928e+09
2.80614e+09
2.42971e+09
2.51505e+09
2.85643e+09
2.85532e+09
5.84065e+09
5.85211e+09
5.88683e+09
4.71917e+09
4.59013e+09
4.33863e+09
4.0385e+09
4.10256e+09
4.10008e+09
3.92243e+09
3.49683e+09
3.2116e+09
3.29571e+09
3.61068e+09
3.60928e+09
7.0188e+09
6.64518e+09
6.63136e+09
6.20467e+09
5.65864e+09
5.17319e+09
4.68483e+09
5.01359e+09
5.02844e+09
4.79716e+09
4.3841e+09
4.23703e+09
4.26347e+09
4.51254e+09
4.51079e+09
8.42603e+09
7.83647e+09
7.67347e+09
7.98115e+09
7.02878e+09
6.17438e+09
5.51844e+09
6.10693e+09
6.08177e+09
5.88275e+09
5.49112e+09
5.37868e+09
5.36734e+09
5.55809e+09
5.55593e+09
1.00885e+10
9.87142e+09
9.86243e+09
9.99466e+09
8.78166e+09
7.45286e+09
6.99031e+09
7.24089e+09
7.20144e+09
7.06775e+09
6.81776e+09
6.6447e+09
6.60207e+09
6.74842e+09
6.74578e+09
1.17273e+10
1.17224e+10
1.17055e+10
1.13423e+10
1.06404e+10
9.19889e+09
8.52811e+09
8.45452e+09
8.53988e+09
8.39876e+09
8.3026e+09
7.99299e+09
7.95776e+09
8.09331e+09
8.09009e+09
1.32236e+10
1.3389e+10
1.34454e+10
1.24993e+10
1.22553e+10
1.16858e+10
1.0333e+10
9.81208e+09
1.03726e+10
1.01965e+10
1.01848e+10
9.5462e+09
9.5158e+09
9.61863e+09
9.6147e+09
1.45229e+10
1.41204e+10
1.4103e+10
1.37738e+10
1.45522e+10
1.5952e+10
1.36983e+10
1.15603e+10
1.32287e+10
1.31612e+10
1.29547e+10
1.15643e+10
1.1407e+10
1.13313e+10
1.13265e+10
1.64402e+10
1.51306e+10
1.48959e+10
1.53022e+10
2.02893e+10
2.23674e+10
2.00354e+10
1.44472e+10
1.712e+10
1.72308e+10
1.64511e+10
1.42525e+10
1.35681e+10
1.31487e+10
1.3143e+10
2.08207e+10
1.82844e+10
1.75627e+10
2.02463e+10
2.90782e+10
3.1286e+10
2.8637e+10
2.08904e+10
2.14286e+10
2.16855e+10
2.06868e+10
1.78237e+10
1.56814e+10
1.48272e+10
1.48203e+10
2.96141e+10
2.63283e+10
2.40815e+10
3.10292e+10
3.96192e+10
4.20455e+10
3.9599e+10
2.79195e+10
2.44725e+10
2.58789e+10
2.63395e+10
2.33087e+10
1.68724e+10
1.59321e+10
1.59247e+10
4.22414e+10
3.96673e+10
3.81614e+10
4.5557e+10
5.13049e+10
5.44445e+10
5.28899e+10
4.65349e+10
2.69994e+10
3.06517e+10
3.45867e+10
3.19108e+10
1.927e+10
1.68066e+10
1.67992e+10
5.67472e+10
5.56643e+10
5.56857e+10
5.94263e+10
6.39058e+10
6.76979e+10
6.64596e+10
6.12211e+10
5.30031e+10
3.69438e+10
3.75186e+10
3.75435e+10
2.46227e+10
1.77221e+10
1.77147e+10
7.14105e+10
7.13088e+10
7.11747e+10
7.27063e+10
7.62322e+10
8.05915e+10
8.02771e+10
8.07936e+10
6.97543e+10
6.31364e+10
4.08614e+10
4.89215e+10
4.60459e+10
1.83268e+10
1.83197e+10
8.28922e+10
8.37111e+10
8.51453e+10
8.53423e+10
8.75119e+10
9.15341e+10
9.15332e+10
9.33912e+10
8.97712e+10
8.31223e+10
7.94543e+10
7.51008e+10
7.13248e+10
6.28361e+10
6.2804e+10
9.21912e+10
9.35279e+10
9.39422e+10
9.44549e+10
9.7515e+10
1.00254e+11
9.95474e+10
1.00836e+11
1.03342e+11
1.01568e+11
9.54686e+10
9.35505e+10
9.07493e+10
8.68002e+10
8.67555e+10
1.00834e+11
1.02237e+11
1.02258e+11
1.02817e+11
1.07623e+11
1.10183e+11
1.07295e+11
1.05393e+11
1.05982e+11
1.06839e+11
1.03271e+11
1.01725e+11
1.00608e+11
9.93971e+10
9.93417e+10
1.08984e+11
1.1132e+11
1.13785e+11
1.13671e+11
1.20399e+11
1.2392e+11
1.18759e+11
1.0881e+11
1.07754e+11
1.0756e+11
1.07319e+11
1.05791e+11
1.05104e+11
1.04909e+11
1.0484e+11
1.16915e+11
1.20168e+11
1.22613e+11
1.23444e+11
1.33711e+11
1.3715e+11
1.30989e+11
1.11084e+11
1.08585e+11
1.08492e+11
1.08075e+11
1.07424e+11
1.07048e+11
1.06978e+11
1.06881e+11
1.24008e+11
1.26349e+11
1.26818e+11
1.30361e+11
1.45548e+11
1.47661e+11
1.37572e+11
1.12068e+11
1.08638e+11
1.08558e+11
1.08482e+11
1.08167e+11
1.07955e+11
1.0789e+11
1.07731e+11
1.3197e+11
1.32161e+11
1.30382e+11
1.45594e+11
1.57832e+11
1.59092e+11
1.46045e+11
1.1926e+11
1.09008e+11
1.08738e+11
1.08671e+11
1.08573e+11
1.08619e+11
1.08555e+11
1.08172e+11
1.4351e+11
1.4527e+11
1.46187e+11
1.60722e+11
1.70427e+11
1.67329e+11
1.53463e+11
1.26608e+11
1.10922e+11
1.09272e+11
1.0921e+11
1.09289e+11
1.09537e+11
1.09474e+11
1.08256e+11
1.54726e+11
1.56343e+11
1.58707e+11
1.73107e+11
1.76495e+11
1.76916e+11
1.70818e+11
1.34676e+11
1.14477e+11
1.11171e+11
1.11108e+11
1.11312e+11
1.11175e+11
1.11118e+11
1.08208e+11
1.63658e+11
1.65116e+11
1.68905e+11
1.79359e+11
1.83184e+11
1.87663e+11
1.94628e+11
1.58748e+11
1.27958e+11
1.14054e+11
1.13998e+11
1.16458e+11
1.1471e+11
1.16959e+11
1.21137e+11
1.72368e+11
1.7533e+11
1.8005e+11
1.88647e+11
1.95993e+11
1.97763e+11
1.98382e+11
1.95124e+11
1.78996e+11
1.16236e+11
1.32311e+11
1.3838e+11
1.24021e+11
4.41488e+11
4.41855e+11
1.81533e+11
1.85734e+11
1.91935e+11
2.0033e+11
2.10831e+11
2.11939e+11
2.0391e+11
2.27183e+11
2.42518e+11
2.4227e+11
2.37023e+11
2.21574e+11
2.48576e+11
6.85043e+11
6.85242e+11
1.90844e+11
1.96438e+11
2.0584e+11
2.1602e+11
2.34467e+11
2.36035e+11
2.42636e+11
2.82083e+11
3.17776e+11
3.18126e+11
3.64928e+11
4.06957e+11
5.8118e+11
9.43227e+11
9.42319e+11
2.02543e+11
2.08661e+11
2.20817e+11
2.36477e+11
2.64703e+11
2.66342e+11
2.84849e+11
3.54791e+11
4.15667e+11
4.19345e+11
5.11134e+11
5.78698e+11
5.97583e+11
1.19462e+12
1.19193e+12
2.18385e+11
2.23876e+11
2.38912e+11
2.59943e+11
2.97618e+11
2.99045e+11
3.30051e+11
4.43402e+11
5.47422e+11
7.35902e+11
7.29676e+11
7.52622e+11
7.83933e+11
1.36802e+12
1.36381e+12
2.3912e+11
2.43553e+11
2.5858e+11
2.84027e+11
3.28837e+11
3.29916e+11
3.73008e+11
5.31672e+11
6.8011e+11
7.99644e+11
7.99748e+11
8.21102e+11
9.71852e+11
1.43866e+12
1.43527e+12
2.63871e+11
2.66144e+11
2.77378e+11
3.07753e+11
3.55097e+11
3.55915e+11
4.10007e+11
6.05034e+11
7.99273e+11
7.99853e+11
7.99958e+11
8.0043e+11
9.05247e+11
1.53832e+12
1.53529e+12
2.92455e+11
2.93488e+11
3.00721e+11
3.29786e+11
3.75446e+11
3.76228e+11
4.36598e+11
6.18114e+11
7.81179e+11
7.99956e+11
8.00285e+11
8.02761e+11
9.9638e+11
1.73861e+12
1.73477e+12
3.23675e+11
3.24496e+11
3.28098e+11
3.4801e+11
3.89672e+11
3.90712e+11
4.52831e+11
6.16667e+11
7.66721e+11
7.72409e+11
8.01824e+11
8.63614e+11
1.58862e+12
2.04488e+12
2.03974e+12
3.57348e+11
3.58738e+11
3.59567e+11
3.60659e+11
3.92785e+11
3.94662e+11
4.54881e+11
6.21392e+11
7.63386e+11
7.64704e+11
8.60449e+11
1.39298e+12
2.12509e+12
2.39595e+12
2.38967e+12
3.93417e+11
3.95317e+11
4.02002e+11
3.75134e+11
3.95438e+11
3.95806e+11
4.61695e+11
6.3467e+11
7.43688e+11
7.91947e+11
1.52547e+12
2.26282e+12
2.55869e+12
2.71076e+12
2.70362e+12
4.30305e+11
4.30532e+11
4.31277e+11
4.19496e+11
4.1617e+11
4.0331e+11
4.86477e+11
6.38447e+11
7.4794e+11
1.4327e+12
2.36254e+12
2.67933e+12
2.89173e+12
2.96793e+12
2.95934e+12
4.73035e+11
4.70879e+11
4.63068e+11
4.58926e+11
4.55396e+11
4.54689e+11
5.44809e+11
6.96312e+11
1.18769e+12
2.24252e+12
2.64188e+12
2.91841e+12
3.13718e+12
3.1853e+12
3.17358e+12
5.31056e+11
5.26846e+11
5.19585e+11
5.15109e+11
5.12064e+11
5.25715e+11
6.21722e+11
9.28578e+11
1.90887e+12
2.3768e+12
2.72588e+12
3.03217e+12
3.3042e+12
3.3766e+12
3.36166e+12
6.02e+11
5.92866e+11
5.84486e+11
5.83396e+11
5.80424e+11
6.02328e+11
7.68276e+11
1.48693e+12
1.95739e+12
2.34347e+12
2.70011e+12
3.06222e+12
3.42175e+12
3.5778e+12
3.56051e+12
6.79761e+11
6.65796e+11
6.50726e+11
6.57768e+11
6.56809e+11
7.17902e+11
1.16888e+12
1.51811e+12
1.86736e+12
2.23129e+12
2.61967e+12
3.06376e+12
3.5838e+12
4.02187e+12
3.97967e+12
7.62399e+11
7.48117e+11
7.26263e+11
7.33007e+11
7.66571e+11
1.04474e+12
1.22973e+12
1.44333e+12
1.71437e+12
2.06696e+12
2.50033e+12
3.05441e+12
3.80894e+12
4.66908e+12
4.6089e+12
8.42105e+11
8.36473e+11
8.27637e+11
8.34408e+11
9.92321e+11
1.10333e+12
1.21168e+12
1.35291e+12
1.56051e+12
1.87875e+12
2.32984e+12
2.95436e+12
3.86852e+12
5.15483e+12
5.09603e+12
8.98513e+11
8.99786e+11
9.08253e+11
9.42055e+11
1.0365e+12
1.11265e+12
1.19003e+12
1.29398e+12
1.4559e+12
1.72492e+12
2.1469e+12
2.75377e+12
3.64448e+12
4.93287e+12
4.83366e+12
9.27257e+11
9.29993e+11
9.42796e+11
9.81122e+11
1.05224e+12
1.11471e+12
1.18472e+12
1.27775e+12
1.42378e+12
1.6735e+12
2.07964e+12
2.65986e+12
3.44836e+12
4.61854e+12
4.58029e+12
9.46923e+11
9.50556e+11
9.6518e+11
1.00108e+12
1.05634e+12
1.11504e+12
1.18398e+12
1.27798e+12
1.4287e+12
1.69014e+12
2.11488e+12
2.76951e+12
3.59455e+12
4.69186e+12
4.67453e+12
9.58819e+11
9.62843e+11
9.76794e+11
1.00846e+12
1.05751e+12
1.11468e+12
1.18443e+12
1.28442e+12
1.45466e+12
1.75372e+12
2.23226e+12
2.99019e+12
3.99758e+12
5.43054e+12
5.39494e+12
9.6579e+11
9.70098e+11
9.83649e+11
1.01228e+12
1.05795e+12
1.11477e+12
1.18654e+12
1.29501e+12
1.49392e+12
1.85484e+12
2.43099e+12
3.39122e+12
4.9047e+12
7.04665e+12
7.01678e+12
9.7119e+11
9.75546e+11
9.88604e+11
1.01484e+12
1.05759e+12
1.11428e+12
1.18913e+12
1.30994e+12
1.55301e+12
2.01342e+12
2.75284e+12
3.9891e+12
5.9978e+12
8.60611e+12
8.58874e+12
9.75932e+11
9.80113e+11
9.92284e+11
1.01607e+12
1.05586e+12
1.11248e+12
1.19111e+12
1.32809e+12
1.63459e+12
2.23295e+12
3.17248e+12
4.70143e+12
7.27195e+12
1.06858e+13
1.15921e+13
9.84676e+11
9.87755e+11
9.96319e+11
1.01346e+12
1.04494e+12
1.09769e+12
1.18357e+12
1.36408e+12
1.91472e+12
3.09253e+12
4.90213e+12
7.5721e+12
1.18903e+13
1.57421e+13
1.79013e+13
9.08449e+11
9.09417e+11
9.11052e+11
9.1372e+11
9.1796e+11
9.24913e+11
9.39481e+11
9.88146e+11
1.28898e+12
3.14251e+12
5.62726e+12
8.25692e+12
1.14341e+13
1.48516e+13
1.74559e+13
9.05897e+11
9.06217e+11
9.07782e+11
9.10681e+11
9.15036e+11
9.21225e+11
9.30613e+11
9.46796e+11
9.80218e+11
1.05373e+12
1.19545e+12
1.69828e+12
6.27459e+12
7.70282e+12
8.4098e+12
9.06933e+11
9.07467e+11
9.09381e+11
9.12635e+11
9.17297e+11
9.23881e+11
9.33901e+11
9.50165e+11
9.80223e+11
1.04436e+12
1.17598e+12
1.37724e+12
1.66194e+12
2.79433e+12
3.60153e+12
9.08362e+11
9.09492e+11
9.12172e+11
9.15943e+11
9.20903e+11
9.27737e+11
9.38124e+11
9.55465e+11
9.86844e+11
1.049e+12
1.18045e+12
1.43472e+12
1.8745e+12
2.66951e+12
3.38047e+12
9.0362e+11
9.05284e+11
9.09182e+11
9.15372e+11
9.24425e+11
9.37978e+11
9.59547e+11
9.95306e+11
1.06058e+12
1.19653e+12
1.50096e+12
2.09744e+12
2.71946e+12
3.14971e+12
3.44338e+12
8.76087e+11
8.78431e+11
8.84174e+11
8.9424e+11
9.11005e+11
9.39734e+11
9.87268e+11
1.05387e+12
1.14805e+12
1.29836e+12
1.59774e+12
2.32943e+12
3.25783e+12
3.81343e+12
4.18684e+12
7.76706e+11
7.78869e+11
7.8471e+11
7.96389e+11
8.18992e+11
8.6266e+11
9.39467e+11
1.04334e+12
1.17227e+12
1.37096e+12
1.82814e+12
3.29665e+12
4.82828e+12
6.09473e+12
7.06317e+12
6.89282e+11
6.90129e+11
6.92436e+11
6.97246e+11
7.06342e+11
7.22483e+11
7.50502e+11
8.01108e+11
9.06522e+11
1.30479e+12
2.70274e+12
5.01873e+12
7.51464e+12
9.04583e+12
1.02563e+13
5.94501e+11
5.93006e+11
5.91252e+11
5.90968e+11
5.94272e+11
6.03243e+11
6.21617e+11
6.69126e+11
8.49532e+11
1.72128e+12
2.9628e+12
4.45694e+12
5.6685e+12
6.60221e+12
7.2949e+12
4.68083e+11
4.675e+11
4.6821e+11
4.7155e+11
4.7486e+11
4.79549e+11
4.8848e+11
5.06886e+11
5.54451e+11
7.22659e+11
1.74147e+12
2.55405e+12
3.17771e+12
3.65621e+12
4.03135e+12
3.71584e+11
3.71592e+11
3.72034e+11
3.73817e+11
3.75769e+11
3.75579e+11
3.78475e+11
3.88055e+11
4.28082e+11
5.71873e+11
7.83753e+11
1.03895e+12
1.28233e+12
1.5008e+12
1.68731e+12
2.2649e+11
2.28349e+11
2.25311e+11
2.09597e+11
1.96981e+11
1.87744e+11
1.81182e+11
1.80381e+11
1.94235e+11
2.29963e+11
2.83492e+11
3.51794e+11
4.31739e+11
5.17908e+11
5.98134e+11
1.09884e+11
1.08775e+11
1.05749e+11
1.01371e+11
9.61524e+10
9.06994e+10
8.51674e+10
8.03471e+10
7.76429e+10
7.96483e+10
8.96559e+10
1.09216e+11
1.36235e+11
1.67048e+11
1.96677e+11
6.5791e+10
6.50417e+10
6.35694e+10
6.16574e+10
5.95228e+10
5.73645e+10
5.53276e+10
5.35894e+10
5.23141e+10
5.15462e+10
5.12028e+10
5.16016e+10
5.34338e+10
5.72601e+10
6.24135e+10
4.75269e+10
4.71331e+10
4.6445e+10
4.55311e+10
4.45198e+10
4.34501e+10
4.24775e+10
4.16013e+10
4.07492e+10
3.98762e+10
3.91184e+10
3.85806e+10
3.81691e+10
3.78869e+10
3.80622e+10
3.74708e+10
3.73102e+10
3.6976e+10
3.65055e+10
3.59402e+10
3.53237e+10
3.4699e+10
3.40485e+10
3.34077e+10
3.28201e+10
3.23072e+10
3.18642e+10
3.15432e+10
3.14578e+10
3.16388e+10
3.06795e+10
3.06406e+10
3.05545e+10
3.04027e+10
3.01234e+10
2.97638e+10
2.93667e+10
2.89943e+10
2.86675e+10
2.83529e+10
2.80491e+10
2.77728e+10
2.756e+10
2.74659e+10
2.75295e+10
2.62449e+10
2.62282e+10
2.61984e+10
2.61673e+10
2.61294e+10
2.60705e+10
2.59777e+10
2.5868e+10
2.57312e+10
2.55675e+10
2.54042e+10
2.52545e+10
2.51324e+10
2.50558e+10
2.50264e+10
2.32266e+10
2.32338e+10
2.32522e+10
2.3289e+10
2.33563e+10
2.34593e+10
2.3566e+10
2.36247e+10
2.36219e+10
2.35801e+10
2.3516e+10
2.34392e+10
2.33554e+10
2.32711e+10
2.32016e+10
2.0794e+10
2.08141e+10
2.08563e+10
2.09144e+10
2.0987e+10
2.10877e+10
2.12322e+10
2.14171e+10
2.1607e+10
2.17435e+10
2.17849e+10
2.17637e+10
2.17063e+10
2.16363e+10
2.15766e+10
1.84712e+10
1.84907e+10
1.85336e+10
1.85955e+10
1.86742e+10
1.87602e+10
1.88684e+10
1.90246e+10
1.92647e+10
1.96225e+10
1.99075e+10
2.00217e+10
2.00521e+10
2.00442e+10
2.00192e+10
1.61612e+10
1.6175e+10
1.62057e+10
1.6249e+10
1.63101e+10
1.63805e+10
1.64495e+10
1.65335e+10
1.66665e+10
1.69346e+10
1.74849e+10
1.80428e+10
1.82947e+10
1.83709e+10
1.83401e+10
1.41343e+10
1.41429e+10
1.41621e+10
1.41859e+10
1.42117e+10
1.42387e+10
1.4258e+10
1.42675e+10
1.42784e+10
1.43162e+10
1.44509e+10
1.48056e+10
1.53213e+10
1.58644e+10
1.62801e+10
1.25335e+10
1.25321e+10
1.25279e+10
1.25139e+10
1.24877e+10
1.2453e+10
1.24053e+10
1.23411e+10
1.22642e+10
1.2176e+10
1.20892e+10
1.20308e+10
1.2022e+10
1.20741e+10
1.22133e+10
1.07332e+10
1.073e+10
1.07215e+10
1.06967e+10
1.06599e+10
1.06271e+10
1.05974e+10
1.05606e+10
1.04941e+10
1.03848e+10
1.02321e+10
1.00611e+10
9.90206e+09
9.76142e+09
9.63662e+09
9.02561e+09
9.02207e+09
9.01468e+09
9.00683e+09
9.0075e+09
9.01586e+09
9.0296e+09
9.03582e+09
8.98336e+09
8.81816e+09
8.59063e+09
8.36789e+09
8.15817e+09
7.9472e+09
7.7254e+09
7.4385e+09
7.43562e+09
7.43415e+09
7.4409e+09
7.45772e+09
7.47404e+09
7.474e+09
7.42708e+09
7.3e+09
7.11027e+09
6.91257e+09
6.72014e+09
6.5225e+09
6.31168e+09
6.08361e+09
5.9678e+09
5.97147e+09
5.98275e+09
5.9998e+09
6.01786e+09
6.02388e+09
6.00398e+09
5.94359e+09
5.84003e+09
5.68958e+09
5.52442e+09
5.35667e+09
5.18372e+09
4.99585e+09
4.78595e+09
4.75423e+09
4.74869e+09
4.74221e+09
4.73753e+09
4.73411e+09
4.72945e+09
4.71787e+09
4.68449e+09
4.59021e+09
4.45404e+09
4.32785e+09
4.20779e+09
4.07578e+09
3.92111e+09
3.74338e+09
3.69314e+09
3.69396e+09
3.69588e+09
3.69489e+09
3.688e+09
3.67153e+09
3.64255e+09
3.60053e+09
3.53492e+09
3.44201e+09
3.3424e+09
3.22693e+09
3.09535e+09
2.95602e+09
2.81796e+09
2.92355e+09
2.92689e+09
2.93229e+09
2.93617e+09
2.93637e+09
2.92975e+09
2.91135e+09
2.87796e+09
2.82297e+09
2.73407e+09
2.62669e+09
2.51589e+09
2.41295e+09
2.31973e+09
2.23708e+09
2.38062e+09
2.38387e+09
2.39003e+09
2.39693e+09
2.4024e+09
2.4027e+09
2.38949e+09
2.35408e+09
2.28764e+09
2.19202e+09
2.09768e+09
2.0146e+09
1.93935e+09
1.87001e+09
1.80833e+09
1.94693e+09
1.94849e+09
1.95225e+09
1.95798e+09
1.96417e+09
1.96664e+09
1.95025e+09
1.89012e+09
1.79989e+09
1.7152e+09
1.63854e+09
1.56432e+09
1.49194e+09
1.42957e+09
1.37927e+09
1.52813e+09
1.52741e+09
1.52637e+09
1.52434e+09
1.51951e+09
1.50747e+09
1.48025e+09
1.43163e+09
1.36634e+09
1.29837e+09
1.23298e+09
1.17035e+09
1.11551e+09
1.07057e+09
1.034e+09
1.19043e+09
1.1899e+09
1.18827e+09
1.18495e+09
1.17903e+09
1.16826e+09
1.14673e+09
1.10371e+09
1.04333e+09
9.86339e+08
9.31709e+08
8.81995e+08
8.42039e+08
8.10311e+08
7.85153e+08
9.55514e+08
9.55904e+08
9.55555e+08
9.53686e+08
9.49371e+08
9.39868e+08
9.15885e+08
8.65549e+08
8.09087e+08
7.59443e+08
7.14857e+08
6.79626e+08
6.53963e+08
6.34312e+08
6.18471e+08
7.69324e+08
7.69317e+08
7.68778e+08
7.66956e+08
7.6296e+08
7.53885e+08
7.295e+08
6.82396e+08
6.38016e+08
5.97669e+08
5.63643e+08
5.38831e+08
5.20722e+08
5.05989e+08
4.92874e+08
6.20206e+08
6.19642e+08
6.18183e+08
6.15433e+08
6.10866e+08
6.02766e+08
5.84267e+08
5.4108e+08
4.98271e+08
4.60547e+08
4.30027e+08
4.08988e+08
3.93572e+08
3.80566e+08
3.68856e+08
5.18861e+08
5.18376e+08
5.16785e+08
5.13567e+08
5.07693e+08
4.95335e+08
4.65761e+08
4.22713e+08
3.82193e+08
3.46978e+08
3.23055e+08
3.08139e+08
2.96983e+08
2.87434e+08
2.78871e+08
4.21427e+08
4.20419e+08
4.17732e+08
4.12668e+08
4.03914e+08
3.87614e+08
3.56941e+08
3.19724e+08
2.87666e+08
2.62112e+08
2.44711e+08
2.32905e+08
2.23721e+08
2.15877e+08
2.08848e+08
3.4532e+08
3.443e+08
3.40462e+08
3.32194e+08
3.1695e+08
2.91126e+08
2.62863e+08
2.38718e+08
2.17497e+08
1.99615e+08
1.86169e+08
1.76498e+08
1.68922e+08
1.62533e+08
1.56855e+08
2.49019e+08
2.47028e+08
2.42152e+08
2.33471e+08
2.21353e+08
2.07174e+08
1.90984e+08
1.73676e+08
1.5877e+08
1.46689e+08
1.37708e+08
1.31202e+08
1.25869e+08
1.21123e+08
1.16702e+08
1.77175e+08
1.75511e+08
1.71547e+08
1.64979e+08
1.55989e+08
1.45613e+08
1.34464e+08
1.23013e+08
1.13289e+08
1.06051e+08
1.00883e+08
9.672e+07
9.29918e+07
8.94575e+07
8.60884e+07
1.17446e+08
1.16166e+08
1.13219e+08
1.0854e+08
1.02936e+08
9.71324e+07
9.12291e+07
8.55344e+07
8.06119e+07
7.6742e+07
7.37153e+07
7.11006e+07
6.86273e+07
6.62004e+07
6.37863e+07
7.8566e+07
7.76995e+07
7.58887e+07
7.33815e+07
7.06114e+07
6.76629e+07
6.45875e+07
6.14396e+07
5.85179e+07
5.6134e+07
5.41562e+07
5.23479e+07
5.05674e+07
4.87543e+07
4.68925e+07
5.44628e+07
5.40798e+07
5.32085e+07
5.18336e+07
5.01929e+07
4.83289e+07
4.62101e+07
4.39857e+07
4.20411e+07
4.0463e+07
3.91099e+07
3.7847e+07
3.65895e+07
3.53098e+07
3.39963e+07
3.69851e+07
3.66792e+07
3.60802e+07
3.5344e+07
3.45527e+07
3.36245e+07
3.2518e+07
3.12928e+07
3.01605e+07
2.92285e+07
2.84031e+07
2.75946e+07
2.67557e+07
2.58697e+07
2.49353e+07
2.59137e+07
2.57976e+07
2.55737e+07
2.52379e+07
2.47776e+07
2.41793e+07
2.34271e+07
2.25436e+07
2.18138e+07
2.12787e+07
2.07891e+07
2.02837e+07
1.97384e+07
1.91437e+07
1.84925e+07
1.90657e+07
1.89759e+07
1.87769e+07
1.84695e+07
1.8055e+07
1.75433e+07
1.69362e+07
1.62919e+07
1.5867e+07
1.55461e+07
1.5236e+07
1.49042e+07
1.45332e+07
1.41077e+07
1.36149e+07
1.41364e+07
1.40783e+07
1.39496e+07
1.37302e+07
1.34136e+07
1.29882e+07
1.24648e+07
1.20107e+07
1.17397e+07
1.15245e+07
1.13107e+07
1.10727e+07
1.07933e+07
1.04594e+07
1.00646e+07
1.04772e+07
1.04187e+07
1.02885e+07
1.00859e+07
9.83374e+06
9.55009e+06
9.25491e+06
9.03746e+06
8.90146e+06
8.78334e+06
8.64864e+06
8.48482e+06
8.28411e+06
8.0438e+06
7.77125e+06
8.02171e+06
7.98333e+06
7.89873e+06
7.77613e+06
7.62848e+06
7.45616e+06
7.2748e+06
7.15885e+06
7.08615e+06
7.0159e+06
6.93111e+06
6.82623e+06
6.69661e+06
6.54006e+06
6.35966e+06
6.43614e+06
6.41877e+06
6.37939e+06
6.31929e+06
6.23739e+06
6.13419e+06
6.05417e+06
6.00664e+06
5.96767e+06
5.92281e+06
5.86593e+06
5.79541e+06
5.70883e+06
5.60538e+06
5.48723e+06
5.50189e+06
5.49518e+06
5.47699e+06
5.44418e+06
5.40121e+06
5.35394e+06
5.31389e+06
5.28722e+06
5.25992e+06
5.22569e+06
5.18357e+06
5.13326e+06
5.07324e+06
5.00262e+06
4.92214e+06
4.93285e+06
4.9259e+06
4.90932e+06
4.88388e+06
4.8512e+06
4.81378e+06
4.78906e+06
4.7738e+06
4.75789e+06
4.73643e+06
4.70935e+06
4.67573e+06
4.63437e+06
4.58481e+06
4.52803e+06
4.51145e+06
4.50197e+06
4.48131e+06
4.45406e+06
4.42427e+06
4.40142e+06
4.39145e+06
4.38659e+06
4.37978e+06
4.36815e+06
4.35133e+06
4.32842e+06
4.29915e+06
4.26379e+06
4.22347e+06
4.07191e+06
4.05879e+06
4.04497e+06
4.04137e+06
4.04637e+06
4.05424e+06
4.05777e+06
4.05804e+06
4.05518e+06
4.04886e+06
4.03828e+06
4.02301e+06
4.00294e+06
3.97864e+06
3.95106e+06
3.7074e+06
3.71029e+06
3.71624e+06
3.72495e+06
3.73617e+06
3.74925e+06
3.76003e+06
3.76408e+06
3.764e+06
3.76055e+06
3.75365e+06
3.74315e+06
3.72911e+06
3.71194e+06
3.69233e+06
3.45552e+06
3.45709e+06
3.45943e+06
3.46261e+06
3.46679e+06
3.47229e+06
3.47939e+06
3.48335e+06
3.48492e+06
3.48378e+06
3.47964e+06
3.47226e+06
3.46149e+06
3.4477e+06
3.43156e+06
3.19413e+06
3.1942e+06
3.19333e+06
3.1917e+06
3.18916e+06
3.18564e+06
3.18007e+06
3.1786e+06
3.17922e+06
3.17959e+06
3.17882e+06
3.17603e+06
3.17042e+06
3.16241e+06
3.15303e+06
2.92264e+06
2.92154e+06
2.9188e+06
2.91456e+06
2.90845e+06
2.90035e+06
2.89301e+06
2.88839e+06
2.88476e+06
2.8821e+06
2.88011e+06
2.87848e+06
2.87751e+06
2.87739e+06
2.87843e+06
2.67243e+06
2.6709e+06
2.66769e+06
2.66316e+06
2.65766e+06
2.65187e+06
2.64685e+06
2.6416e+06
2.63663e+06
2.63247e+06
2.62914e+06
2.62703e+06
2.62699e+06
2.62913e+06
2.63352e+06
2.44684e+06
2.44532e+06
2.44228e+06
2.43817e+06
2.4335e+06
2.429e+06
2.42518e+06
2.42124e+06
2.41715e+06
2.41359e+06
2.41104e+06
2.40979e+06
2.41025e+06
2.41244e+06
2.4163e+06
2.24075e+06
2.23935e+06
2.23659e+06
2.23284e+06
2.22848e+06
2.22411e+06
2.21986e+06
2.21554e+06
2.21179e+06
2.20911e+06
2.20773e+06
2.20802e+06
2.21001e+06
2.21356e+06
2.21805e+06
2.05227e+06
2.05115e+06
2.04895e+06
2.04583e+06
2.04186e+06
2.03726e+06
2.033e+06
2.02935e+06
2.02627e+06
2.02384e+06
2.02231e+06
2.02224e+06
2.02372e+06
2.02683e+06
2.03094e+06
1.87457e+06
1.87342e+06
1.87124e+06
1.8683e+06
1.86494e+06
1.86163e+06
1.85883e+06
1.85602e+06
1.85314e+06
1.85059e+06
1.84871e+06
1.84788e+06
1.84801e+06
1.84937e+06
1.85157e+06
1.70611e+06
1.70476e+06
1.70217e+06
1.69866e+06
1.69452e+06
1.69029e+06
1.68672e+06
1.68387e+06
1.68133e+06
1.67911e+06
1.67773e+06
1.67726e+06
1.67749e+06
1.67826e+06
1.67923e+06
1.54606e+06
1.54446e+06
1.54138e+06
1.53719e+06
1.53229e+06
1.52751e+06
1.52359e+06
1.52026e+06
1.51723e+06
1.51479e+06
1.51331e+06
1.51265e+06
1.5128e+06
1.51323e+06
1.51352e+06
1.39192e+06
1.39036e+06
1.38735e+06
1.38317e+06
1.37819e+06
1.37304e+06
1.36834e+06
1.3642e+06
1.36076e+06
1.35829e+06
1.35668e+06
1.35568e+06
1.35513e+06
1.35505e+06
1.3548e+06
1.23895e+06
1.23742e+06
1.23445e+06
1.23031e+06
1.22542e+06
1.22063e+06
1.21656e+06
1.21316e+06
1.21033e+06
1.20794e+06
1.20611e+06
1.20474e+06
1.20374e+06
1.20305e+06
1.20227e+06
1.08977e+06
1.08832e+06
1.08548e+06
1.08159e+06
1.07732e+06
1.07364e+06
1.0709e+06
1.06879e+06
1.0669e+06
1.06485e+06
1.06262e+06
1.06046e+06
1.05865e+06
1.05675e+06
1.05481e+06
946629
945409
943082
940065
937094
934837
933404
932382
931282
929546
927266
924514
921484
918184
914980
812621
811673
809982
808108
806710
806014
805710
805242
804364
803072
801397
798682
795069
790968
787092
692356
691838
691020
690188
689647
689467
689371
689044
688433
687766
686410
683785
680195
676213
672366
586818
586494
586037
585570
585236
585065
584906
584518
583802
582824
581334
579653
577527
575157
572306
499988
499642
499140
498602
498171
497911
497741
497458
496869
495856
494576
493363
492067
490666
488742
432249
431972
431619
431284
431070
430960
430820
430500
429914
429118
428001
426590
425060
423415
421539
385549
385139
384473
383724
383013
382331
381579
380675
379598
378328
376782
375077
373243
371120
368726
353213
352683
351748
350654
349528
348379
347154
345807
344337
342708
340847
338718
336303
333580
330665
330991
330375
329230
327842
326346
324780
323134
321382
319509
317466
315255
312899
310383
307669
304804
313751
313081
311777
310141
308333
306429
304442
302350
300150
297855
295573
293297
290877
288232
285403
298452
297760
296384
294626
292646
290540
288369
286180
284019
281905
279785
277560
275158
272544
269771
284042
283352
281959
280167
278163
276073
273973
271912
269895
267893
265824
263660
261344
258844
256201
269661
269005
267676
265961
264041
262054
260101
258220
256390
254552
252627
250562
248336
245934
243399
254973
254367
253137
251562
249832
248077
246354
244656
242947
241177
239305
237325
235208
232928
230524
240025
239484
238390
236986
235434
233834
232231
230630
229017
227367
225638
223784
221768
219584
217279
224916
224439
223469
222218
220825
219381
217922
216446
214930
213354
211693
209919
208001
205928
203734
209783
209362
208503
207383
206119
204788
203422
202025
200591
199120
197589
195942
194131
192158
190074
194712
194334
193562
192547
191395
190178
188931
187656
186347
184993
183561
182004
180296
178445
176492
179903
179570
178890
177987
176955
175855
174715
173543
172332
171074
169745
168302
166719
165005
163188
165465
165173
164574
163773
162851
161862
160831
159764
158656
157499
156270
154935
153477
151886
150186
151440
151184
150656
149947
149129
148246
147322
146360
145357
144303
143175
141943
140589
139109
137526