/*--------------------------------*- C++ -*----------------------------------*\
  =========                 |
  \\      /  F ield         | OpenFOAM: The Open Source CFD Toolbox
   \\    /   O peration     | Website:  https://openfoam.org
    \\  /    A nd           | Version:  7
     \\/     M anipulation  |
\*---------------------------------------------------------------------------*/
FoamFile
{
    version     2.0;
    format      ascii;
    class       volScalarField;
    location    "200";
    object      nut;
}
// * * * * * * * * * * * * * * * * * * * * * * * * * * * * * * * * * * * * * //

dimensions      [0 2 -1 0 0 0 0];

internalField   nonuniform List<scalar> 
32100
(
1.44364e+16
1.39759e+16
1.43253e+16
1.41281e+16
1.39262e+16
1.36191e+16
1.31801e+16
1.26096e+16
1.20295e+16
1.14452e+16
1.10037e+16
1.05295e+16
1.03827e+16
1.01248e+16
1.17335
1.49747e+16
1.52214e+16
1.47649e+16
1.48077e+16
1.4673e+16
1.44296e+16
1.41225e+16
1.38274e+16
1.34045e+16
1.29324e+16
1.22865e+16
1.18963e+16
1.13074e+16
1.1244e+16
1.17361
1.71508e+16
1.62186e+16
1.67864e+16
1.65278e+16
1.64766e+16
1.6282e+16
1.59716e+16
1.56146e+16
1.51347e+16
1.44809e+16
1.40732e+16
1.28383e+16
1.29985e+16
1.27295e+16
1.17592
1.81532e+16
1.78232e+16
1.7041e+16
1.7944e+16
1.80462e+16
1.79336e+16
1.76344e+16
1.72365e+16
1.67867e+16
1.64421e+16
1.50685e+16
1.5957e+16
1.45134e+16
1.4349e+16
1.17998
2.04248e+16
1.92183e+16
2.13856e+16
1.98725e+16
2.02091e+16
2.02696e+16
2.00241e+16
1.95866e+16
1.89063e+16
1.76878e+16
1.96968e+16
1.77864e+16
1.64805e+16
1.61084e+16
1.1854
2.15082e+16
1.96839e+16
1.70326e+16
2.14298e+16
2.20251e+16
2.22514e+16
2.2112e+16
2.1692e+16
2.13564e+16
2.20658e+16
2.20113e+16
2.01936e+16
1.80867e+16
1.77263e+16
1.19176
2.42623e+16
2.3872e+16
4.41351e+16
2.33061e+16
2.4295e+16
2.48424e+16
2.48724e+16
2.44249e+16
2.31123e+16
2.45864e+16
2.38447e+16
2.12336e+16
2.01463e+16
2.05143e+16
1.19839
2.46755e+16
1.92862e+16
1.09918e+16
2.54442e+16
2.67382e+16
2.73889e+16
2.75291e+16
2.70655e+16
2.79804e+16
2.73148e+16
2.70179e+16
2.33881e+16
2.09652e+16
2.28685e+16
1.2046
2.8643e+16
4.30055e+16
4.57285e+16
2.66899e+16
2.85828e+16
3.01164e+16
3.04163e+16
2.9991e+16
3.07957e+16
2.99179e+16
2.48781e+16
1.87939e+16
2.42047e+16
9.43306e+15
1.21123
2.74299e+16
1.33892e+16
3.57284e+15
3.01582e+16
3.21957e+16
3.29891e+16
3.32495e+16
3.24287e+16
3.29755e+16
3.16552e+16
2.21467e+16
1.55699e+16
4.77222e+15
1.18091e+15
1.21969
1.017e+16
2.41731e+14
2.62491e+13
6.9229e+14
1.79767e+16
3.85072e+16
4.47569e+16
3.54879e+16
3.35656e+16
2.88583e+16
1.39413e+16
8.65767e+15
4.12884e+15
2.46342e+14
1.25799
4.82414e+16
1.15372e+15
8.72241e+13
1.47592e+15
1.59232e+15
2.58733e+16
1.89563e+16
2.48613e+16
2.26813e+16
5.02707e+15
3.40022e+14
7.7363e+13
6.26401e+14
3.80188e+13
1.34981
8.2555e+14
1.04256e+14
2.52546e+13
9.42e+13
6.70069e+13
3.64966e+15
2.088e+15
2.77074e+15
3.7524e+15
2.1017e+15
1.16035e+15
1.95465e+14
2.76505e+14
1.25133e+13
1.86084
7.92141e+13
8.14334e+13
6.82589e+13
1.08169e+14
6.95239e+13
9.92883e+13
2.15289e+14
6.03834e+13
1.10404e+14
5.39986e+14
4.62837e+14
7.83793e+13
6.4007e+12
4.13907e+13
2.63778
3.1451e+14
1.59958e+14
1.08436e+14
2.34984e+14
1.68302e+14
9.99513e+14
1.11097e+15
6.69257e+14
5.33575e+14
4.0703e+14
2.105e+15
3.19511e+14
1.92927e+13
6.38617e+13
3.05588
5.18972e+14
2.35482e+14
8.65246e+13
2.92522e+14
2.65398e+14
1.78666e+15
1.10693e+15
7.75511e+14
1.32993e+15
5.11618e+14
3.20904e+15
1.1985e+15
1.99158e+13
6.35169e+13
3.33056
3.73317e+14
1.1735e+15
6.80252e+14
1.54227e+15
3.01732e+15
4.22007e+15
3.91221e+15
2.04334e+15
3.15673e+15
5.14092e+14
4.36308e+15
8.76071e+14
1.93699e+13
1.0393e+14
3.50096
2.54278e+14
1.1835e+15
4.75555e+14
2.96497e+15
2.20496e+15
3.66456e+15
2.31875e+15
7.63241e+15
5.47774e+15
5.15319e+14
3.41719e+15
2.36873e+15
1.36188e+13
7.19454e+13
3.63119
2.44836e+14
1.42949e+15
7.62845e+14
1.99837e+15
2.39563e+15
3.10531e+15
1.41832e+15
2.02864e+15
3.6867e+15
3.25422e+14
2.11357e+15
1.68938e+14
1.27418e+13
6.81799e+13
3.77305
1.74566e+14
7.91275e+14
5.60078e+14
2.06733e+15
1.90546e+15
1.96098e+15
9.1819e+14
1.24754e+15
2.09706e+15
1.67267e+14
1.52926e+15
1.58348e+15
1.26838e+13
5.74584e+13
3.91671
1.24931e+14
4.51434e+14
6.13696e+14
2.16968e+15
1.37635e+15
1.63382e+15
6.04651e+14
7.94281e+14
1.23582e+15
9.17141e+13
8.76676e+14
1.0315e+15
1.1769e+13
4.66774e+13
4.06979
6.91845e+13
2.50884e+14
7.02845e+14
2.42787e+15
1.01345e+15
1.2511e+15
5.05181e+14
7.09607e+14
8.05286e+14
5.29886e+13
5.47192e+14
5.07251e+14
1.15078e+13
3.58503e+13
4.25063
4.06906e+13
1.37831e+14
6.04488e+14
1.80056e+15
7.17412e+14
5.78245e+14
5.74331e+14
8.37155e+14
5.43149e+14
3.28483e+13
3.13662e+14
3.10268e+14
1.20764e+13
2.56531e+13
4.47598
2.41872e+13
7.71236e+13
6.69002e+14
2.13044e+15
5.35575e+14
3.92671e+14
6.2367e+14
7.85926e+14
3.87985e+14
2.25064e+13
2.34652e+14
2.02283e+14
1.30531e+13
1.68991e+13
4.75604
1.61159e+13
4.28083e+13
4.54094e+14
1.67677e+15
4.02184e+14
2.59053e+14
6.17653e+14
1.09965e+15
2.74202e+14
1.52338e+13
1.91628e+14
1.36257e+14
1.36397e+13
1.02432e+13
5.0956
1.30149e+13
2.52467e+13
3.18468e+14
1.72096e+15
3.17584e+14
2.08722e+14
5.96986e+14
1.34225e+15
2.19807e+14
1.22775e+13
1.49236e+14
1.14679e+14
1.12106e+13
5.80093e+12
5.49001
1.30347e+13
1.63353e+13
2.30323e+14
1.69412e+15
2.29662e+14
1.54886e+14
4.83216e+14
1.05978e+15
2.18421e+14
1.39064e+13
1.33234e+14
1.37807e+14
6.74263e+12
3.20328e+12
5.93456
1.17749e+13
1.18882e+13
1.87863e+14
2.20135e+15
1.71043e+14
1.48169e+14
4.90333e+14
9.60365e+14
2.83396e+14
1.571e+13
7.31778e+13
8.88277e+13
3.95314e+12
1.86232e+12
6.46042
1.03034e+13
8.87632e+12
1.46621e+14
1.99102e+15
1.37239e+14
1.23137e+14
4.15381e+14
6.2887e+14
1.56761e+14
1.64852e+13
4.31724e+13
6.4545e+13
2.39673e+12
1.28144e+12
7.12131
8.29703e+12
6.6079e+12
6.32272e+13
1.20964e+15
1.51644e+14
1.16582e+14
3.46587e+14
4.13949e+14
1.12694e+14
1.78871e+13
2.72349e+13
5.58963e+13
1.46448e+12
1.10621e+12
7.90447
6.62787e+12
5.21435e+12
3.46138e+13
9.81212e+14
1.72576e+14
1.12652e+14
3.4832e+14
2.0054e+14
5.79548e+13
1.97651e+13
2.01509e+13
3.16195e+13
9.34196e+11
9.32502e+11
8.82527
6.06686e+12
4.95088e+12
5.84473e+13
5.02705e+14
1.38733e+14
1.11217e+14
3.01829e+14
1.57725e+14
4.70738e+13
2.19032e+13
1.52955e+13
1.11825e+13
6.87925e+11
8.75538e+11
9.92824
6.00812e+12
5.45227e+12
2.37358e+14
2.30454e+14
1.18512e+14
1.13467e+14
2.5947e+14
1.46169e+14
4.59405e+13
1.96957e+13
9.47435e+12
5.88316e+12
5.71327e+11
8.28638e+11
11.1623
5.76968e+12
4.8785e+12
6.87975e+14
1.34946e+14
9.35641e+13
1.1419e+14
1.70526e+14
1.14001e+14
3.72381e+13
1.4281e+13
5.96758e+12
4.89274e+12
4.57954e+11
7.63952e+11
12.4784
7.01388e+12
5.66705e+12
1.64461e+14
1.26724e+14
7.17539e+13
1.02986e+14
3.84703e+13
1.39153e+14
4.27299e+13
1.20155e+13
3.73442e+12
4.0117e+12
3.55575e+11
6.92053e+11
13.8486
8.48942e+12
6.99763e+12
2.146e+14
1.71483e+14
5.60655e+13
5.55352e+13
1.87898e+13
1.4648e+14
3.57773e+13
1.0581e+13
2.60277e+12
3.66537e+12
2.67039e+11
6.21063e+11
15.2599
9.31822e+12
6.94398e+12
2.19624e+14
3.99237e+14
4.32605e+13
3.50465e+13
1.35311e+13
1.38578e+14
3.01395e+13
8.73032e+12
2.4184e+12
3.20068e+12
1.94138e+11
5.52359e+11
16.7123
1.01733e+13
9.92502e+12
3.10285e+14
3.37368e+14
2.57869e+13
1.59239e+13
9.30642e+12
1.08534e+14
2.31229e+13
4.54749e+12
1.72612e+12
2.27968e+12
1.404e+11
4.89312e+11
18.2208
9.59858e+12
1.65114e+13
1.62101e+15
1.81959e+14
1.17512e+13
1.52376e+13
7.3993e+12
4.84998e+13
2.32825e+13
2.80914e+12
1.51453e+12
1.39143e+12
1.01453e+11
4.41403e+11
19.7789
9.04419e+12
1.68983e+13
4.14442e+14
3.88892e+13
1.09397e+13
1.16209e+13
7.09512e+12
9.09206e+12
2.43782e+13
2.47642e+12
1.48723e+12
7.44129e+11
7.13539e+10
4.1897e+11
21.3088
6.4363e+12
8.8258e+12
1.398e+14
1.77171e+13
1.2736e+13
1.2116e+13
6.48732e+12
4.03474e+12
2.71688e+13
2.99583e+12
1.2229e+12
3.32631e+11
3.47951e+10
4.58089e+11
22.6306
5.54651e+12
7.27752e+12
4.36436e+13
1.10033e+13
1.45494e+13
1.17577e+13
5.81457e+12
1.82539e+12
4.70197e+13
4.14143e+12
8.57667e+11
7.66763e+10
2.72215e+10
7.16008e+11
23.4606
5.99458e+12
6.27823e+12
2.26572e+13
1.28913e+13
1.4616e+13
1.26526e+13
6.1601e+12
2.60298e+12
6.58113e+11
8.56194e+12
8.50656e+11
7.41417e+10
1.64319e+10
4.42767e+11
24.0976
6.11502e+12
5.82658e+12
2.08878e+13
1.35089e+13
1.38391e+13
1.37731e+13
6.54385e+12
3.40567e+12
2.29991e+12
3.99526e+11
9.98278e+12
5.5563e+10
7.28336e+09
1.44596e+11
24.7468
6.59423e+12
6.09994e+12
2.32745e+13
1.28805e+13
1.47816e+13
1.75286e+13
6.87401e+12
9.84723e+11
2.14974e+12
9.16428e+11
2.84185e+11
5.69643e+10
4.3561e+09
3.97422e+08
25.1683
9.56157e+12
8.95745e+12
2.29149e+13
1.23827e+13
1.34907e+13
2.4814e+13
8.98453e+12
7.26385e+12
1.18968e+12
9.18195e+11
2.60047e+11
3.67723e+10
3.93059e+09
2.19532e+08
46.6551
8.50202e+12
7.67956e+12
5.15093e+13
1.95661e+13
1.27756e+13
3.53983e+13
1.13583e+13
1.02267e+13
3.15061e+12
7.812e+11
9.33024e+11
6.46766e+10
3.12448e+09
9.81223e+07
54.8467
8.1888e+12
1.02397e+13
2.53822e+13
1.05754e+13
1.05711e+13
2.43438e+13
6.06124e+12
1.73099e+13
2.6131e+13
5.52182e+12
1.02966e+12
7.21165e+10
2.62562e+09
3.13703e+07
58.7099
6.2305e+12
7.75772e+12
2.89288e+13
8.35417e+12
7.44725e+12
2.44021e+13
4.24011e+12
1.04014e+13
1.81662e+13
8.10193e+13
5.16125e+11
3.62027e+10
2.32042e+09
9.59883e+06
60.3172
4.39421e+12
5.87042e+12
4.55108e+13
6.57522e+12
8.69891e+12
3.48411e+13
5.86073e+12
1.04998e+13
8.49177e+13
3.39866e+12
2.37617e+11
1.6946e+10
2.03148e+09
3.45103e+06
60.9043
2.7725e+12
3.65965e+12
1.14993e+14
5.09352e+12
8.24984e+12
5.70928e+13
2.04299e+13
1.51185e+13
3.42664e+14
9.07824e+15
1.18815e+11
8.52662e+09
1.76406e+09
1.34923e+06
61.1473
1.69694e+12
1.94105e+12
1.02672e+13
4.80358e+12
8.9536e+12
6.64453e+13
1.31549e+13
1.71563e+13
1.72128e+14
6.75825e+15
6.28163e+10
4.52615e+09
1.49613e+09
421603
61.2695
1.28604e+12
1.49876e+12
9.25355e+12
5.33573e+12
9.30122e+12
1.73392e+14
1.86014e+13
9.46343e+13
9.17324e+13
1.42278e+15
3.19354e+10
2.30857e+09
1.26461e+09
128155
61.2877
1.30077e+12
2.1662e+12
5.90509e+12
7.79269e+12
8.38245e+13
1.50039e+14
1.33292e+13
2.68201e+13
4.99334e+13
7.33587e+14
1.63961e+10
1.18786e+09
6.1661e+08
53110
61.2615
1.30953e+12
1.3324e+12
2.64394e+12
5.32899e+12
1.13475e+13
1.89166e+14
2.14855e+13
1.95901e+13
3.16486e+13
3.91473e+14
8.06687e+09
6.07701e+08
2.10561e+08
50238.2
64.6477
8.93893e+11
8.96547e+11
1.57764e+12
3.39154e+12
5.72147e+12
1.32658e+14
5.5927e+14
1.46353e+13
3.11977e+13
3.51463e+10
3.19566e+09
2.52323e+08
548143
602267
122.514
5.95095e+11
7.75591e+11
7.7701e+11
1.95881e+12
2.6501e+12
8.80533e+13
3.43799e+13
9.73161e+12
2.87228e+13
1.52448e+10
1.02379e+09
6.45815e+07
398006
651861
152.73
2.50316e+11
4.62132e+11
5.96771e+11
9.70231e+11
1.30985e+12
6.35174e+13
2.60041e+13
7.33238e+12
2.46292e+13
2.17752e+10
2.01045e+09
7.91619e+06
1.20702e+06
1.04082e+06
179.163
9.67301e+10
2.20675e+11
3.38645e+11
5.02314e+11
6.68964e+11
4.7931e+13
1.93576e+13
5.65643e+12
2.08845e+13
3.37233e+10
3.51553e+09
2.80831e+08
1.38483e+06
1.42791e+06
201.529
4.52907e+10
9.31688e+10
1.72651e+11
2.62015e+11
3.4133e+11
3.65104e+13
1.48222e+13
4.35087e+12
1.76889e+13
7.88016e+10
5.43861e+09
4.17813e+08
2.55756e+06
1.60869e+06
215.709
2.8669e+10
3.81361e+10
1.16192e+11
1.3557e+11
1.69369e+11
2.6967e+13
1.06981e+13
3.0615e+12
1.31096e+13
2.35e+13
1.00828e+09
7.80464e+07
4.23161e+06
2.28177e+06
221.816
2.15367e+10
1.95626e+10
4.15021e+10
7.16078e+10
8.0927e+10
1.66971e+13
6.68169e+12
1.90427e+12
8.5291e+12
1.14889e+16
1.05317e+11
7.60901e+07
2.19304e+06
3.19253e+06
230.357
1.88151e+10
1.43227e+10
1.57824e+10
3.95031e+10
3.74441e+10
7.44784e+12
3.75959e+12
9.39476e+11
3.77442e+12
9.68673e+10
6.21083e+09
3.71598e+07
963223
3.50575e+06
245.635
1.74222e+10
1.18553e+10
4.36061e+09
2.67673e+10
1.68671e+10
2.64729e+12
1.62977e+12
4.25458e+11
1.13122e+12
3.36489e+08
1.28229e+08
5.03362e+06
1.66491e+06
3.37092e+06
266.746
1.60651e+10
1.13874e+10
3.52975e+09
1.0465e+10
7.26275e+09
2.90824e+11
7.58301e+10
5.15239e+10
1.66825e+10
1.60228e+07
5.50242e+06
1.2187e+06
1.91401e+06
3.27299e+06
288.791
1.49297e+10
1.109e+10
2.36192e+09
1.43303e+09
1.27615e+09
7.12973e+09
8.11198e+08
7.39921e+09
4.68509e+08
6.99446e+06
1.60558e+06
2.3025e+06
1.93712e+06
3.1676e+06
307.127
1.50405e+10
1.19021e+10
9.71991e+09
8.88158e+08
6.57397e+08
3.93797e+08
1.11449e+08
1.88421e+08
8.81686e+06
1.82207e+06
3.17843e+06
2.70809e+06
1.85781e+06
2.45847e+06
321.236
1.181e+10
8.90936e+09
4.49428e+09
5.36077e+08
3.98371e+08
1.46164e+08
6.44968e+07
2.8463e+07
1.88831e+06
4.30578e+06
4.02658e+06
2.79966e+06
1.57702e+06
1.26949e+06
332.57
9.63486e+09
7.69018e+09
3.34501e+09
3.63998e+08
2.83343e+08
9.83252e+07
4.01508e+07
3.12611e+06
6.25139e+06
6.04047e+06
4.55518e+06
2.52881e+06
1.06488e+06
482247
342.338
9.6874e+09
7.35475e+09
3.3979e+09
3.06529e+08
2.16892e+08
7.00261e+07
4.42429e+06
8.62051e+06
9.16959e+06
7.82807e+06
4.83034e+06
2.10356e+06
650220
180881
353.242
1.07612e+10
6.86322e+09
2.97035e+09
3.11655e+08
1.69192e+08
6.64653e+06
1.17445e+07
1.25882e+07
1.10218e+07
8.94736e+06
4.98354e+06
1.8462e+06
497190
104987
375.187
1.24497e+10
6.30974e+09
1.8785e+09
4.39139e+08
2.19368e+07
1.82188e+07
1.90733e+07
1.9541e+07
1.49643e+07
1.01111e+07
5.1142e+06
1.79777e+06
574315
128951
403.942
1.6219e+10
6.58354e+09
1.02855e+09
4.88473e+07
5.9768e+07
4.93647e+07
4.54416e+07
3.76268e+07
2.30916e+07
1.19698e+07
5.34142e+06
1.72456e+06
406805
263312
424.362
2.85116e+10
1.21208e+10
2.31961e+09
3.41029e+08
1.52304e+08
1.31796e+08
1.15448e+08
8.27322e+07
4.28706e+07
1.79797e+07
7.39707e+06
2.22856e+06
497217
104213
412.703
6.33284e+10
2.86932e+10
5.79161e+09
7.91905e+08
8.55023e+08
8.04214e+08
6.95431e+08
3.89052e+08
1.56148e+08
5.40185e+07
2.13668e+07
5.49258e+06
990934
239670
400.007
7.20636e+10
3.31609e+10
1.00818e+10
3.79271e+09
3.39979e+09
3.15499e+09
2.52846e+09
1.39921e+09
5.28373e+08
1.74323e+08
5.67954e+07
1.84967e+07
3.86307e+06
988588
403.592
1.59583e+11
7.78498e+10
2.59901e+10
1.211e+10
9.66457e+09
8.28809e+09
5.87237e+09
2.95107e+09
1.1481e+09
4.03543e+08
1.25705e+08
4.84776e+07
1.08699e+07
1.93004e+06
433.549
2.12837e+11
1.28867e+11
5.48183e+10
2.70794e+10
2.01288e+10
1.70036e+10
1.18018e+10
5.55483e+09
2.14483e+09
7.73821e+08
2.22977e+08
6.08042e+07
1.4771e+07
4.31365e+06
494.554
2.1273e+11
1.47775e+11
7.67006e+10
4.19564e+10
2.98217e+10
2.41626e+10
1.62186e+10
7.18595e+09
2.85838e+09
1.14787e+09
3.68038e+08
1.19854e+08
3.39864e+07
1.35715e+07
547.132
1.94856e+11
1.45224e+11
8.65543e+10
5.04963e+10
3.1798e+10
2.42233e+10
1.59076e+10
6.82059e+09
2.86912e+09
1.42118e+09
5.46876e+08
1.8101e+08
6.04867e+07
2.45058e+07
634.982
2.00544e+11
1.6793e+11
1.0597e+11
5.94103e+10
3.31843e+10
2.03858e+10
1.11687e+10
3.16865e+09
1.22787e+09
7.18939e+08
4.57223e+08
2.14882e+08
8.33086e+07
1.64623e+08
1.4056e+07
2.7717e+11
2.43875e+11
1.41685e+11
7.30651e+10
3.47458e+10
1.51983e+10
5.93394e+09
1.81382e+09
3.16243e+08
4.68703e+08
6.43745e+08
3.98458e+08
2.36683e+08
2.58987e+08
2.2494e+08
1.87042e+13
1.7026e+13
1.1113e+13
6.63229e+12
3.63523e+12
1.74663e+12
5.9278e+11
1.31747e+11
3.76514e+10
9.12986e+09
1.41705e+09
1.78991e+08
1.12415e+09
8.72955e+08
6.42551e+08
3.93075e+14
3.68803e+14
2.85537e+14
2.09998e+14
1.45655e+14
8.46812e+13
4.55326e+13
2.06012e+13
7.17338e+12
2.19422e+12
8.69251e+11
2.15267e+11
4.62981e+09
5.49876e+09
5.53951e+09
1.24069e+15
1.29377e+15
1.4585e+15
1.57164e+15
1.45589e+15
1.05035e+15
5.98953e+14
2.8918e+14
1.21851e+14
4.46517e+13
1.63581e+13
6.9905e+12
1.78704e+12
9.14025e+11
8.72445e+11
1.98736e+15
2.01912e+15
1.80833e+15
1.51631e+15
1.16994e+15
7.63311e+14
4.54009e+14
2.407e+14
1.07653e+14
4.35796e+13
1.69462e+13
1.01463e+13
1.20576e+13
1.30464e+13
1.42198e+13
1.03162e+15
9.55843e+14
6.82555e+14
4.19395e+14
2.38592e+14
1.27015e+14
9.20152e+13
7.07766e+13
4.73085e+13
2.4205e+13
8.03329e+12
2.86481e+12
4.05177e+12
4.34276e+12
4.20526e+12
4.96676e+14
4.3196e+14
2.60216e+14
1.39661e+14
7.05456e+13
3.83989e+13
2.5043e+13
2.21035e+13
1.59348e+13
7.63708e+12
1.42621e+12
9.49768e+11
7.81474e+11
7.92392e+11
7.55876e+11
1.59128e+15
1.42668e+15
9.16154e+14
5.13076e+14
2.67694e+14
1.33205e+14
5.83025e+13
2.34094e+13
4.56527e+12
7.95988e+11
4.85682e+11
2.03178e+11
3.91103e+11
4.36536e+11
4.19586e+11
4.13271e+14
3.55661e+14
2.54324e+14
1.50874e+14
7.53961e+13
3.29708e+13
1.25541e+13
3.34548e+12
4.59757e+11
3.85278e+11
2.31108e+11
2.87021e+11
3.43533e+11
4.02162e+11
3.83566e+11
7.58923e+14
8.74598e+14
7.09505e+14
4.88561e+14
2.63756e+14
1.20053e+14
5.61362e+13
1.97409e+13
5.39246e+12
3.74695e+11
4.11635e+11
4.30006e+11
5.73251e+11
5.61365e+11
4.81114e+11
3.629e+14
7.88438e+14
8.0811e+14
1.06052e+14
5.35402e+13
4.05444e+13
2.13945e+13
6.56519e+12
1.34793e+12
1.24326e+12
9.64642e+11
9.89147e+11
9.4585e+11
7.50844e+11
5.81384e+11
3.21778e+14
3.06296e+14
2.18642e+14
1.4317e+14
9.90772e+13
5.88583e+13
2.79023e+13
1.37668e+13
8.16037e+12
5.99105e+12
4.61395e+12
3.53299e+12
2.69527e+12
2.15367e+12
1.86487e+12
7.50879e+14
6.87361e+14
4.97604e+14
3.74012e+14
2.89934e+14
2.14216e+14
1.31804e+14
7.01509e+13
3.64666e+13
2.02922e+13
1.32118e+13
1.00523e+13
8.06165e+12
6.48376e+12
5.46946e+12
1.08658e+15
9.96053e+14
1.03242e+15
8.05558e+14
7.5991e+14
6.97666e+14
6.39769e+14
4.89517e+14
3.40258e+14
2.18458e+14
1.24568e+14
6.50142e+13
3.41892e+13
2.02433e+13
1.48444e+13
1.00769e+15
1.13609e+15
1.3695e+15
1.41307e+15
1.28609e+15
1.27983e+15
1.39206e+15
1.33351e+15
9.56827e+14
6.01028e+14
4.8298e+14
3.72259e+14
2.38375e+14
1.41409e+14
1.07871e+14
5.16791e+14
5.73038e+14
7.36665e+14
1.11348e+15
1.22979e+15
1.38851e+15
1.44878e+15
1.53179e+15
1.51527e+15
1.31978e+15
1.01795e+15
7.30396e+14
5.95104e+14
6.12897e+14
9.3607e+14
9.87414e+14
1.03909e+15
1.00588e+15
9.85707e+14
1.0384e+15
1.28356e+15
1.44504e+15
1.82791e+15
2.17123e+15
2.23373e+15
2.04909e+15
1.75912e+15
1.55082e+15
1.62477e+15
2.77197e+15
6.44077e+14
6.91873e+14
7.64173e+14
7.8984e+14
8.28068e+14
1.1476e+15
1.69941e+15
2.19874e+15
2.30211e+15
2.64547e+15
2.92626e+15
3.03475e+15
3.27315e+15
4.37176e+15
7.10453e+15
1.37066e+15
1.47977e+15
1.54107e+15
1.47729e+15
1.29771e+15
1.15172e+15
1.1804e+15
1.4273e+15
1.65479e+15
2.20278e+15
2.6272e+15
2.86624e+15
2.99426e+15
3.60972e+15
6.07836e+15
8.60252e+14
9.54928e+14
1.19604e+15
1.34133e+15
1.29505e+15
1.19006e+15
1.08629e+15
1.01749e+15
9.77173e+14
1.16855e+15
1.46545e+15
1.68522e+15
1.83318e+15
2.4853e+15
3.91898e+15
1.53455e+15
1.65537e+15
1.70599e+15
1.53479e+15
1.43691e+15
1.42634e+15
1.33955e+15
1.10921e+15
7.42663e+14
4.92691e+14
7.32043e+14
1.07875e+15
1.35815e+15
1.9119e+15
3.0919e+15
9.67996e+14
1.05482e+15
1.202e+15
1.21365e+15
1.04522e+15
1.14221e+15
1.23469e+15
1.12991e+15
8.02244e+14
4.34747e+14
2.2234e+14
2.93956e+14
4.48701e+14
7.0228e+14
1.2872e+15
1.79479e+15
1.95161e+15
2.00163e+15
1.80292e+15
1.56727e+15
1.47814e+15
1.48626e+15
1.39228e+15
1.13704e+15
6.74894e+14
3.13366e+14
2.08118e+14
1.80495e+14
1.65528e+14
1.67058e+14
1.21191e+15
1.30551e+15
1.32111e+15
1.16391e+15
9.36589e+14
9.00799e+14
9.52401e+14
1.03045e+15
9.952e+14
8.26423e+14
5.79864e+14
4.57902e+14
3.68201e+14
2.74246e+14
1.97489e+14
8.19929e+14
8.8127e+14
8.81798e+14
8.3605e+14
8.51925e+14
7.84662e+14
7.80083e+14
8.47026e+14
8.56447e+14
7.71325e+14
6.32824e+14
6.01228e+14
5.92515e+14
5.48272e+14
4.70755e+14
8.41105e+14
8.81082e+14
7.84544e+14
6.90485e+14
7.05452e+14
7.31888e+14
6.76647e+14
4.59547e+14
2.99854e+14
2.95739e+14
3.44332e+14
4.09861e+14
4.50648e+14
4.47056e+14
4.32659e+14
4.45091e+14
5.04006e+14
6.17196e+14
6.9991e+14
7.1136e+14
5.91563e+14
4.22335e+14
2.27704e+14
1.58427e+14
1.71328e+14
2.28984e+14
2.86006e+14
3.32911e+14
3.58561e+14
3.69117e+14
6.75448e+14
7.36022e+14
7.14211e+14
6.42923e+14
5.17773e+14
4.00569e+14
3.04446e+14
2.28127e+14
1.45408e+14
1.28494e+14
1.41717e+14
1.70294e+14
2.07062e+14
2.32849e+14
2.50869e+14
4.41754e+14
5.40848e+14
6.34227e+14
6.28159e+14
5.11346e+14
3.51838e+14
2.00351e+14
1.09077e+14
7.75434e+13
8.93279e+13
1.13208e+14
1.23666e+14
1.2394e+14
1.2707e+14
1.3098e+14
4.69739e+14
5.83638e+14
6.44988e+14
6.16147e+14
4.94037e+14
3.63603e+14
2.49394e+14
1.34041e+14
7.03075e+13
7.75474e+13
8.60268e+13
8.98381e+13
9.61938e+13
1.04743e+14
1.21491e+14
5.09932e+14
6.369e+14
6.83168e+14
6.25872e+14
4.80043e+14
3.40627e+14
2.49988e+14
1.57436e+14
7.15326e+13
5.42679e+13
5.43121e+13
6.3247e+13
7.97392e+13
9.69184e+13
1.19157e+14
6.34748e+14
7.37338e+14
7.00543e+14
5.86108e+14
4.03169e+14
2.42815e+14
1.66665e+14
1.13652e+14
5.92635e+13
4.71657e+13
4.73589e+13
4.89256e+13
5.22596e+13
5.87006e+13
6.91713e+13
4.89245e+14
5.75695e+14
5.36574e+14
3.99725e+14
2.24032e+14
9.53016e+13
4.84658e+13
3.73271e+13
4.0354e+13
4.24898e+13
4.20719e+13
3.79045e+13
3.82086e+13
4.53314e+13
5.49626e+13
3.70463e+14
4.53943e+14
4.27043e+14
3.05958e+14
1.62195e+14
6.75727e+13
3.55096e+13
2.53588e+13
2.48433e+13
2.87838e+13
3.22093e+13
3.57619e+13
4.15619e+13
4.78255e+13
5.58902e+13
3.27021e+14
4.32656e+14
4.22886e+14
3.13658e+14
1.72113e+14
7.32215e+13
3.3148e+13
1.76121e+13
1.78839e+13
1.98791e+13
2.12603e+13
2.68163e+13
3.54157e+13
4.46156e+13
5.62349e+13
2.72524e+14
3.38887e+14
3.23543e+14
2.35188e+14
1.27339e+14
4.85377e+13
1.93625e+13
1.2605e+13
1.38049e+13
1.51769e+13
1.70205e+13
2.34881e+13
3.21501e+13
4.18123e+13
5.20124e+13
1.91522e+14
2.26915e+14
2.07055e+14
1.43221e+14
7.20249e+13
2.40726e+13
8.46809e+12
8.32481e+12
8.716e+12
9.44654e+12
1.15826e+13
1.58269e+13
1.95075e+13
2.26509e+13
2.60898e+13
1.44777e+14
1.83618e+14
1.75345e+14
1.27615e+14
6.99003e+13
2.54409e+13
5.90298e+12
4.84156e+12
5.09951e+12
5.71913e+12
7.33133e+12
1.12291e+13
1.45883e+13
1.76044e+13
2.08325e+13
6.58785e+13
8.13549e+13
7.77738e+13
5.63677e+13
2.96838e+13
1.03605e+13
4.33016e+12
3.81976e+12
3.47685e+12
3.96018e+12
6.0629e+12
8.65887e+12
1.05789e+13
1.24986e+13
1.47231e+13
3.40918e+13
4.34846e+13
4.28995e+13
3.25176e+13
1.86516e+13
7.57976e+12
3.89857e+12
3.7527e+12
3.70605e+12
4.26962e+12
5.81419e+12
7.40461e+12
8.59572e+12
9.76015e+12
1.11174e+13
1.14375e+13
1.20808e+13
1.12469e+13
8.88301e+12
5.12626e+12
3.59809e+12
3.64561e+12
3.65754e+12
3.50189e+12
3.63871e+12
4.48168e+12
5.37779e+12
6.19469e+12
7.00955e+12
7.90508e+12
6.0082e+12
6.27363e+12
5.5068e+12
4.91859e+12
4.29434e+12
3.29586e+12
2.57969e+12
2.44331e+12
3.05478e+12
3.13114e+12
4.18524e+12
4.73806e+12
5.05088e+12
5.27484e+12
5.63201e+12
2.67252e+12
2.74749e+12
2.40795e+12
2.09294e+12
2.02794e+12
1.92139e+12
1.70536e+12
1.59075e+12
2.04491e+12
2.75136e+12
3.40921e+12
3.77276e+12
3.85824e+12
3.98017e+12
4.2255e+12
1.57042e+12
1.60868e+12
1.41119e+12
1.2439e+12
1.40135e+12
1.4935e+12
1.52101e+12
1.54847e+12
1.76231e+12
2.2448e+12
2.75801e+12
3.00461e+12
3.05006e+12
3.04612e+12
3.06476e+12
8.80113e+11
9.45389e+11
9.54925e+11
9.53739e+11
1.04776e+12
1.12705e+12
1.18071e+12
1.17353e+12
1.32543e+12
1.61617e+12
1.87858e+12
2.03926e+12
2.05049e+12
2.0417e+12
2.02753e+12
5.22245e+11
5.4242e+11
4.97245e+11
4.76985e+11
5.31996e+11
5.62906e+11
6.0617e+11
7.14472e+11
9.37131e+11
1.18314e+12
1.38892e+12
1.52652e+12
1.582e+12
1.59374e+12
1.58442e+12
3.05475e+11
3.25908e+11
3.6148e+11
4.08907e+11
4.35361e+11
4.34501e+11
4.2289e+11
4.76112e+11
6.50312e+11
8.65598e+11
1.00646e+12
1.09439e+12
1.1337e+12
1.15036e+12
1.15846e+12
2.34112e+11
2.6216e+11
2.76189e+11
2.92351e+11
2.95158e+11
2.85709e+11
2.6065e+11
2.63951e+11
4.5111e+11
6.09214e+11
6.9196e+11
7.35701e+11
7.57306e+11
7.62236e+11
7.54231e+11
1.34823e+11
1.46205e+11
1.60931e+11
1.74467e+11
1.87072e+11
1.97122e+11
1.94925e+11
2.10135e+11
3.75103e+11
4.69335e+11
5.09633e+11
5.28115e+11
5.26803e+11
5.15727e+11
4.97919e+11
8.39064e+10
8.93586e+10
9.17812e+10
9.42933e+10
9.35557e+10
9.27891e+10
1.00664e+11
1.58312e+11
2.6709e+11
3.61059e+11
3.94349e+11
4.00807e+11
3.89946e+11
3.73774e+11
3.60363e+11
5.33648e+10
5.6023e+10
5.78507e+10
6.42344e+10
7.20401e+10
7.76939e+10
8.76658e+10
1.48564e+11
2.45419e+11
3.03586e+11
3.18732e+11
3.17067e+11
3.07141e+11
3.0092e+11
3.05311e+11
3.91402e+10
4.17004e+10
4.02555e+10
4.72687e+10
5.58828e+10
6.15513e+10
7.53554e+10
1.3919e+11
2.1803e+11
2.67179e+11
2.79682e+11
2.75288e+11
2.60608e+11
2.50551e+11
2.49841e+11
3.03512e+10
3.37491e+10
3.52543e+10
3.8401e+10
4.15022e+10
4.57588e+10
9.136e+10
1.77087e+11
2.49237e+11
2.77241e+11
2.84381e+11
2.75047e+11
2.55876e+11
2.41246e+11
2.37165e+11
4.5696e+10
4.68747e+10
4.14197e+10
4.45529e+10
5.01952e+10
5.85515e+10
8.47199e+10
1.58179e+11
2.24274e+11
2.58773e+11
2.77789e+11
2.76547e+11
2.63298e+11
2.47836e+11
2.40716e+11
4.7262e+10
4.65853e+10
3.70362e+10
3.96205e+10
4.55869e+10
5.56314e+10
1.14812e+11
1.7854e+11
2.37883e+11
2.77093e+11
3.06394e+11
3.08172e+11
2.94398e+11
2.77795e+11
2.69464e+11
4.52037e+10
4.91112e+10
4.28767e+10
4.07944e+10
4.40483e+10
7.47827e+10
1.44157e+11
2.13569e+11
2.49047e+11
2.85704e+11
3.0376e+11
3.07199e+11
3.00614e+11
2.92835e+11
2.90054e+11
9.41785e+09
1.2464e+10
2.23477e+10
3.58446e+10
5.44851e+10
1.12523e+11
2.19249e+11
2.58698e+11
2.72117e+11
2.9197e+11
3.01463e+11
3.00582e+11
2.95031e+11
2.92418e+11
2.95003e+11
4.426e+10
6.10889e+10
8.2517e+10
1.08154e+11
1.30925e+11
1.53387e+11
2.37368e+11
3.0197e+11
3.23439e+11
3.3339e+11
3.3638e+11
3.33767e+11
3.30751e+11
3.28221e+11
3.32332e+11
8.88656e+10
1.14304e+11
1.47364e+11
1.8208e+11
2.08858e+11
2.51592e+11
2.75237e+11
3.11485e+11
3.22656e+11
3.31502e+11
3.31368e+11
3.24752e+11
3.20126e+11
3.20895e+11
3.3008e+11
1.00538e+11
1.18887e+11
1.53408e+11
1.9545e+11
2.40681e+11
2.86079e+11
2.54887e+11
3.06832e+11
3.02854e+11
2.95029e+11
2.88596e+11
2.81832e+11
2.84608e+11
2.92864e+11
3.17972e+11
1.12624e+11
1.27275e+11
1.59541e+11
1.93059e+11
2.2239e+11
2.6158e+11
4.41389e+11
4.67588e+11
4.23168e+11
4.00238e+11
3.68618e+11
3.32822e+11
3.28433e+11
3.45344e+11
4.10005e+11
1.21154e+11
1.34956e+11
1.68164e+11
2.06945e+11
2.51916e+11
3.3503e+11
4.66775e+11
5.57865e+11
5.59346e+11
5.34775e+11
5.06122e+11
4.89407e+11
4.87629e+11
5.06161e+11
6.59842e+11
1.19577e+11
1.32591e+11
1.64854e+11
2.03839e+11
2.41712e+11
3.13275e+11
4.97828e+11
6.1504e+11
6.41795e+11
6.33727e+11
6.23335e+11
6.29871e+11
6.38216e+11
7.08169e+11
9.91732e+11
1.14725e+11
1.2692e+11
1.59937e+11
2.07748e+11
2.68669e+11
3.54371e+11
4.73737e+11
6.00029e+11
6.76381e+11
6.99671e+11
6.97039e+11
7.22629e+11
7.52036e+11
8.70645e+11
1.32899e+12
1.06812e+11
1.17005e+11
1.43826e+11
1.79742e+11
2.25243e+11
2.971e+11
4.85761e+11
6.87507e+11
8.04739e+11
8.44579e+11
8.68399e+11
8.88436e+11
9.12249e+11
1.05971e+12
1.56505e+12
9.68762e+10
1.05742e+11
1.29714e+11
1.63598e+11
2.08325e+11
2.8237e+11
4.08491e+11
5.80278e+11
7.14986e+11
7.91507e+11
8.69499e+11
9.28354e+11
1.00224e+12
1.18693e+12
1.5942e+12
8.37894e+10
9.13362e+10
1.11471e+11
1.4007e+11
1.78301e+11
2.40104e+11
3.67985e+11
5.34083e+11
6.82481e+11
7.70619e+11
8.59208e+11
8.97734e+11
9.99527e+11
1.17598e+12
1.53406e+12
6.67839e+10
7.28598e+10
8.9168e+10
1.1309e+11
1.50443e+11
2.20425e+11
3.37823e+11
4.87233e+11
6.25649e+11
7.61767e+11
8.64294e+11
8.99127e+11
9.60088e+11
1.10125e+12
1.39275e+12
5.0117e+10
5.44477e+10
6.60755e+10
8.24925e+10
1.09511e+11
1.64643e+11
2.64916e+11
4.02925e+11
5.74269e+11
7.17841e+11
8.17128e+11
8.63454e+11
8.91723e+11
9.84968e+11
1.1989e+12
3.83643e+10
4.14916e+10
4.97722e+10
6.08096e+10
7.85949e+10
1.19621e+11
2.0373e+11
3.35497e+11
5.02003e+11
6.5445e+11
7.45314e+11
7.64794e+11
8.29372e+11
8.58704e+11
1.00065e+12
2.92122e+10
3.14876e+10
3.76738e+10
4.6893e+10
6.37019e+10
9.88009e+10
1.6551e+11
2.68993e+11
4.13336e+11
5.67651e+11
6.71781e+11
6.98101e+11
7.17026e+11
7.29377e+11
8.12801e+11
2.20962e+10
2.37106e+10
2.8142e+10
3.48353e+10
4.85948e+10
7.96324e+10
1.40874e+11
2.26319e+11
3.21993e+11
4.25434e+11
5.35084e+11
5.90668e+11
6.06778e+11
6.23792e+11
6.88303e+11
1.73289e+10
1.88127e+10
2.34082e+10
3.10709e+10
4.45381e+10
7.12429e+10
1.1808e+11
1.805e+11
2.4882e+11
3.47633e+11
4.18837e+11
4.58526e+11
4.84185e+11
5.21002e+11
5.79213e+11
1.30857e+10
1.42303e+10
1.81835e+10
2.50378e+10
3.69564e+10
5.88414e+10
9.49653e+10
1.44394e+11
1.97051e+11
2.5877e+11
2.80386e+11
3.21092e+11
3.55369e+11
4.21047e+11
4.75121e+11
1.13233e+10
1.24788e+10
1.61159e+10
2.22389e+10
3.23212e+10
4.91948e+10
7.58007e+10
1.1315e+11
1.62845e+11
2.0514e+11
2.10586e+11
2.35118e+11
2.64311e+11
3.20719e+11
3.57427e+11
8.49903e+09
9.3333e+09
1.23442e+10
1.7604e+10
2.68315e+10
4.2522e+10
6.53951e+10
9.51817e+10
1.30258e+11
1.7418e+11
2.05141e+11
2.16642e+11
2.29654e+11
2.4731e+11
2.68923e+11
8.53259e+09
9.50031e+09
1.257e+10
1.77883e+10
2.65188e+10
4.02535e+10
5.82186e+10
7.97813e+10
1.07449e+11
1.41388e+11
1.57244e+11
1.67895e+11
1.85887e+11
1.96417e+11
2.09032e+11
8.3515e+09
9.24242e+09
1.2223e+10
1.73974e+10
2.57281e+10
3.77273e+10
5.23818e+10
6.95758e+10
9.23834e+10
1.196e+11
1.43728e+11
1.57091e+11
1.6387e+11
1.65855e+11
1.76605e+11
9.05933e+09
9.99436e+09
1.30409e+10
1.82305e+10
2.6162e+10
3.70364e+10
4.99851e+10
6.42475e+10
8.2347e+10
1.03866e+11
1.25194e+11
1.38881e+11
1.4525e+11
1.5004e+11
1.63334e+11
9.91407e+09
1.09056e+10
1.41281e+10
1.94037e+10
2.68819e+10
3.64632e+10
4.75766e+10
5.93121e+10
7.21182e+10
8.54472e+10
1.0385e+11
1.20868e+11
1.30761e+11
1.37287e+11
1.45644e+11
1.02441e+10
1.10984e+10
1.38556e+10
1.83773e+10
2.50255e+10
3.40243e+10
4.47553e+10
5.57403e+10
6.68501e+10
7.83988e+10
9.62584e+10
1.15707e+11
1.24143e+11
1.29824e+11
1.37648e+11
1.13865e+10
1.22972e+10
1.50376e+10
1.92762e+10
2.50612e+10
3.27295e+10
4.28037e+10
5.5701e+10
7.13954e+10
8.88694e+10
1.02435e+11
1.13532e+11
1.21281e+11
1.26207e+11
1.35119e+11
1.18158e+10
1.26442e+10
1.51679e+10
1.92352e+10
2.51575e+10
3.32631e+10
4.38636e+10
5.71855e+10
7.23543e+10
8.78722e+10
9.99353e+10
1.12528e+11
1.19573e+11
1.25103e+11
1.32982e+11
1.24219e+10
1.32479e+10
1.56839e+10
1.95217e+10
2.49525e+10
3.26626e+10
4.35866e+10
5.78541e+10
7.44054e+10
9.04305e+10
1.02737e+11
1.11166e+11
1.18135e+11
1.22153e+11
1.29696e+11
1.30313e+10
1.388e+10
1.63994e+10
2.0541e+10
2.67447e+10
3.54544e+10
4.65949e+10
5.94305e+10
7.27787e+10
8.48272e+10
9.51718e+10
1.05785e+11
1.12525e+11
1.18082e+11
1.25251e+11
1.37288e+10
1.46069e+10
1.71815e+10
2.13892e+10
2.74819e+10
3.57095e+10
4.62236e+10
5.87476e+10
7.27144e+10
8.70277e+10
9.73563e+10