/*--------------------------------*- C++ -*----------------------------------*\
  =========                 |
  \\      /  F ield         | OpenFOAM: The Open Source CFD Toolbox
   \\    /   O peration     | Website:  https://openfoam.org
    \\  /    A nd           | Version:  7
     \\/     M anipulation  |
\*---------------------------------------------------------------------------*/
FoamFile
{
    version     2.0;
    format      ascii;
    class       surfaceScalarField;
    location    "200";
    object      phi;
}
// * * * * * * * * * * * * * * * * * * * * * * * * * * * * * * * * * * * * * //

dimensions      [0 3 -1 0 0 0 0];

internalField   nonuniform List<scalar> 
63695
(
-6.53311e-06
-0.000117112
-2.66181e-05
-0.000352061
-5.98428e-05
-0.000580263
-0.000105902
-0.00079149
-0.000162483
-0.00097622
-0.000228732
-0.00112385
-0.000302158
-0.00122385
-0.000380073
-0.00126688
-0.000460594
-0.00124446
-0.000542148
-0.0011469
-0.000620227
-0.000959302
-0.00067974
-0.000656402
-0.000666584
-0.000181256
-0.00050409
0.000602211
0.0019572
-6.59977e-06
-0.000108786
-2.77619e-05
-0.000327358
-6.21877e-05
-0.000539495
-0.000109412
-0.000737308
-0.000167913
-0.000911465
-0.000236663
-0.00105216
-0.000314041
-0.00114969
-0.000398541
-0.00119503
-0.000489477
-0.00117942
-0.000586988
-0.00109417
-0.000692031
-0.00092869
-0.000807679
-0.000668312
-0.000956717
-0.00028845
-0.00120593
0.000236613
0.000751564
-6.92492e-06
-0.000110253
-2.93538e-05
-0.000331864
-6.55752e-05
-0.000547967
-0.000115144
-0.000750537
-0.000176995
-0.000930086
-0.000250205
-0.00107653
-0.000333809
-0.00117971
-0.000427066
-0.00123011
-0.000529897
-0.00121907
-0.000643489
-0.00113897
-0.000770659
-0.00098243
-0.000919326
-0.000742832
-0.00110977
-0.000415203
-0.00135955
-3.04501e-05
0.000247855
-7.38157e-06
-0.000111966
-3.13269e-05
-0.000337359
-7.00313e-05
-0.000558281
-0.000123104
-0.00076679
-0.000189737
-0.000953007
-0.000269204
-0.00110634
-0.000360886
-0.00121607
-0.000464452
-0.00127223
-0.000580135
-0.00126635
-0.000708757
-0.00119178
-0.000853924
-0.00104504
-0.00102202
-0.000825901
-0.00122108
-0.000538322
-0.00145484
-0.000223301
1.04316e-05
-7.90693e-06
-0.000114418
-3.36058e-05
-0.000345231
-7.52619e-05
-0.000572752
-0.000132744
-0.000789574
-0.000205459
-0.000984601
-0.00029276
-0.00114669
-0.000394171
-0.00126436
-0.000509426
-0.00132715
-0.000638549
-0.00132673
-0.000782563
-0.0012577
-0.000944161
-0.00112022
-0.00112546
-0.00091647
-0.00132751
-0.000653568
-0.0015509
-0.000365511
-0.000112446
-8.46614e-06
-0.000117469
-3.61377e-05
-0.000355199
-8.12008e-05
-0.000591152
-0.000143696
-0.000818064
-0.000223612
-0.00102391
-0.000320202
-0.0011966
-0.000432942
-0.00132362
-0.000561467
-0.0013939
-0.000705477
-0.00139921
-0.000865737
-0.0013357
-0.00104288
-0.00120527
-0.00123615
-0.00101155
-0.00144457
-0.000763009
-0.00166901
-0.000481426
-0.000191179
-8.9564e-06
-0.000120946
-3.82214e-05
-0.000366444
-8.6609e-05
-0.000613161
-0.000155233
-0.000851989
-0.000243604
-0.00107055
-0.000350944
-0.00125577
-0.000476652
-0.00139358
-0.000619974
-0.00147215
-0.000780426
-0.00148352
-0.000957644
-0.00142455
-0.00115046
-0.00129858
-0.00135743
-0.0011113
-0.00157759
-0.000870787
-0.00181394
-0.000590748
-0.000268019
-9.34877e-06
-0.000124801
-4.02665e-05
-0.00037898
-9.23013e-05
-0.000637736
-0.000167301
-0.000890886
-0.000265001
-0.00112424
-0.000384601
-0.00132415
-0.000525061
-0.00147427
-0.000685158
-0.00156181
-0.000863643
-0.00157911
-0.00105898
-0.00152354
-0.00126854
-0.00139944
-0.00149031
-0.00121555
-0.00172546
-0.000980765
-0.00198013
-0.000703811
-0.000363463
-9.28239e-06
-0.000128924
-4.05148e-05
-0.000392683
-9.59137e-05
-0.000665179
-0.000178479
-0.000934487
-0.000287128
-0.00118471
-0.000420756
-0.00140197
-0.000578074
-0.00156609
-0.000757251
-0.00166317
-0.000955781
-0.00168618
-0.00117052
-0.00163224
-0.00139711
-0.00150679
-0.00163385
-0.00132313
-0.00188411
-0.00109109
-0.00215716
-0.000820025
-0.000467052
-8.68435e-06
-0.000133143
-3.91657e-05
-0.000405937
-9.78885e-05
-0.000695369
-0.000188821
-0.00098366
-0.000309323
-0.00125222
-0.000459039
-0.00148957
-0.000635704
-0.0016689
-0.000836602
-0.00177653
-0.00105774
-0.00180542
-0.00129356
-0.0017511
-0.00153765
-0.00161915
-0.00178824
-0.00143336
-0.0020496
-0.0011909
-0.00232895
-0.00090728
-0.000564404
-8.87521e-06
-0.000138144
-3.73331e-05
-0.000419553
-9.67759e-05
-0.000745331
-0.000197315
-0.00106184
-0.000331428
-0.00132952
-0.000499101
-0.00158852
-0.000698202
-0.0017847
-0.000924102
-0.00190252
-0.00117135
-0.00193787
-0.00143046
-0.00188018
-0.00169054
-0.00172649
-0.00195478
-0.0015454
-0.00222967
-0.00127138
-0.00249351
-0.000887518
-0.000496502
-1.20711e-05
-0.000144906
-4.64111e-05
-0.000466965
-0.000102681
-0.000964419
-0.000205387
-0.00120492
-0.000350735
-0.00144556
-0.000539575
-0.00171213
-0.000766074
-0.00193033
-0.00102118
-0.00204722
-0.00130032
-0.00209271
-0.00158784
-0.00204008
-0.00186023
-0.00177492
-0.00213115
-0.00138481
-0.00239134
-0.00119474
-0.00247786
-0.00029469
0.00074755
-1.54843e-05
-0.000199285
-5.924e-05
-0.000753114
-0.000108063
-0.00149523
-0.000192475
-0.00185262
-0.000344043
-0.00212427
-0.000581685
-0.00203754
-0.000845271
-0.00233356
-0.00113347
-0.00233014
-0.00147786
-0.0023524
-0.00189766
-0.00230164
-0.00229697
-0.00183068
-0.00253467
-0.00100067
-0.00268909
-0.000950606
-0.00256015
0.00105057
0.00332774
-2.01119e-05
-0.000345332
-7.29214e-05
-0.00118633
-0.000123041
-0.00205786
-0.000208789
-0.00273372
-0.000362459
-0.00314142
-0.000657314
-0.00300177
-0.00100303
-0.00320413
-0.00132226
-0.00313141
-0.00174699
-0.00304532
-0.00233189
-0.00277316
-0.00288241
-0.00202959
-0.00313472
-0.000800147
-0.00347399
-2.06446e-05
-0.00370888
0.00217395
0.00524145
-4.0774e-05
-0.00048024
-0.000112242
-0.00150658
-0.000166268
-0.00249583
-0.000258859
-0.00331326
-0.000484192
-0.00385765
-0.000937651
-0.00402099
-0.00145155
-0.00408984
-0.00196981
-0.00405815
-0.00247166
-0.00384455
-0.00303745
-0.00332218
-0.00370522
-0.00235714
-0.00433632
-0.000935771
-0.00487721
0.000754678
-0.00531346
0.00256705
0.00572707
-4.00642e-05
-0.0005481
-0.000135701
-0.00170269
-0.000243278
-0.00280874
-0.00042502
-0.00369282
-0.000747483
-0.00429894
-0.00123205
-0.0045402
-0.0017972
-0.00466102
-0.00240698
-0.00464438
-0.00304297
-0.00435485
-0.00371943
-0.00379163
-0.00448704
-0.00275434
-0.00531882
-0.00131335
-0.00607048
0.000508989
-0.00677779
0.00252786
0.00557526
-3.60792e-05
-0.000601271
-0.000154493
-0.00181974
-0.000333062
-0.00298118
-0.000604698
-0.00392344
-0.00100434
-0.00457976
-0.0015308
-0.00493695
-0.00215157
-0.0051062
-0.00284343
-0.00511229
-0.00358857
-0.00480842
-0.004384
-0.0042415
-0.00527149
-0.00320292
-0.00624847
-0.00177553
-0.00718123
3.38443e-05
-0.00813631
0.00221448
0.00515848
-4.06302e-05
-0.000648713
-0.000183313
-0.00193238
-0.000420686
-0.0031572
-0.000772389
-0.00415873
-0.00124526
-0.00489215
-0.00182884
-0.00532886
-0.00250682
-0.00554257
-0.00327858
-0.00554472
-0.00413343
-0.00526763
-0.00504765
-0.00470953
-0.0060512
-0.00369636
-0.0071671
-0.00228513
-0.0082691
-0.000497194
-0.00941954
0.00176095
0.00464064
-4.83454e-05
-0.000693529
-0.00021926
-0.00205568
-0.00051011
-0.0033671
-0.000932485
-0.00445004
-0.00148205
-0.00525559
-0.00214002
-0.00576236
-0.00288116
-0.00602871
-0.00372453
-0.00603614
-0.00468353
-0.00576519
-0.00571546
-0.00521288
-0.00683889
-0.00423628
-0.00807302
-0.0028278
-0.00933854
-0.00105143
-0.0106847
0.00122238
0.00403564
-5.59761e-05
-0.000741605
-0.000253857
-0.00220214
-0.000596731
-0.00362383
-0.00109451
-0.00480022
-0.0017266
-0.00567587
-0.00246655
-0.00625257
-0.00328708
-0.00658175
-0.00421048
-0.00660935
-0.00526641
-0.00631538
-0.00640793
-0.00574868
-0.00765197
-0.00481933
-0.00903577
-0.00343052
-0.0104477
-0.00165201
-0.0119379
0.000626722
0.00335478
-6.2667e-05
-0.000798708
-0.000288701
-0.00238333
-0.000689238
-0.00392554
-0.00126637
-0.00520049
-0.00198345
-0.00616231
-0.00281337
-0.00680025
-0.00372686
-0.0072107
-0.00474381
-0.00724772
-0.00590249
-0.00691406
-0.00713714
-0.00630789
-0.00847175
-0.00541832
-0.00996983
-0.00404663
-0.0115196
-0.00224483
-0.013152
2.20126e-05
0.00266942
-6.84279e-05
-0.000867681
-0.000324617
-0.00260031
-0.000790718
-0.00427062
-0.00145467
-0.00566028
-0.00225937
-0.0067206
-0.00317772
-0.00741014
-0.0042
-0.00790944
-0.00533826
-0.00793764
-0.00660823
-0.00755365
-0.00792123
-0.00688206
-0.00932582
-0.0060011
-0.010914
-0.00459675
-0.0125793
-0.00269753
-0.0143336
-0.000531412
0.00206225
-7.47745e-05
-0.000950975
-0.000364186
-0.00285673
-0.000902062
-0.00466887
-0.00166247
-0.00619525
-0.00255926
-0.00736704
-0.00355805
-0.00812381
-0.00470408
-0.00866842
-0.00599936
-0.00866587
-0.00739946
-0.00822434
-0.00878374
-0.00746227
-0.0102441
-0.00653183
-0.0119142
-0.00503752
-0.0136604
-0.00298895
-0.0154916
-0.000965931
0.0016328
-8.1992e-05
-0.00105035
-0.000407841
-0.00315069
-0.00102689
-0.00512274
-0.00189784
-0.00680774
-0.00289496
-0.00810835
-0.00398029
-0.00895409
-0.00526316
-0.00949944
-0.00673008
-0.00944283
-0.00827156
-0.0089134
-0.00973322
-0.00803697
-0.0112569
-0.00699881
-0.0130006
-0.00533697
-0.0147907
-0.00312621
-0.0166483
-0.00120618
0.00148946
-9.09963e-05
-0.00116918
-0.000456031
-0.00349175
-0.00116366
-0.00565593
-0.00215809
-0.0075147
-0.00326789
-0.00895056
-0.00445391
-0.00989819
-0.0058926
-0.0104234
-0.00755595
-0.0102828
-0.00924791
-0.0096035
-0.0107823
-0.00856767
-0.0123789
-0.00740469
-0.0141949
-0.00546311
-0.0160014
-0.00310969
-0.017848
-0.00118153
0.00166865
-0.000102855
-0.00130592
-0.000511291
-0.0038918
-0.00131963
-0.00628353
-0.00245823
-0.00832662
-0.0036985
-0.00990718
-0.0050031
-0.010978
-0.00661831
-0.0114633
-0.00849545
-0.0111967
-0.0103638
-0.0102824
-0.011975
-0.00901592
-0.0136322
-0.0077619
-0.0155306
-0.00551219
-0.0173384
-0.00292267
-0.0191327
-0.00081916
0.00209928
-0.00012073
-0.00145565
-0.000585049
-0.00433786
-0.00150503
-0.00698671
-0.0028051
-0.00922547
-0.00419824
-0.0109921
-0.00564874
-0.0122175
-0.00746804
-0.0126438
-0.00957283
-0.0122047
-0.0116518
-0.0109994
-0.0133465
-0.00932982
-0.0150226
-0.00805158
-0.0170173
-0.00551377
-0.0187954
-0.00248225
-0.020413
0.000129873
0.00294233
-0.000141832
-0.00162315
-0.000675765
-0.00481586
-0.00171989
-0.00774645
-0.00320298
-0.0102055
-0.00478143
-0.0122194
-0.00642283
-0.0136276
-0.00849468
-0.0139699
-0.0108522
-0.0133145
-0.0132243
-0.0117695
-0.0149998
-0.00953968
-0.0165701
-0.00811281
-0.0185938
-0.00518158
-0.0202355
-0.00147622
-0.0214478
0.00224289
0.00493515
-0.000159406
-0.00182791
-0.000761271
-0.00537863
-0.00194665
-0.00861622
-0.00363973
-0.011324
-0.00546416
-0.0136198
-0.00736654
-0.0152316
-0.00972695
-0.0154637
-0.0123638
-0.0145274
-0.0149837
-0.0125089
-0.0168707
-0.00960118
-0.0184227
-0.00778784
-0.0204314
-0.00440321
-0.0217406
0.000321206
-0.0221956
0.00612356
0.00907728
-0.000167533
-0.00210329
-0.000820556
-0.00617536
-0.00217458
-0.0097916
-0.00412389
-0.012684
-0.00627937
-0.0152199
-0.00854212
-0.017058
-0.0112508
-0.0171529
-0.0142418
-0.0158544
-0.0171733
-0.0132046
-0.0192113
-0.00947519
-0.0207155
-0.00696158
-0.0226804
-0.00322465
-0.0234515
0.00319613
-0.0227282
0.0124284
0.0168605
-0.000170161
-0.00247179
-0.000869013
-0.00734068
-0.00244152
-0.0115424
-0.00471642
-0.0143359
-0.00726345
-0.0170814
-0.00997433
-0.0191388
-0.0131435
-0.0190764
-0.0165817
-0.0173573
-0.0198711
-0.013896
-0.0221538
-0.00922729
-0.023598
-0.00547373
-0.0252795
-0.00102824
-0.0254099
0.00858044
-0.0233042
0.0220262
0.030345
-0.000184898
-0.00290483
-0.000974493
-0.0087366
-0.00283726
-0.0135619
-0.00548653
-0.0163761
-0.0084564
-0.0193605
-0.0116868
-0.0215309
-0.0154753
-0.0213274
-0.0195842
-0.0192146
-0.023365
-0.0148035
-0.0259598
-0.0089125
-0.0273898
-0.00327333
-0.0285811
0.00362321
-0.028241
0.0175886
-0.0251997
0.0349518
0.0500077
-0.000268863
-0.00335169
-0.00135396
-0.00997761
-0.003569
-0.0153426
-0.00652921
-0.0189358
-0.00992247
-0.022115
-0.0137242
-0.0242545
-0.0182217
-0.0239881
-0.0231732
-0.0216353
-0.0277012
-0.0161848
-0.0308899
-0.00864578
-0.0328025
-0.000554294
-0.0340842
0.0105158
-0.0335836
0.028973
-0.0301588
0.0501942
0.0741096
-0.00038067
-0.0038185
-0.00181103
-0.0111257
-0.00444226
-0.0171163
-0.00783365
-0.0219566
-0.0117058
-0.0252803
-0.0161115
-0.0273149
-0.0213982
-0.027273
-0.0274284
-0.0248805
-0.0330711
-0.0182345
-0.0373573
-0.00860624
-0.0403267
0.00228614
-0.0424258
0.0175565
-0.0422832
0.0407582
-0.0390836
0.0665729
0.100508
-0.000442949
-0.00434516
-0.00213545
-0.0126576
-0.00533509
-0.0195558
-0.00937562
-0.0253279
-0.0139209
-0.0288145
-0.0189313
-0.0309191
-0.0250733
-0.0320017
-0.0324708
-0.0291271
-0.0397225
-0.0212152
-0.0456485
-0.0093553
-0.0500418
0.00460973
-0.0535308
0.0234949
-0.0545172
0.0518565
-0.0523668
0.0829329
0.127396
-0.000526091
-0.00493418
-0.00252089
-0.0145564
-0.00636252
-0.0225281
-0.0113053
-0.0288417
-0.0166567
-0.0327074
-0.0223637
-0.035515
-0.0294972
-0.0383733
-0.0383148
-0.034426
-0.0474661
-0.0253682
-0.0555642
-0.0114808
-0.061962
0.00543552
-0.0674248
0.0276565
-0.0703456
0.0614238
-0.0701897
0.098119
0.153176
-0.000674692
-0.00556834
-0.00309657
-0.0165465
-0.00755675
-0.025577
-0.0135367
-0.0324786
-0.0198938
-0.0371077
-0.026327
-0.0417425
-0.0345972
-0.0460284
-0.045156
-0.0409235
-0.0564944
-0.0311158
-0.0670227
-0.0152263
-0.0758306
0.00385633
-0.083925
0.0295044
-0.0896737
0.0687493
-0.0925714
0.110982
0.176235
-0.000851761
-0.00623697
-0.00379594
-0.0185081
-0.00893365
-0.0286641
-0.0159446
-0.036605
-0.0235031
-0.0429027
-0.0309121
-0.0508229
-0.0404172
-0.0552263
-0.0530996
-0.0489046
-0.0671538
-0.0394489
-0.0804306
-0.0213596
-0.0918853
-0.000597318
-0.103032
0.0290395
-0.112372
0.0733156
-0.119472
0.120276
0.194424
-0.00103327
-0.00694888
-0.00453201
-0.0204324
-0.0104282
-0.0318514
-0.0185571
-0.0415241
-0.0276412
-0.0524325
-0.036771
-0.063262
-0.0475955
-0.0672236
-0.0622875
-0.0592827
-0.0800575
-0.0514906
-0.0968881
-0.03171
-0.111196
-0.00860747
-0.125417
0.0260071
-0.138496
0.0735944
-0.150628
0.124573
0.205152
-0.00114036
-0.00783417
-0.00511124
-0.0227638
-0.0119271
-0.0358395
-0.0213182
-0.048601
-0.0322964
-0.0661331
-0.0440732
-0.0790496
-0.0564885
-0.0835191
-0.0725396
-0.075369
-0.0942918
-0.0672543
-0.115486
-0.0472325
-0.133756
-0.0214315
-0.151177
0.0190299
-0.167319
0.0663343
-0.184971
0.122569
0.207551
-0.00115465
-0.00911709
-0.0054674
-0.0262938
-0.0133903
-0.0415886
-0.0241036
-0.0595893
-0.0372104
-0.0820245
-0.0522581
-0.0980364
-0.0671264
-0.104842
-0.0845295
-0.0975669
-0.109136
-0.0847875
-0.135474
-0.0673562
-0.159568
-0.0418979
-0.179552
0.00371035
-0.19732
0.0462172
-0.221123
0.113354
0.203101
-0.00113345
-0.0108605
-0.00565719
-0.0314943
-0.0145541
-0.0503544
-0.0265051
-0.0739821
-0.0416863
-0.0991701
-0.0602433
-0.11981
-0.0778598
-0.131566
-0.0967943
-0.129854
-0.124164
-0.102725
-0.156448
-0.0926109
-0.189057
-0.0757156
-0.209588
-0.0312027
-0.227074
0.0176872
-0.258837
0.0984404
0.195752
-0.00119295
-0.0129216
-0.00591366
-0.0380355
-0.01543
-0.0619649
-0.0284957
-0.0893227
-0.0454692
-0.117458
-0.0669655
-0.143903
-0.090165
-0.162092
-0.11155
-0.169178
-0.137546
-0.147825
-0.174999
-0.12375
-0.216743
-0.111837
-0.243598
-0.0792214
-0.263789
-0.0171565
-0.300032
0.0803641
0.188906
-0.00128867
-0.0151359
-0.00628169
-0.0450945
-0.0162508
-0.0740969
-0.0300119
-0.104368
-0.0481624
-0.136384
-0.071541
-0.169039
-0.0973912
-0.194618
-0.12314
-0.215372
-0.151234
-0.209857
-0.188693
-0.185671
-0.235318
-0.143158
-0.277184
-0.145587
-0.308806
-0.0976549
-0.347408
0.0600287
0.237349
-0.00142625
-0.0172472
-0.00677647
-0.0517696
-0.0170686
-0.085647
-0.0310176
-0.119422
-0.0494643
-0.155126
-0.0736831
-0.193318
-0.0998765
-0.225913
-0.126536
-0.262229
-0.158857
-0.270152
-0.201295
-0.265306
-0.259999
-0.235326
-0.335071
-0.261843
-0.376085
-0.260797
-0.459892
-0.154049
-0.0121972
-0.00158626
-0.0191241
-0.00733563
-0.057744
-0.0178441
-0.0958665
-0.0316492
-0.133409
-0.0495719
-0.173311
-0.0728189
-0.215201
-0.0970431
-0.251986
-0.122241
-0.295028
-0.153321
-0.326954
-0.192915
-0.32969
-0.253889
-0.342499
-0.342073
-0.384497
-0.453991
-0.444479
-0.648113
-0.513757
-0.659454
-0.0016413
-0.0209086
-0.00760724
-0.0633103
-0.0184767
-0.104874
-0.0321758
-0.146147
-0.0495503
-0.191534
-0.0719127
-0.236485
-0.0933011
-0.27466
-0.110605
-0.317922
-0.131804
-0.356846
-0.169424
-0.369532
-0.222459
-0.3887
-0.287447
-0.444142
-0.374556
-0.532327
-0.497699
-0.685905
-1.00984
-0.00175
-0.0226647
-0.00805464
-0.0688196
-0.0190532
-0.114719
-0.032508
-0.159964
-0.0497931
-0.211754
-0.0716068
-0.260992
-0.0906166
-0.301124
-0.108035
-0.33947
-0.128966
-0.373209
-0.159704
-0.386366
-0.199457
-0.406868
-0.235847
-0.447172
-0.264385
-0.509333
-0.274154
-0.624072
-0.831081
-0.00180266
-0.0243987
-0.00843282
-0.0743721
-0.0200246
-0.12494
-0.03346
-0.175016
-0.0508595
-0.234135
-0.0737543
-0.287566
-0.092246
-0.332862
-0.108883
-0.366192
-0.134048
-0.392622
-0.163926
-0.396317
-0.192855
-0.407944
-0.214309
-0.423002
-0.215367
-0.440422
-0.17334
-0.456306
-0.467708
-0.00184937
-0.0261091
-0.00870743
-0.0795014
-0.020704
-0.133636
-0.0344975
-0.189439
-0.0524731
-0.256356
-0.0767369
-0.311856
-0.0964462
-0.36018
-0.116087
-0.39451
-0.144723
-0.412729
-0.176597
-0.409235
-0.206341
-0.404585
-0.226551
-0.396072
-0.230196
-0.378116
-0.199332
-0.315297
-0.199125
-0.0018584
-0.0279032
-0.00864198
-0.0845365
-0.0207563
-0.141232
-0.035617
-0.205804
-0.0549824
-0.277405
-0.0811032
-0.333889
-0.105148
-0.381697
-0.131034
-0.418573
-0.165721
-0.432239
-0.20478
-0.42915
-0.241631
-0.414288
-0.269208
-0.390591
-0.289674
-0.348914
-0.298604
-0.255385
-0.108788
-0.00173927
-0.0300152
-0.00817906
-0.0909689
-0.0205292
-0.151761
-0.0373477
-0.224242
-0.0593217
-0.297158
-0.087456
-0.354368
-0.116162
-0.403991
-0.14832
-0.439995
-0.187924
-0.453907
-0.231806
-0.450812
-0.276989
-0.435755
-0.316522
-0.402693
-0.352943
-0.343667
-0.389737
-0.243688
-0.111888
-0.00172592
-0.032284
-0.00829481
-0.0979542
-0.0215481
-0.164407
-0.0405026
-0.241677
-0.0647308
-0.313575
-0.0945897
-0.373534
-0.127827
-0.427842
-0.166076
-0.463106
-0.21066
-0.480661
-0.259939
-0.47556
-0.312178
-0.457441
-0.361781
-0.41738
-0.4085
-0.343286
-0.447925
-0.217082
-0.0637815
-0.00188677
-0.0343006
-0.00873799
-0.103893
-0.0223283
-0.175329
-0.0428364
-0.255352
-0.0691926
-0.327967
-0.101827
-0.393395
-0.139449
-0.455378
-0.183916
-0.493791
-0.235117
-0.515451
-0.290988
-0.504488
-0.35163
-0.48122
-0.413046
-0.427033
-0.467693
-0.335566
-0.492162
-0.124496
0.00485122
-0.00201782
-0.0360556
-0.0090567
-0.109378
-0.0227184
-0.18527
-0.0442171
-0.266392
-0.0725867
-0.343738
-0.107686
-0.414293
-0.149228
-0.482065
-0.20107
-0.533606
-0.261921
-0.567065
-0.325753
-0.537397
-0.403944
-0.536216
-0.49148
-0.477913
-0.567052
-0.341851
-0.750106
-0.523481
-0.802523
-0.00211338
-0.0377166
-0.00946918
-0.114696
-0.0233817
-0.194635
-0.04558
-0.278236
-0.075406
-0.360476
-0.111854
-0.436212
-0.154994
-0.505429
-0.213749
-0.573501
-0.288791
-0.640666
-0.384293
-0.679172
-0.513012
-0.7256
-0.642234
-0.733848
-0.65085
-0.827894
-0.859121
-1.27744
-2.40129
-0.00212992
-0.0392853
-0.00962618
-0.119665
-0.0236154
-0.203497
-0.045939
-0.290661
-0.0768037
-0.378834
-0.115164
-0.461322
-0.159169
-0.538273
-0.216835
-0.615594
-0.299069
-0.723586
-0.414297
-0.885328
-0.57732
-1.01083
-0.843644
-1.29553
-0.604343
-1.73997
-0.302479
-1.59935
-3.40626
-0.00203041
-0.0407863
-0.00941397
-0.124409
-0.0232594
-0.212138
-0.0450839
-0.304107
-0.0765684
-0.40062
-0.116035
-0.490803
-0.155008
-0.581842
-0.195024
-0.673929
-0.259434
-0.798455
-0.316454
-0.98441
-0.351582
-1.12899
-0.275179
-1.52344
0.234738
-2.35464
0.7837
-1.15417
-2.80484
-0.00186749
-0.0422596
-0.00884976
-0.128976
-0.0222325
-0.220624
-0.0434584
-0.31844
-0.0752149
-0.425695
-0.115611
-0.523827
-0.147105
-0.631351
-0.159854
-0.762555
-0.190437
-0.844537
-0.138892
-0.724439
0.0768499
-0.78395
0.411577
-0.849808
1.02397
-1.36979
1.92905
0.369669
0.0722476
-0.00169293
-0.0436152
-0.00812687
-0.133243
-0.0208125
-0.228629
-0.0416466
-0.332326
-0.0738143
-0.450749
-0.115356
-0.559065
-0.143897
-0.690102
-0.152078
-0.900841
-0.0672227
-0.909673
0.0881939
-0.384498
0.350412
0.0484636
0.922332
0.334796
1.51071
1.18722
2.44412
2.53661
4.39681
-0.00152462
-0.0446679
-0.00728348
-0.136658
-0.018977
-0.23521
-0.0397041
-0.343512
-0.0720812
-0.469606
-0.115224
-0.594278
-0.163693
-0.759642
-0.236405
-1.08576
-0.259417
-1.14217
-0.239822
-0.359203
-0.0546566
0.657503
0.454376
1.65415
0.838339
3.43711
1.41553
4.05672
7.39767
-0.00128894
-0.0452677
-0.00613792
-0.138581
-0.0163391
-0.239264
-0.0361577
-0.349663
-0.0667812
-0.476721
-0.110541
-0.626962
-0.211677
-0.836925
-0.424332
-1.23296
-0.640579
-1.32584
-0.790991
-0.434241
-0.937092
0.63937
-0.879339
2.15669
-0.67728
3.89124
-0.604684
4.21583
7.51458
-0.000876044
-0.0453845
-0.00453535
-0.138918
-0.0124903
-0.239678
-0.0281391
-0.349792
-0.0524915
-0.469414
-0.092283
-0.654566
-0.236313
-0.919209
-0.561831
-1.34776
-0.982977
-1.43588
-1.35563
-0.875119
-1.67602
0.424033
-1.95914
1.81319
-1.99945
2.76455
-2.26977
3.42626
5.80552
-0.000197962
-0.045058
-0.00192928
-0.137974
-0.0064655
-0.237167
-0.0132121
-0.345736
-0.0238273
-0.451955
-0.0524812
-0.673915
-0.215127
-1.00304
-0.640027
-1.51401
-1.09123
-1.65809
-1.62557
-1.62982
-2.22209
0.0975741
-2.45388
1.12356
-2.64728
1.45384
-3.34125
2.14878
3.39824
0.000692084
-0.0443271
0.00225445
-0.136032
0.00262422
-0.234952
0.00950713
-0.340845
0.0233268
-0.440634
0.0217306
-0.680933
-0.141658
-1.08921
-0.654243
-1.72906
-1.16881
-1.92639
-1.90414
-2.28336
-2.52834
-0.664838
-2.49886
-0.0165099
-2.86963
0.273114
-3.83681
0.665034
0.813806
0.00179297
-0.0431734
0.00751343
-0.132814
0.0130874
-0.231749
0.0324032
-0.338189
0.079545
-0.443584
0.119395
-0.673093
-0.0466098
-1.16601
-0.567436
-1.97087
-1.06245
-2.22671
-1.51793
-2.44165
-1.83987
-1.32179
-2.05695
-1.02593
-2.7655
-0.87827
-3.82637
-0.829627
-1.66765
0.00302013
-0.0416025
0.0127452
-0.12836
0.0280652
-0.225901
0.0628938
-0.335391
0.140787
-0.447901
0.215885
-0.66524
0.0641038
-1.1835
-0.417811
-2.11458
-0.740204
-2.30404
-0.777116
-1.90951
-0.986652
-1.50574
-1.49332
-1.69295
-2.35283
-1.94569
-3.44857
-2.31767
-4.26013
0.00439865
-0.0395823
0.018419
-0.122715
0.0419483
-0.218775
0.0910953
-0.330815
0.186512
-0.44443
0.294677
-0.65359
0.241708
-1.11012
0.110945
-1.88454
0.147841
-1.6569
0.110624
-1.30671
-0.171075
-1.51496
-0.705941
-2.10961
-1.60869
-2.89038
-2.70919
-3.88256
-7.53211
0.00620038
-0.0369652
0.026167
-0.115072
0.0595822
-0.208741
0.123772
-0.324277
0.237411
-0.430769
0.397157
-0.609073
0.518293
-0.919357
0.668973
-1.09577
0.858321
-0.779018
0.880328
-0.847223
0.745396
-1.28924
0.366676
-2.19284
-0.376353
-3.50853
-1.27177
-5.35957
-11.2086
0.00851424
-0.0335653
0.0360494
-0.104628
0.0817579
-0.193032
0.161981
-0.309426
0.294778
-0.401572
0.508529
-0.521231
0.824325
-0.47193
1.14127
-0.275853
1.39658
-0.189431
1.61608
-0.299097
1.7659
-0.770753
1.78228
-1.74695
1.61103
-3.30162
1.64613
-5.71274
-12.3317
0.0114055
-0.0291389
0.0482575
-0.0906822
0.109951
-0.169299
0.207634
-0.276922
0.364873
-0.352259
0.697469
-0.254993
1.13355
0.0366761
1.48991
0.241751
1.8608
0.386255
2.28697
0.370921
2.78586
0.0807256
3.38431
-0.636646
4.18643
-1.9023
5.64863
-3.74127
-8.92964
0.0151072
-0.023266
0.063817
-0.0718263
0.144764
-0.133921
0.273429
-0.21238
0.546774
-0.161302
0.946641
0.0958807
1.32769
0.384209
1.7369
0.675462
2.21558
0.949991
2.82158
1.15267
3.61788
1.24001
4.6749
1.09114
6.24044
0.556812
8.56688
-0.203727
-3.12591
0.0197026
-0.015298
0.0850169
-0.0448271
0.197019
-0.0759293
0.39564
-0.0912141
0.687969
0.0963242
1.01527
0.349048
1.3876
0.665325
1.83575
1.03796
2.39637
1.47533
3.1347
1.97567
4.13231
2.5755
5.4626
3.22934
7.32685
3.82777
10.052
4.12048
3.49349
0.0229187
-0.00530704
0.0999346
-0.0102878
0.234534
-0.000634166
0.43791
0.0598877
0.691315
0.271008
0.980856
0.543626
1.33779
0.886885
1.78804
1.329
2.3688
1.90562
3.14556
2.67111
4.19487
3.72475
5.6153
5.17364
7.59031
7.05112
10.5368
9.23435
11.2452
0.0232822
0.00575759
0.1008
0.0271584
0.232263
0.075789
0.412817
0.189933
0.628835
0.407471
0.889727
0.690963
1.21575
1.06278
1.62805
1.55643
2.1581
2.22435
2.85559
3.15575
3.77808
4.48361
4.9945
6.43791
6.61131
9.17447
9.05845
12.9751
17.2506
0.0224305
0.0168708
0.0954071
0.0638081
0.212878
0.145689
0.367707
0.291484
0.555008
0.516521
0.785629
0.817049
1.07223
1.21539
1.42845
1.74743
1.87461
2.475
2.43978
3.50432
3.15463
4.9861
4.04372
7.1734
5.1606
10.2834
6.62859
14.7
20.3114
0.0201688
0.0274776
0.0850279
0.0978183
0.186449
0.20558
0.31816
0.372516
0.478998
0.610334
0.676897
0.92736
0.91916
1.34775
1.21176
1.90797
1.5615
2.67513
1.97518
3.76569
2.44864
5.33924
2.96981
7.65056
3.5539
10.9805
4.42956
15.8033
22.513
0.01731
0.0375533
0.0726633
0.129313
0.158145
0.258533
0.268316
0.442692
0.402557
0.692811
0.566024
1.02356
0.76109
1.46044
0.984337
2.03863
1.22653
2.82623
1.47258
3.94678
1.67741
5.56306
1.74823
7.91531
1.5894
11.2862
1.68607
16.2157
24.1048
0.0143095
0.0471978
0.0598699
0.158845
0.129613
0.306926
0.218724
0.506081
0.326022
0.767288
0.453976
1.10862
0.60044
1.55659
0.750424
2.14287
0.87438
2.93034
0.932317
4.04409
0.83231
5.6413
0.377812
7.90649
-0.718608
11.0069
-1.68959
15.484
23.1586
0.0113346
0.0564067
0.0471127
0.186539
0.101168
0.351419
0.169089
0.56412
0.248663
0.835696
0.340239
1.18507
0.437805
1.63976
0.512635
2.22736
0.51025
2.99583
0.367816
4.06292
-0.0408168
5.57134
-1.02833
7.61357
-3.21669
10.1325
-6.42699
13.5955
19.3751
0.0123934
0.0887963
0.0452346
0.282345
0.0776834
0.493917
0.087692
0.726792
0.0570856
0.983152
-0.0342871
1.27383
-0.264808
1.62669
-1.00041
2.08073
-2.95573
2.68361
-6.79029
3.44826
-13.239
4.12738
-24.9416
4.6378
-42.6545
4.37915
-62.7216
2.78982
0.11537
-101.457
-0.0619717
0.0816106
-0.30751
0.254757
-0.76887
0.42954
-1.44817
0.601026
-2.32208
0.763435
-3.32968
0.91829
-4.37599
1.08136
-5.53148
1.29461
-8.35929
1.64513
-14.2049
2.15124
-22.4642
2.52807
-34.6062
2.77206
-49.3383
0.500073
-61.3767
-3.37995
-9.655
-68.1397
-0.0713891
0.0490118
-0.314387
0.149236
-0.733606
0.244557
-1.34369
0.328613
-2.15335
0.395484
-3.18021
0.442007
-4.47016
0.468304
-6.14125
0.483327
-8.53131
0.523104
-12.5349
0.637007
-20.1104
0.807784
-33.506
0.946886
-48.3282
-1.2619
-57.8674
-5.30389
-11.6147
-60.3493
-0.0580889
0.0234493
-0.250294
0.0689595
-0.573165
0.106408
-1.03873
0.12872
-1.66008
0.128581
-2.462
0.0988423
-3.4901
0.0315054
-4.84128
-0.083356
-6.75949
-0.259654
-9.73984
-0.523817
-14.3741
-0.95147
-21.7469
-1.70918
-35.5899
-3.09391
-45.4078
-6.65642
-11.2996
-41.4404
-0.0381888
0.00679002
-0.163187
0.0172941
-0.369593
0.0177989
-0.661811
0.00109365
-1.04492
-0.0409573
-1.52935
-0.117776
-2.1356
-0.242052
-2.90242
-0.431533
-3.9076
-0.714818
-5.31122
-1.15037
-7.37103
-1.87287
-10.3974
-3.13233
-14.3781
-5.01586
-16.9608
-7.76234
-10.9402
-15.9552
-0.013793
-0.00121909
-0.0587739
-0.00726401
-0.132125
-0.0232966
-0.233476
-0.0562524
-0.361379
-0.114654
-0.514234
-0.209186
-0.69176
-0.35438
-0.894414
-0.567932
-1.12249
-0.880782
-1.3693
-1.35734
-1.62311
-2.1562
-1.9589
-3.67299
-2.34035
-5.83683
-2.42352
-8.1409
-10.6052
-1.997
0.00905702
0.000727555
0.0399044
-0.000123946
0.0967477
-0.00601794
0.192045
-0.0207106
0.345958
-0.0504395
0.586826
-0.105879
0.937696
-0.20314
1.41811
-0.349879
2.07217
-0.5567
2.99139
-0.868432
4.31981
-1.44568
5.82473
-2.92669
6.87135
-5.06037
7.26212
-7.2622
-9.49475
6.97262
0.0158515
0.00525674
0.070684
0.0158264
0.172096
0.0283747
0.342347
0.0443816
0.617192
0.0642139
1.05201
0.0855292
1.69327
0.103155
2.56247
0.121383
3.70675
0.143321
5.22176
0.10486
7.0235
-0.228014
8.63124
-1.36993
9.00296
-2.93731
7.58547
-4.40459
-5.83612
3.9735
-0.000103969
0.00581507
0.00228121
0.0188474
0.0106069
0.0366681
0.0320227
0.0626841
0.0779594
0.101063
0.172725
0.157728
0.357755
0.240691
0.703314
0.361575
1.34643
0.531833
2.07503
0.755543
1.77311
0.829391
-0.328477
0.627153
-3.82779
0.234268
-8.01023
0.0680057
0.0198873
-14.5528
-0.015952
0.00201106
-0.0670119
0.00728493
-0.153641
0.0151215
-0.279713
0.0270546
-0.452863
0.0455084
-0.676239
0.0743548
-0.945172
0.11838
-1.21091
0.185731
-1.46974
0.295474
-1.90625
0.534755
-3.14312
1.12396
-4.90002
1.70185
-7.10739
2.1954
-9.78455
2.74815
3.49549
-13.6528
-0.021561
-0.00558242
-0.0904672
-0.0166838
-0.205444
-0.0291901
-0.372171
-0.0441912
-0.599326
-0.0592592
-0.894923
-0.074439
-1.26478
-0.092125
-1.70077
-0.108407
-2.13057
-0.0957952
-2.01172
0.0169064
-1.49649
0.469305
-1.3355
0.935843
-1.41005
1.37378
-1.61162
1.82918
2.40989
-1.66673
-0.0155089
-0.00985702
-0.0625317
-0.0300631
-0.139215
-0.0521533
-0.261438
-0.0755269
-0.440015
-0.100577
-0.65306
-0.129335
-0.883527
-0.163213
-1.04066
-0.196573
-0.84502
-0.208708
-0.339034
-0.156888
0.243378
-0.0757321
0.823165
0.0369172
1.52718
0.148492
2.53378
0.253826
0.369929
4.31716
-0.00315035
-0.00840699
-0.0124837
-0.0254905
-0.0255903
-0.0428723
-0.0407284
-0.0586491
-0.0578429
-0.0750816
-0.0700412
-0.0933358
-0.0661518
-0.112124
-0.021568
-0.128343
0.0897624
-0.140688
0.281642
-0.147758
0.586605
-0.151648
1.05163
-0.160166
1.81619
-0.184449
2.97234
-0.236013
-0.320675
4.71437
0.00078929
-0.00578678
0.00335469
-0.0174053
0.00719999
-0.0288557
0.0122922
-0.0399376
0.0194105
-0.050563
0.0299617
-0.0606474
0.0440316
-0.0698694
0.0611162
-0.0779779
0.0844087
-0.0850717
0.125142
-0.0923905
0.212026
-0.103379
0.368406
-0.123515
0.638294
-0.159384
1.02664
-0.220968
-0.31682
1.58104
0.000228195
-0.00473514
0.000963616
-0.0142965
0.00208393
-0.0237274
0.00330959
-0.032865
0.0045363
-0.0416817
0.00589101
-0.0500922
0.00703723
-0.0580079
0.00710287
-0.0654456
0.00487644
-0.0726927
-0.00110156
-0.0803133
-0.0115097
-0.0890976
-0.0258446
-0.100436
-0.0375678
-0.117985
-0.0410955
-0.149215
-0.20171
-0.0152787
-0.000304992
-0.00418592
-0.00122073
-0.0127222
-0.00258345
-0.0212982
-0.00453429
-0.0297515
-0.00733983
-0.0380691
-0.011064