/*--------------------------------*- C++ -*----------------------------------*\
  =========                 |
  \\      /  F ield         | OpenFOAM: The Open Source CFD Toolbox
   \\    /   O peration     | Website:  https://openfoam.org
    \\  /    A nd           | Version:  7
     \\/     M anipulation  |
\*---------------------------------------------------------------------------*/
FoamFile
{
    version     2.0;
    format      ascii;
    class       volVectorField;
    location    "200";
    object      U;
}
// * * * * * * * * * * * * * * * * * * * * * * * * * * * * * * * * * * * * * //

dimensions      [0 1 -1 0 0 0 0];

internalField   nonuniform List<vector> 
32100
(
(-25.5862 -8.73741e-10 -1041.07)
(-63.7622 -2.48731e-09 -1042.33)
(-102.318 -4.12082e-09 -1031.72)
(-143.739 -5.75991e-09 -1004.26)
(-181.265 -7.40162e-09 -962.407)
(-216.898 -9.04568e-09 -905.367)
(-249.696 -1.06918e-08 -832.808)
(-278.27 -1.23401e-08 -745.484)
(-302.582 -1.39907e-08 -644.624)
(-322.945 -1.56431e-08 -530.013)
(-339.588 -1.72964e-08 -398.847)
(-349.316 -1.89497e-08 -243.788)
(-342.53 -2.06019e-08 -45.2569)
(-283.059 -2.22518e-08 248.312)
(-155.249 -2.38998e-08 801.129)
(-24.8005 -8.74286e-10 -890.198)
(-66.1574 -2.48657e-09 -892.92)
(-107.128 -4.12004e-09 -882.075)
(-148.472 -5.75883e-09 -860.349)
(-187.309 -7.40028e-09 -826.328)
(-224.161 -9.04401e-09 -779.469)
(-258.626 -1.069e-08 -719.669)
(-290.148 -1.23382e-08 -647.309)
(-318.997 -1.39887e-08 -562.557)
(-345.853 -1.5641e-08 -465.418)
(-371.606 -1.72944e-08 -354.468)
(-397.278 -1.8948e-08 -226.845)
(-425.288 -2.06003e-08 -74.3052)
(-474.316 -2.22503e-08 119.499)
(-579.137 -2.38984e-08 311.826)
(-25.7295 -8.73317e-10 -903.764)
(-69.9049 -2.4852e-09 -906.539)
(-113.326 -4.11855e-09 -897.261)
(-156.153 -5.75677e-09 -876.62)
(-197.227 -7.39763e-09 -843.756)
(-236.513 -9.04078e-09 -797.893)
(-273.926 -1.06862e-08 -738.737)
(-309.439 -1.23341e-08 -666.49)
(-343.368 -1.39844e-08 -581.535)
(-376.457 -1.56366e-08 -484.249)
(-410.153 -1.729e-08 -374.808)
(-446.204 -1.89437e-08 -252.328)
(-490.236 -2.05964e-08 -115.965)
(-553.367 -2.22464e-08 25.0163)
(-633.837 -2.38942e-08 115.549)
(-27.4178 -8.72944e-10 -914.385)
(-74.5286 -2.48374e-09 -917.691)
(-121.035 -4.11638e-09 -910.019)
(-166.756 -5.75388e-09 -891.513)
(-211.07 -7.3939e-09 -860.448)
(-253.919 -9.03614e-09 -815.999)
(-295.313 -1.06808e-08 -757.753)
(-335.415 -1.2328e-08 -685.875)
(-374.588 -1.39778e-08 -601.015)
(-413.534 -1.56299e-08 -504.301)
(-452.898 -1.72834e-08 -396.669)
(-496.031 -1.89375e-08 -280.276)
(-545.014 -2.05905e-08 -157.915)
(-603.111 -2.22405e-08 -43.6142)
(-667.036 -2.38877e-08 25.3935)
(-29.3294 -8.71954e-10 -932.028)
(-79.8992 -2.48191e-09 -936.743)
(-129.9 -4.11365e-09 -931.277)
(-179.407 -5.75011e-09 -914.909)
(-228.043 -7.38924e-09 -885.753)
(-275.511 -9.03039e-09 -842.586)
(-321.817 -1.06739e-08 -784.854)
(-367.119 -1.23202e-08 -712.793)
(-411.669 -1.39694e-08 -627.403)
(-455.833 -1.56214e-08 -530.089)
(-500.85 -1.72752e-08 -423.977)
(-548.352 -1.89298e-08 -311.887)
(-597.995 -2.05833e-08 -197.178)
(-650.062 -2.22335e-08 -92.7711)
(-703.785 -2.388e-08 -19.4617)
(-31.3864 -8.70904e-10 -954.813)
(-85.5789 -2.47961e-09 -960.965)
(-140.095 -4.11018e-09 -957.746)
(-193.627 -5.74604e-09 -945.189)
(-247.491 -7.38393e-09 -918.338)
(-300.605 -9.02364e-09 -876.491)
(-352.756 -1.06658e-08 -819.016)
(-403.979 -1.2311e-08 -746.258)
(-454.394 -1.39596e-08 -659.581)
(-504.049 -1.56112e-08 -561.516)
(-554.322 -1.72656e-08 -455.702)
(-604.543 -1.8921e-08 -345.213)
(-654.485 -2.05752e-08 -233.935)
(-703.527 -2.22257e-08 -130.471)
(-753.32 -2.38715e-08 -44.4804)
(-33.176 -8.70597e-10 -982.339)
(-90.5811 -2.47865e-09 -991.533)
(-148.092 -4.10743e-09 -991.964)
(-208.02 -5.74126e-09 -982.026)
(-268.616 -7.37811e-09 -957.785)
(-328.551 -9.01616e-09 -917.408)
(-387.59 -1.06567e-08 -860.02)
(-445.584 -1.23005e-08 -786.178)
(-502.255 -1.39479e-08 -697.714)
(-558.028 -1.55996e-08 -597.786)
(-612.685 -1.72545e-08 -490.768)
(-665.698 -1.89113e-08 -380.056)
(-716.81 -2.05668e-08 -269.369)
(-766.196 -2.22181e-08 -163.569)
(-817.127 -2.38631e-08 -64.2331)
(-34.4431 -8.67285e-10 -1012.16)
(-94.8599 -2.47136e-09 -1022.78)
(-156.697 -4.10321e-09 -1030.33)
(-222.957 -5.73747e-09 -1025.11)
(-290.843 -7.37221e-09 -1003.79)
(-358.873 -9.00816e-09 -965.196)
(-426.017 -1.06468e-08 -907.763)
(-491.82 -1.22889e-08 -832.284)
(-555.702 -1.39349e-08 -741.368)
(-617.642 -1.5586e-08 -638.631)
(-676.931 -1.72421e-08 -528.973)
(-732.614 -1.89007e-08 -416.732)
(-785.177 -2.05579e-08 -305.029)
(-836.808 -2.22114e-08 -197.242)
(-891.566 -2.38562e-08 -88.1749)
(-34.4404 -8.68835e-10 -1045.91)
(-93.7832 -2.46773e-09 -1060.44)
(-159.657 -4.09905e-09 -1073.02)
(-235.245 -5.73299e-09 -1073.66)
(-313.117 -7.3664e-09 -1056.16)
(-390.99 -8.99974e-09 -1019.92)
(-467.778 -1.06361e-08 -962.377)
(-542.79 -1.22762e-08 -884.748)
(-614.985 -1.39206e-08 -790.444)
(-683.537 -1.55703e-08 -683.701)
(-747.364 -1.72272e-08 -569.971)
(-804.984 -1.88886e-08 -454.803)
(-858.945 -2.05487e-08 -341.914)
(-912.132 -2.22045e-08 -232.624)
(-970.746 -2.38484e-08 -118.507)
(-32.1495 -8.48058e-10 -1080.15)
(-87.8611 -2.44464e-09 -1098.11)
(-157.7 -4.09629e-09 -1120.85)
(-245.975 -5.73138e-09 -1127.83)
(-334.42 -7.36148e-09 -1114.59)
(-424.317 -8.99099e-09 -1081.86)
(-512.718 -1.06247e-08 -1024.24)
(-598.68 -1.22626e-08 -943.72)
(-680.458 -1.39044e-08 -845.224)
(-756.59 -1.55523e-08 -732.974)
(-824.68 -1.7209e-08 -613.274)
(-883.761 -1.88721e-08 -493.868)
(-937.324 -2.05352e-08 -377.802)
(-989.243 -2.2196e-08 -268.222)
(-1043.48 -2.38391e-08 -147.08)
(-35.3805 -7.90075e-10 -1115.48)
(-85.5848 -2.36144e-09 -1133.3)
(-148.119 -4.08556e-09 -1172.59)
(-251.921 -5.72909e-09 -1189.5)
(-355.038 -7.35675e-09 -1179.86)
(-458.149 -8.98205e-09 -1151.24)
(-560.848 -1.0614e-08 -1092.79)
(-659.927 -1.22486e-08 -1009.37)
(-753.056 -1.38859e-08 -906.113)
(-838.357 -1.55304e-08 -786.863)
(-910.211 -1.71844e-08 -658.201)
(-967.993 -1.88541e-08 -533.839)
(-1022.63 -2.05048e-08 -407.75)
(-1073.11 -2.21589e-08 -285.917)
(-1102.9 -2.37988e-08 -173.867)
(-43.5237 -7.17179e-10 -1162.63)
(-124.065 -2.04025e-09 -1172.95)
(-162.934 -3.83745e-09 -1285.63)
(-260.807 -5.68184e-09 -1312.01)
(-371.106 -7.34856e-09 -1256.23)
(-489.775 -8.96954e-09 -1230.21)
(-612.176 -1.06001e-08 -1171.13)
(-727.428 -1.22323e-08 -1082.23)
(-834.067 -1.38609e-08 -973.712)
(-932.641 -1.5488e-08 -845.015)
(-1008.23 -1.7122e-08 -697.569)
(-1058.3 -1.88304e-08 -574.199)
(-1111.84 -2.04537e-08 -430.893)
(-1135.47 -2.2075e-08 -256.152)
(-1025.22 -2.37081e-08 -108.468)
(-44.7695 -7.16746e-10 -1226.99)
(-177.58 -2.0597e-09 -1393.92)
(-184.906 -3.75958e-09 -1895.17)
(-259.404 -5.62545e-09 -1526.57)
(-331.45 -7.31248e-09 -1392.49)
(-515.284 -8.93863e-09 -1336.55)
(-673.401 -1.05585e-08 -1277.52)
(-804.793 -1.2201e-08 -1168.46)
(-928.519 -1.38107e-08 -1056.31)
(-1080.14 -1.52877e-08 -925.644)
(-1240.61 -1.65391e-08 -696.229)
(-1311.23 -1.81473e-08 -418.697)
(-1268.34 -2.0188e-08 -357.192)
(-1258.32 -2.15344e-08 76.1643)
(-972.06 -2.31237e-08 533.56)
(-58.6899 -7.23109e-10 -2059.38)
(-229.749 -2.09461e-09 -2745.89)
(-214.221 -3.61911e-09 -3036.33)
(-291.217 -5.20746e-09 -2837.86)
(-348.846 -6.81644e-09 -2499.82)
(-543.236 -8.7034e-09 -1718.05)
(-802.251 -1.01648e-08 -1682.65)
(-951.675 -1.19316e-08 -1393.26)
(-1069.78 -1.3575e-08 -1225.62)
(-1305.74 -1.48473e-08 -1072.03)
(-1546.78 -1.57035e-08 -741.357)
(-1655.75 -1.71836e-08 -298.776)
(-1533.53 -1.98026e-08 -269.856)
(-1733.36 -2.0415e-08 565.49)
(-1499.95 -2.1917e-08 1358.75)
(-172.666 -7.16625e-10 -3635.42)
(-376.316 -2.06262e-09 -3775.26)
(-302.518 -3.50145e-09 -3750.8)
(-378.896 -4.94826e-09 -3602.31)
(-413.072 -6.43714e-09 -3256.22)
(-782.32 -7.94882e-09 -2782.08)
(-1136.57 -9.45939e-09 -2381.86)
(-1402.85 -1.09312e-08 -2049.36)
(-1609.22 -1.23334e-08 -1728.48)
(-1748.06 -1.39173e-08 -1334.89)
(-1965.95 -1.50775e-08 -852.428)
(-2151.48 -1.64048e-08 -274.921)
(-2264.25 -1.80372e-08 256.239)
(-2319.3 -1.96884e-08 762.29)
(-2316.8 -2.11312e-08 1621.78)
(-155.81 -7.09062e-10 -4284.11)
(-392.849 -2.02477e-09 -4506.28)
(-440.284 -3.38428e-09 -4480.83)
(-557.028 -4.761e-09 -4203.15)
(-749.089 -6.15825e-09 -3812.18)
(-1088.54 -7.64178e-09 -3246.03)
(-1429.36 -9.06294e-09 -2806.18)
(-1713.67 -1.04694e-08 -2412.1)
(-1966.91 -1.18678e-08 -2000.91)
(-2166.92 -1.33983e-08 -1548.55)
(-2380.07 -1.47624e-08 -998.57)
(-2606.17 -1.61242e-08 -396.018)
(-2810.96 -1.75408e-08 241.57)
(-2894.2 -1.91643e-08 805.582)
(-3021.11 -2.05675e-08 1634.9)
(-122.338 -7.25641e-10 -4754.49)
(-383.731 -2.01867e-09 -4853.29)
(-577.48 -3.35488e-09 -4782.83)
(-790.996 -4.70636e-09 -4496.49)
(-1067.42 -6.09662e-09 -4064.81)
(-1397.4 -7.5106e-09 -3560.47)
(-1728.44 -8.90341e-09 -3106.41)
(-2033.48 -1.02476e-08 -2693.86)
(-2314.1 -1.16598e-08 -2223.5)
(-2561.13 -1.31343e-08 -1742.34)
(-2798.05 -1.45648e-08 -1164.35)
(-3059.86 -1.59081e-08 -545.642)
(-3304.16 -1.73004e-08 94.1745)
(-3445.46 -1.88346e-08 738.359)
(-3656.2 -2.021e-08 1535.46)
(-136.737 -7.32505e-10 -5160.94)
(-433.857 -2.00544e-09 -5149.68)
(-710.956 -3.32992e-09 -5049.55)
(-1019.81 -4.66704e-09 -4746.45)
(-1353.13 -6.038e-09 -4326.72)
(-1700.87 -7.42837e-09 -3840.82)
(-2031.74 -8.81945e-09 -3370.91)
(-2350.44 -1.01789e-08 -2926.52)
(-2662.22 -1.15553e-08 -2440.89)
(-2953.34 -1.29729e-08 -1939.01)
(-3216.96 -1.44221e-08 -1350.82)
(-3507.24 -1.57694e-08 -727.397)
(-3792.47 -1.71253e-08 -71.8498)
(-3979.95 -1.85963e-08 614.174)
(-4241.98 -1.99535e-08 1397.9)
(-166 -7.33129e-10 -5536.83)
(-510.742 -1.99059e-09 -5472.48)
(-860.196 -3.29425e-09 -5363.39)
(-1238.7 -4.61868e-09 -5050.79)
(-1625.42 -5.97079e-09 -4637.2)
(-2008.27 -7.34496e-09 -4148)
(-2358.39 -8.72807e-09 -3659.95)
(-2677.03 -1.012e-08 -3169.26)
(-3017.17 -1.14749e-08 -2668.95)
(-3345.73 -1.28616e-08 -2148.56)
(-3640.85 -1.42868e-08 -1551.84)
(-3958.49 -1.5621e-08 -911.021)
(-4263.69 -1.69584e-08 -256.115)
(-4514.45 -1.83601e-08 461.362)
(-4811.81 -1.96978e-08 1240.99)
(-194.341 -7.21418e-10 -5899.99)
(-587.792 -1.97263e-09 -5827.42)
(-1000.18 -3.25243e-09 -5741.81)
(-1455.88 -4.55201e-09 -5432.72)
(-1905.72 -5.89411e-09 -4992.65)
(-2326.73 -7.24878e-09 -4490.71)
(-2705.53 -8.61294e-09 -3987.58)
(-3038.59 -9.99775e-09 -3466.78)
(-3398.01 -1.13673e-08 -2923.54)
(-3756.58 -1.2741e-08 -2375.89)
(-4076.3 -1.41389e-08 -1774.8)
(-4426.45 -1.54297e-08 -1116.48)
(-4776.37 -1.67544e-08 -437.44)
(-5044.23 -1.8148e-08 285.23)
(-5375.87 -1.94695e-08 1053.86)
(-217.11 -7.06854e-10 -6329.65)
(-658.819 -1.94584e-09 -6277.56)
(-1149.04 -3.19893e-09 -6210.14)
(-1688.52 -4.47611e-09 -5875.76)
(-2200.57 -5.80125e-09 -5407.29)
(-2660.7 -7.13172e-09 -4882.91)
(-3078.75 -8.46084e-09 -4361.5)
(-3433.32 -9.827e-09 -3799.43)
(-3818.16 -1.12129e-08 -3202.66)
(-4200.18 -1.25867e-08 -2613.6)
(-4523.52 -1.39974e-08 -2009.69)
(-4889.84 -1.53131e-08 -1343.17)
(-5264.14 -1.66191e-08 -652.278)
(-5564.04 -1.79508e-08 97.5518)
(-5915.6 -1.92576e-08 853.822)
(-234.11 -6.95346e-10 -6841.65)
(-724.315 -1.91547e-09 -6823.42)
(-1311.75 -3.14284e-09 -6736.88)
(-1944.39 -4.39643e-09 -6375.68)
(-2522.55 -5.69379e-09 -5883.95)
(-3013.87 -7.00848e-09 -5311.76)
(-3468.38 -8.27055e-09 -4785.42)
(-3870.49 -9.59513e-09 -4168.6)
(-4289.4 -1.10024e-08 -3504.28)
(-4687.12 -1.23858e-08 -2861.24)
(-4994.09 -1.38278e-08 -2245.17)
(-5367.81 -1.51598e-08 -1558.23)
(-5747.36 -1.64429e-08 -828.481)
(-6076.96 -1.77498e-08 -84.1072)
(-6433.73 -1.90407e-08 664.133)
(-253.211 -6.80385e-10 -7467.07)
(-795.846 -1.8786e-09 -7470.3)
(-1491.75 -3.07712e-09 -7348.27)
(-2223.47 -4.30181e-09 -6958.94)
(-2881.44 -5.57074e-09 -6430.25)
(-3388.16 -6.86767e-09 -5797.23)
(-3869.16 -8.06753e-09 -5247.87)
(-4351.27 -9.34978e-09 -4557.91)
(-4819.09 -1.07432e-08 -3823.1)
(-5231.6 -1.21278e-08 -3111.94)
(-5502.6 -1.36113e-08 -2467.34)
(-5879.09 -1.49417e-08 -1737.59)
(-6254.15 -1.62031e-08 -950.896)
(-6586.08 -1.75289e-08 -240.463)
(-6934.95 -1.8802e-08 508.562)
(-277.72 -6.64412e-10 -8215.24)
(-872.553 -1.8396e-09 -8232.94)
(-1693 -3.0089e-09 -8050.37)
(-2536.97 -4.19705e-09 -7635.98)
(-3290.83 -5.42771e-09 -7068.44)
(-3798.95 -6.69048e-09 -6381.66)
(-4319.1 -7.86742e-09 -5748.19)
(-4878.81 -9.09341e-09 -4969.21)
(-5408.59 -1.04549e-08 -4154.88)
(-5825.86 -1.18395e-08 -3364.83)
(-6067.69 -1.33384e-08 -2661.93)
(-6438.62 -1.46707e-08 -1874.26)
(-6800.36 -1.59121e-08 -1020.71)
(-7101.55 -1.72771e-08 -349.498)
(-7428.43 -1.85295e-08 419.926)
(-313.035 -6.44549e-10 -9105.77)
(-960.348 -1.79595e-09 -9086.17)
(-1911.41 -2.94014e-09 -8845.21)
(-2882.8 -4.0898e-09 -8401.85)
(-3744.34 -5.28162e-09 -7788.55)
(-4256.67 -6.51421e-09 -7041.95)
(-4827.03 -7.67924e-09 -6302.04)
(-5471.33 -8.85762e-09 -5412.08)
(-6078.74 -1.01507e-08 -4491.53)
(-6480.59 -1.15423e-08 -3610.74)
(-6693.96 -1.30482e-08 -2834.05)
(-7058.21 -1.43536e-08 -1952.29)
(-7396.16 -1.55925e-08 -1041.44)
(-7642.64 -1.69883e-08 -387.2)
(-7933.74 -1.82188e-08 427.053)
(-366.712 -6.22003e-10 -10174.8)
(-1064.03 -1.74918e-09 -10107.7)
(-2158.25 -2.86086e-09 -9808.92)
(-3279.72 -3.9714e-09 -9301.45)
(-4269.45 -5.12966e-09 -8611.63)
(-4783.64 -6.3452e-09 -7797.02)
(-5419.99 -7.50976e-09 -6920.21)
(-6146.74 -8.6693e-09 -5892.62)
(-6839.68 -9.87107e-09 -4824.3)
(-7234.05 -1.12389e-08 -3825.45)
(-7396.58 -1.27581e-08 -2980.66)
(-7747.14 -1.4014e-08 -1964.7)
(-8066.68 -1.52626e-08 -1009.81)
(-8227.34 -1.66661e-08 -334.444)
(-8469.32 -1.78731e-08 521.818)
(-445.334 -5.98395e-10 -11360.9)
(-1224.12 -1.6978e-09 -11285.2)
(-2461.68 -2.77736e-09 -10915.1)
(-3740.27 -3.85664e-09 -10314.6)
(-4874.32 -4.98282e-09 -9541.37)
(-5400.05 -6.18684e-09 -8660.69)
(-6120.4 -7.34617e-09 -7621.22)
(-6931.17 -8.49648e-09 -6416.91)
(-7701.94 -9.63852e-09 -5150.1)
(-8120.36 -1.09645e-08 -3999.78)
(-8183.92 -1.24988e-08 -3114.56)
(-8503.32 -1.3732e-08 -1987.48)
(-8823.85 -1.4944e-08 -918.074)
(-8837.34 -1.63218e-08 -165.873)
(-8975.18 -1.74988e-08 671.931)
(-526.377 -5.7982e-10 -12644)
(-1432.74 -1.65567e-09 -12559.7)
(-2820.8 -2.70947e-09 -12128.1)
(-4265.6 -3.76245e-09 -11419)
(-5571.38 -4.84387e-09 -10599.6)
(-6128.85 -6.03809e-09 -9655.29)
(-6970.98 -7.1869e-09 -8417.74)
(-7874.36 -8.33182e-09 -7000.74)
(-8713.72 -9.45461e-09 -5519.86)
(-9245.05 -1.06786e-08 -4097.89)
(-9074.89 -1.22624e-08 -3208.14)
(-9329.9 -1.34853e-08 -1965.83)
(-9601.44 -1.46551e-08 -719.297)
(-9410.3 -1.59522e-08 245.196)
(-9302.2 -1.71018e-08 1001.22)
(-595.052 -5.65135e-10 -14123)
(-1604.52 -1.61874e-09 -13912.7)
(-3189.14 -2.65104e-09 -13420.9)
(-4832 -3.68567e-09 -12623.4)
(-6347.68 -4.72875e-09 -11790.2)
(-7024.54 -5.89359e-09 -10774.6)
(-8000.33 -7.02957e-09 -9303.32)
(-8997.63 -8.17268e-09 -7636.98)
(-9899.84 -9.2834e-09 -5897.1)
(-10447.2 -1.0462e-08 -4181.93)
(-10156.2 -1.19929e-08 -3162.64)
(-10304.3 -1.32048e-08 -1749.31)
(-10496.5 -1.43448e-08 -254.461)
(-9924.58 -1.55411e-08 1124.69)
(-9435.82 -1.66584e-08 1805.14)
(-640.51 -5.50113e-10 -16020.6)
(-1661.12 -1.57795e-09 -15653.2)
(-3519.52 -2.59605e-09 -14996.7)
(-5446.06 -3.60761e-09 -14054)
(-7223.28 -4.61763e-09 -13165.5)
(-8148.96 -5.73652e-09 -12060)
(-9273.43 -6.85022e-09 -10312.7)
(-10386.6 -7.99077e-09 -8334.17)
(-11380.3 -9.07592e-09 -6237.06)
(-11938.7 -1.02115e-08 -4151.27)
(-11521.6 -1.16937e-08 -2952.95)
(-11482.2 -1.29309e-08 -1407.75)
(-11607 -1.40333e-08 466.338)
(-10413.8 -1.51116e-08 2615.39)
(-9405.16 -1.61976e-08 3356.62)
(-677.612 -5.33118e-10 -18664.2)
(-1642.09 -1.52509e-09 -18292.2)
(-3867.92 -2.52032e-09 -17297.5)
(-6208.48 -3.52216e-09 -15827.3)
(-8283.02 -4.50713e-09 -14722)
(-9503.36 -5.57379e-09 -13512.7)
(-10840.8 -6.65515e-09 -11446.1)
(-12126.2 -7.76793e-09 -9095.9)
(-13215.7 -8.83102e-09 -6572.04)
(-13764.9 -9.93512e-09 -4072.58)
(-13288.8 -1.13593e-08 -2513.8)
(-12910.8 -1.26685e-08 -904.285)
(-12821.2 -1.37262e-08 1641.92)
(-11032.1 -1.46634e-08 4975.49)
(-9280.56 -1.57134e-08 6231.05)
(-759.177 -5.09423e-10 -22097.5)
(-1746.18 -1.4573e-09 -22058.9)
(-4451.67 -2.38905e-09 -20771)
(-7263.27 -3.42923e-09 -17945.6)
(-9590.8 -4.38738e-09 -16576.3)
(-11120.5 -5.41077e-09 -15179.5)
(-12717.3 -6.45927e-09 -12752.8)
(-14326.5 -7.4868e-09 -9986.39)
(-15603.8 -8.51028e-09 -6907.68)
(-16118.2 -9.62279e-09 -3936.11)
(-15583.7 -1.09883e-08 -1784.58)
(-14820.9 -1.2338e-08 167.047)
(-14265.5 -1.33272e-08 4017.99)
(-12245 -1.41671e-08 8477.41)
(-9712.19 -1.5178e-08 11024.6)
(-1026.32 -4.85918e-10 -25805.3)
(-2668.48 -1.39616e-09 -25965.5)
(-5894.33 -2.27256e-09 -23958.3)
(-8805.89 -3.29828e-09 -20633.6)
(-11236.7 -4.2462e-09 -18898)
(-13066.4 -5.2453e-09 -17098.9)
(-14926.9 -6.27119e-09 -14301.4)
(-16918.7 -7.21944e-09 -11137.8)
(-18498.2 -8.19551e-09 -7452.36)
(-19111.1 -9.29364e-09 -3799.36)
(-18613.8 -1.05848e-08 -785.883)
(-17800.7 -1.18305e-08 2430.75)
(-16882.4 -1.27917e-08 7584.01)
(-14645.5 -1.36344e-08 12870.1)
(-11632.9 -1.46044e-08 17412.2)
(-1393.27 -4.67698e-10 -29466.7)
(-3877.92 -1.35028e-09 -28880.7)
(-7513.84 -2.19905e-09 -26643.9)
(-10761.5 -3.11635e-09 -23975.9)
(-13267.9 -4.08524e-09 -21623.4)
(-15402.4 -5.07885e-09 -19262.5)
(-17456.5 -6.09851e-09 -16128)
(-19944.2 -6.94656e-09 -12647.7)
(-21979.4 -7.87562e-09 -8247.63)
(-22924.4 -8.93671e-09 -3704.62)
(-22705.2 -1.01466e-08 350.61)
(-22067.5 -1.12671e-08 5108.98)
(-21106.4 -1.22198e-08 11527.5)
(-18592.5 -1.3084e-08 17787)
(-15471.8 -1.40106e-08 24730)
(-1679.32 -4.43875e-10 -33503.4)
(-4415.51 -1.27987e-09 -32276.5)
(-9048.35 -2.11115e-09 -29808.1)
(-12897.1 -2.93095e-09 -27750.1)
(-15860.7 -3.90161e-09 -24697.8)
(-18229.2 -4.9084e-09 -21686.9)
(-20373.1 -5.91192e-09 -18468.3)
(-23455 -6.67338e-09 -14705.5)
(-26182.6 -7.56802e-09 -9440.7)
(-27760.8 -8.55869e-09 -3765.04)
(-28004.7 -9.6853e-09 1444.64)
(-27559.4 -1.07411e-08 7478.82)
(-26923.3 -1.16627e-08 15357.9)
(-24269.5 -1.25311e-08 22873.7)
(-21387.7 -1.34126e-08 32423.6)
(-2026.27 -4.18436e-10 -38151.6)
(-5191.43 -1.20592e-09 -37301.4)
(-10706.8 -1.96746e-09 -34689.8)
(-15475.2 -2.74408e-09 -31918.1)
(-19208.4 -3.67819e-09 -28099.2)
(-21564.9 -4.7158e-09 -24665.8)
(-24034.6 -5.63663e-09 -22126.5)
(-27523.3 -6.4397e-09 -17316.3)
(-31054.3 -7.3012e-09 -11139)
(-33413.7 -8.22491e-09 -4354.75)
(-34478 -9.23688e-09 2175.26)
(-34327.8 -1.02584e-08 9366.79)
(-34306.8 -1.11448e-08 18848.3)
(-31760.3 -1.19879e-08 27779.2)
(-29454.7 -1.28246e-08 40019.9)
(-2561.7 -4.01783e-10 -43216.9)
(-6719.34 -1.14454e-09 -42714.2)
(-12741 -1.84651e-09 -39611.3)
(-18352.3 -2.60449e-09 -36027.9)
(-23192.7 -3.43821e-09 -31830.7)
(-25486.8 -4.49541e-09 -28576.9)
(-28188 -5.40628e-09 -26550.8)
(-32284.1 -6.23815e-09 -20531)
(-36759.3 -7.0507e-09 -13469.3)
(-39978.4 -7.92777e-09 -5609.84)
(-41924.9 -8.85625e-09 2093.11)
(-42289.7 -9.84231e-09 10462.7)
(-43153.7 -1.06701e-08 21668.7)
(-41081.1 -1.14572e-08 32148.9)
(-39673.2 -1.22665e-08 47083.1)
(-3170.29 -3.83064e-10 -48609.2)
(-8588.95 -1.07053e-09 -48240.7)
(-15196.1 -1.74764e-09 -44745.7)
(-21546.2 -2.49519e-09 -40485.9)
(-27394.9 -3.26003e-09 -36162.1)
(-30116.9 -4.27207e-09 -34001.8)
(-32894.7 -5.21099e-09 -31837.2)
(-37751.9 -6.05974e-09 -24459.6)
(-43446.3 -6.79558e-09 -16714.3)
(-47779.7 -7.63121e-09 -7605.57)
(-50515.2 -8.49927e-09 935.17)
(-51538 -9.46697e-09 10691.7)
(-53368.4 -1.02352e-08 23680.4)
(-52206.7 -1.09349e-08 35635.7)
(-52034.2 -1.16947e-08 53132.2)
(-3793.67 -3.72096e-10 -54243.2)
(-10506.3 -1.06422e-09 -53496.6)
(-17840.5 -1.7024e-09 -49792.9)
(-25036.3 -2.38986e-09 -45749.1)
(-31927.6 -3.09856e-09 -42448.8)
(-35730.5 -4.02616e-09 -42189.9)
(-39229.5 -4.97808e-09 -38218.5)
(-43940.2 -5.88485e-09 -29305.4)
(-51322.7 -6.48325e-09 -21552.9)
(-57450.5 -7.24567e-09 -10933.2)
(-60960.7 -8.09012e-09 -1404.23)
(-62545.9 -9.07972e-09 10129.3)
(-65158.3 -9.78677e-09 24680.8)
(-64976 -1.04127e-08 37825.3)
(-66469 -1.11408e-08 57426.2)
(-4186.74 -3.51165e-10 -60349.1)
(-11595.3 -1.014e-09 -58818.7)
(-20425.3 -1.66221e-09 -55257.9)
(-28611.9 -2.32925e-09 -52074.3)
(-36840.9 -2.95866e-09 -53623.6)
(-42244.3 -3.76264e-09 -52650.1)
(-47635.3 -4.6446e-09 -47056.1)
(-51021.3 -5.65288e-09 -35869.1)
(-59927.6 -6.13259e-09 -28395.3)
(-68205.2 -6.82964e-09 -16589)
(-72944.3 -7.66631e-09 -5355)
(-75631.4 -8.66044e-09 8517.47)
(-78296 -9.32194e-09 23864.3)
(-78932.7 -9.90329e-09 38259.8)
(-82502.3 -1.05731e-08 59233)
(-4257.23 -3.53305e-10 -68842.3)
(-11710.6 -9.96484e-10 -66312)
(-22679.8 -1.61238e-09 -62946.3)
(-32404 -2.21339e-09 -62421.2)
(-41595.9 -2.76156e-09 -67552.6)
(-49581.8 -3.46137e-09 -65857.9)
(-57018.7 -4.26903e-09 -58889.6)
(-60196.7 -5.22931e-09 -46990.5)
(-69058.9 -5.80014e-09 -36844.4)
(-79256.8 -6.43403e-09 -24405.7)
(-86348.1 -7.23113e-09 -11474.6)
(-90919.9 -8.20264e-09 5126.79)
(-91868.2 -8.85416e-09 19891.9)
(-93563.9 -9.46304e-09 36601.6)
(-99442.4 -1.01195e-08 58790.1)
(-4201.3 -3.30503e-10 -81505.4)
(-11458.6 -9.19621e-10 -78223.2)
(-24257.3 -1.5085e-09 -74219.2)
(-35662 -2.03171e-09 -77960.8)
(-45707.8 -2.54298e-09 -82741.4)
(-56499.6 -3.16074e-09 -81114.4)
(-66428 -3.88331e-09 -74104)
(-69515.6 -4.85833e-09 -60273)
(-78469.3 -5.6038e-09 -45403.3)
(-90272.9 -6.12372e-09 -34055.1)
(-101014 -6.73847e-09 -21426.7)
(-109054 -7.63962e-09 -2466.5)
(-104228 -8.49468e-09 10594.4)
(-109205 -9.19876e-09 32631.5)
(-116727 -9.82789e-09 56702.5)
(-4493.88 -3.01598e-10 -97592.9)
(-11940 -8.37604e-10 -94898.3)
(-25402.7 -1.3765e-09 -91857.5)
(-38161 -1.83195e-09 -96328.1)
(-49336 -2.32676e-09 -98968.8)
(-62182.7 -2.85815e-09 -98500.5)
(-74497.4 -3.47791e-09 -92789.9)
(-83050.4 -4.23257e-09 -82486)
(-87368.1 -5.47512e-09 -54244.7)
(-99544.2 -5.8198e-09 -46325.1)
(-114473 -6.1507e-09 -38030.9)
(-126398 -6.90976e-09 -19905.5)
(-121504 -8.23355e-09 1072.63)
(-126428 -9.04099e-09 27492.8)
(-135466 -9.64527e-09 54611.2)
(-4913.47 -2.69949e-10 -115493)
(-12799.7 -7.40488e-10 -114180)
(-26843.6 -1.21462e-09 -112512)
(-40090.7 -1.66396e-09 -114100)
(-52070.7 -2.11364e-09 -116250)
(-66066.6 -2.56601e-09 -117233)
(-79973.4 -3.09977e-09 -112827)
(-90225.3 -3.74621e-09 -103506)
(-97962 -4.51196e-09 -89152.3)
(-107479 -5.51343e-09 -61081.6)
(-123281 -5.97262e-09 -49791.8)
(-138265 -6.5289e-09 -36895.4)
(-143973 -7.87685e-09 -12389.6)
(-146224 -8.92488e-09 21591.1)
(-157028 -9.51812e-09 52809.6)
(-5433.59 -2.32327e-10 -134108)
(-14173.6 -6.64175e-10 -133701)
(-28519.1 -1.08034e-09 -131871)
(-41743.7 -1.51016e-09 -131771)
(-53478.7 -1.92161e-09 -133647)
(-67851.8 -2.30731e-09 -136184)
(-82572 -2.73793e-09 -134050)
(-91942.6 -3.11418e-09 -133270)
(-101467 -3.89913e-09 -114418)
(-114384 -4.52006e-09 -100069)
(-131797 -5.81746e-09 -62626.7)
(-157317 -5.99537e-09 -67489)
(-184142 -6.72808e-09 -52026.6)
(-169051 -8.85721e-09 15072.6)
(-232980 -9.45241e-09 82158)
(-5938.8 -2.22327e-10 -150311)
(-15937.7 -6.0853e-10 -150872)
(-30158.9 -9.81867e-10 -150606)
(-43254.1 -1.38291e-09 -149565)
(-53848.6 -1.77681e-09 -150591)
(-67728.2 -2.11751e-09 -153631)
(-80892.7 -2.46142e-09 -152526)
(-88638.4 -2.70668e-09 -155020)
(-98215.4 -3.15335e-09 -147642)
(-110103 -3.7034e-09 -130200)
(-125813 -4.18915e-09 -122169)
(-156596 -4.77042e-09 -120250)
(-192111 -5.42204e-09 -120003)
(-235031 -6.40817e-09 -109161)
(-331617 -6.84601e-09 -89093.9)
(-6180.1 -2.11945e-10 -165060)
(-16432 -5.82362e-10 -166542)
(-31390.5 -9.33086e-10 -165576)
(-44605.2 -1.2985e-09 -164722)
(-54057 -1.66488e-09 -166967)
(-67450.7 -1.99239e-09 -168991)
(-79288.1 -2.29462e-09 -167123)
(-83631.5 -2.46471e-09 -169329)
(-85288.7 -2.61229e-09 -169519)
(-93762.4 -2.91357e-09 -155950)
(-113526 -3.47955e-09 -146787)
(-133820 -3.87592e-09 -155431)
(-159139 -4.37684e-09 -173189)
(-193249 -4.98564e-09 -204626)
(-241584 -5.30414e-09 -285903)
(-6441.32 -1.86798e-10 -179739)
(-17767 -5.44536e-10 -181470)
(-32794.3 -8.91778e-10 -180313)
(-45520.7 -1.24617e-09 -179576)
(-54119.5 -1.57872e-09 -183982)
(-67997.8 -1.89912e-09 -185539)
(-78068.7 -2.16707e-09 -181288)
(-80111.1 -2.31094e-09 -180190)
(-84950.6 -2.48479e-09 -176638)
(-90187.1 -2.69051e-09 -164780)
(-105148 -3.12095e-09 -158450)
(-116520 -3.47787e-09 -163015)
(-123660 -3.83226e-09 -177951)
(-124782 -4.20317e-09 -214304)
(-114300 -4.52298e-09 -288342)
(-6626.35 -1.95143e-10 -194020)
(-18316.3 -5.59347e-10 -196826)
(-34676 -8.98004e-10 -198049)
(-47606.2 -1.21987e-09 -197270)
(-54885.1 -1.52385e-09 -204017)
(-69874.9 -1.81129e-09 -205729)
(-80581.4 -2.04713e-09 -200694)
(-80388.3 -2.21011e-09 -193018)
(-85984.9 -2.39413e-09 -185392)
(-96143.3 -2.63965e-09 -170560)
(-104234 -2.91377e-09 -161053)
(-110017 -3.26743e-09 -157603)
(-108112 -3.5941e-09 -158021)
(-94076.7 -3.90092e-09 -166860)
(-56721.6 -4.18695e-09 -184250)
(-6751.12 -1.93806e-10 -208333)
(-18869.1 -5.92927e-10 -211992)
(-35857.6 -9.10416e-10 -214021)
(-49215.4 -1.19455e-09 -215037)
(-56442.1 -1.47144e-09 -224991)
(-72289 -1.76096e-09 -225378)
(-84275.5 -1.99193e-09 -221548)
(-84022.2 -2.11988e-09 -209568)
(-93431 -2.34536e-09 -195469)
(-103178 -2.57452e-09 -173417)
(-112701 -2.8753e-09 -159295)
(-116496 -3.19288e-09 -145685)
(-114088 -3.51374e-09 -132495)
(-102061 -3.80954e-09 -111838)
(-71497.1 -4.07097e-09 -81711.1)
(-6728.39 -1.92802e-10 -222227)
(-19054.1 -5.45864e-10 -225022)
(-35195.8 -8.44415e-10 -226732)
(-50184.3 -1.15064e-09 -231248)
(-58957.9 -1.45737e-09 -244731)
(-75942.1 -1.75141e-09 -242144)
(-89557.4 -1.97567e-09 -235348)
(-94039.2 -2.07982e-09 -224150)
(-106297 -2.31512e-09 -204896)
(-118864 -2.59922e-09 -181773)
(-131494 -2.88519e-09 -158416)
(-136917 -3.16367e-09 -138294)
(-137126 -3.48098e-09 -116922)
(-135038 -3.75196e-09 -80736.3)
(-125387 -4.04989e-09 -31523)
(-6423.27 -1.93572e-10 -237918)
(-17622.4 -4.85619e-10 -239669)
(-33803.8 -7.73227e-10 -239074)
(-50765.4 -1.13476e-09 -253589)
(-63845.4 -1.47039e-09 -263561)
(-81684.6 -1.76918e-09 -258409)
(-96790.3 -1.99898e-09 -248843)
(-106143 -2.11081e-09 -236023)
(-120633 -2.30506e-09 -214395)
(-134691 -2.62158e-09 -190701)
(-148704 -2.94086e-09 -166914)
(-159047 -3.18534e-09 -141755)
(-163214 -3.48207e-09 -113232)
(-168495 -3.75223e-09 -75245)
(-171597 -4.05227e-09 -30344.5)
(-6446.67 -2.58716e-10 -257056)
(-17366 -4.93036e-10 -260380)
(-34889.2 -8.05412e-10 -261456)
(-53949.8 -1.16481e-09 -274686)
(-70440.7 -1.50536e-09 -280924)
(-88305 -1.79922e-09 -272845)
(-104730 -2.03709e-09 -263628)
(-118668 -2.15555e-09 -247701)
(-135264 -2.34949e-09 -225915)
(-150949 -2.64362e-09 -200575)
(-166843 -2.92783e-09 -175274)
(-180028 -3.17885e-09 -146972)
(-188363 -3.49211e-09 -113461)
(-195575 -3.763e-09 -73592.2)
(-195280 -4.0613e-09 -33341.2)
(-6871.98 -1.81191e-10 -275332)
(-19276.9 -4.86614e-10 -278067)
(-35573.5 -8.16942e-10 -280784)
(-56553 -1.21459e-09 -294662)
(-75049.9 -1.52349e-09 -293641)
(-94655.3 -1.83966e-09 -287142)
(-113174 -2.12095e-09 -279098)
(-130590 -2.20768e-09 -261430)
(-150655 -2.39221e-09 -240348)
(-168798 -2.66947e-09 -212181)
(-186959 -2.95751e-09 -183943)
(-203778 -3.22388e-09 -152285)
(-216864 -3.51984e-09 -112981)
(-222677 -3.7921e-09 -58994.4)
(-206653 -4.04641e-09 -2888.09)
(-7437.32 -9.60159e-11 -290311)
(-20469 -5.02794e-10 -293027)
(-36284.2 -8.43942e-10 -297478)
(-57441.1 -1.19912e-09 -306902)
(-78486.7 -1.52211e-09 -307295)
(-99560.2 -1.89265e-09 -302621)
(-120259 -2.27115e-09 -298558)
(-140641 -2.37246e-09 -281436)
(-166927 -2.50318e-09 -259663)
(-188980 -2.70704e-09 -225682)
(-209279 -2.99583e-09 -193947)
(-239759 -3.30203e-09 -153893)
(-260836 -3.57287e-09 -108368)
(-272136 -3.85506e-09 -17044.1)
(-383726 -4.14601e-09 5250.61)
(-7730.14 -1.83091e-10 -304274)
(-21537.4 -5.07643e-10 -308216)
(-37773.4 -8.04141e-10 -313570)
(-58635.6 -1.20362e-09 -320671)
(-81532.9 -1.56618e-09 -322538)
(-103430 -1.93688e-09 -318470)
(-124896 -2.29465e-09 -312951)
(-146084 -2.62712e-09 -305202)
(-181025 -2.83904e-09 -290416)
(-211508 -2.74496e-09 -240743)
(-258709 -3.16174e-09 -227130)
(-311791 -3.50082e-09 -188765)
(-342396 -3.67842e-09 -117127)
(-268218 -5.25943e-09 -302687)
(-483940 -5.61536e-09 -461220)
(-7688.74 -1.83783e-10 -317701)
(-21875.9 -5.08003e-10 -322258)
(-38422 -8.05128e-10 -328366)
(-58917.7 -1.24249e-09 -334804)
(-82371.1 -1.64342e-09 -337965)
(-106067 -2.01333e-09 -335481)
(-129040 -2.32953e-09 -328196)
(-149203 -2.82113e-09 -325296)
(-182587 -3.26939e-09 -331059)
(-224101 -3.62451e-09 -348734)
(-282963 -3.97538e-09 -342665)
(-359304 -4.17959e-09 -337396)
(-501461 -4.67963e-09 -428978)
(-60745.7 -6.45911e-09 -477536)
(-204856 -6.94125e-09 -904419)
(-7214.97 -2.00713e-10 -330143)
(-21044.8 -5.49313e-10 -335529)
(-37993.6 -9.23679e-10 -342799)
(-57860.2 -1.32143e-09 -349942)
(-80795.1 -1.76937e-09 -356175)
(-107158 -2.14536e-09 -356115)
(-129710 -2.56082e-09 -354614)
(-141060 -3.17351e-09 -351479)
(-157061 -3.84623e-09 -370852)
(-195779 -4.36034e-09 -419673)
(-190696 -5.1189e-09 -451117)
(-199871 -5.89192e-09 -591488)
(-78556 -6.60638e-09 -718762)
(304036 -7.7085e-09 -499307)
(380771 -8.31308e-09 -1.03242e+06)
(-6563.82 -2.02708e-10 -342455)
(-19476.6 -5.71298e-10 -348335)
(-36084.8 -1.01091e-09 -356863)
(-55565 -1.39871e-09 -366480)
(-78109.5 -1.87684e-09 -377884)
(-106609 -2.31502e-09 -379678)
(-129403 -2.82243e-09 -383464)
(-127253 -3.66364e-09 -389428)
(-116609 -4.58158e-09 -403685)
(-142343 -5.14473e-09 -434731)
(-25363 -6.31713e-09 -435448)
(112803 -7.24081e-09 -500805)
(308891 -7.89041e-09 -834424)
(657754 -8.78907e-09 -205616)
(1.02991e+06 -9.39099e-09 -562568)
(-5989.35 -2.00448e-10 -354439)
(-17590.9 -5.77821e-10 -360634)
(-33490.9 -9.63326e-10 -370789)
(-52340.7 -1.48616e-09 -383707)
(-75841.6 -2.03861e-09 -402120)
(-105494 -2.4976e-09 -405622)
(-130048 -3.12559e-09 -417418)
(-120839 -4.24363e-09 -448912)
(-111170 -5.49092e-09 -415553)
(22415.5 -7.58568e-09 -194035)
(86386.5 -8.0767e-09 -180168)
(306080 -8.57374e-09 -108498)
(637420 -9.22151e-09 -69126.7)
(783988 -9.76143e-09 431394)
(1.3555e+06 -1.05594e-08 603758)
(-5485.55 -2.132e-10 -364809)
(-15689.3 -6.1385e-10 -371790)
(-30106.6 -1.0349e-09 -383264)
(-48208 -1.57932e-09 -399193)
(-74145.8 -2.20155e-09 -423792)
(-102926 -2.6657e-09 -432506)
(-132486 -3.37476e-09 -457990)
(-153675 -4.76579e-09 -541458)
(-208444 -6.38748e-09 -466870)
(-142426 -8.08723e-09 -139684)
(-150663 -8.91212e-09 218225)
(93680.2 -9.25459e-09 348544)