/*--------------------------------*- C++ -*----------------------------------*\
  =========                 |
  \\      /  F ield         | OpenFOAM: The Open Source CFD Toolbox
   \\    /   O peration     | Website:  https://openfoam.org
    \\  /    A nd           | Version:  7
     \\/     M anipulation  |
\*---------------------------------------------------------------------------*/
FoamFile
{
    version     2.0;
    format      ascii;
    class       volScalarField;
    location    "1";
    object      T;
}
// * * * * * * * * * * * * * * * * * * * * * * * * * * * * * * * * * * * * * //

dimensions      [0 0 0 1 0 0 0];

internalField   nonuniform List<scalar> 
32100
(
-9.63193e+16
-1.58313e+15
9.19708e+14
-5.6658e+13
-1.70948e+12
1.0045e+12
-5.02792e+09
-8.49111e+09
6.16141e+08
6.5833e+07
-1.2619e+07
161257
563.325
1409.81
408.616
-2.16364e+15
1.00497e+15
-5.9224e+13
-1.93461e+12
1.03759e+12
-4.29508e+09
-8.73773e+09
6.19658e+08
5.89245e+07
-2.54832e+07
-4.52919e+06
132847
11864.6
1423.14
372.201
1.10961e+15
-6.33981e+13
-2.24006e+12
1.08762e+12
-3.43853e+09
-9.06926e+09
6.48717e+08
6.62654e+07
-2.23248e+07
-399102
-860613
100671
19263
818.13
310.875
-7.04145e+13
-3.23345e+12
1.15869e+12
5.78633e+09
-9.50645e+09
6.33153e+08
8.90706e+07
-2.00758e+07
559269
171850
-72905.7
76045.3
17869.5
184.812
223.774
-7.20023e+12
7.46269e+11
1.90638e+10
-2.05638e+09
6.39913e+08
6.42706e+07
-2.61388e+06
2.67122e+06
162524
27570
50368.6
46740.7
11528.9
-233.494
128.839
-2.15481e+12
-4.67709e+11
5.45741e+09
8.50772e+09
1.23314e+08
-3.58901e+07
1.97144e+07
2.33573e+06
-97925.5
19365
27430.2
21693.3
5350.7
-393.998
55.6675
-3.2279e+12
-4.76342e+11
1.32841e+10
7.82963e+09
7.86807e+07
-1.57778e+07
1.82298e+07
2.18364e+06
-77653.6
-185.137
9829.05
7043.31
1586.47
-356.445
18.6886
-3.00906e+12
-4.56142e+11
9.08673e+09
7.56289e+09
1.63787e+08
-1.94053e+07
1.67506e+07
2.29418e+06
-61956.5
-9013.06
2654.15
967.382
87.9368
-224.62
9.14393
-2.75476e+12
-4.46698e+11
5.27836e+09
7.3834e+09
2.25424e+08
-2.21699e+07
1.54386e+07
2.36876e+06
-40950.4
-11456
1016.95
-399.349
-195.609
-96.5402
9.66165
-2.52373e+12
-4.35379e+11
1.62184e+09
7.13286e+09
2.87606e+08
-2.37679e+07
1.40366e+07
2.42005e+06
-17331.6
-12158.7
957.096
-323.82
-130.249
-20.457
9.46495
-2.3096e+12
-4.23617e+11
-1.97234e+09
6.85118e+09
3.49648e+08
-2.44025e+07
1.2597e+07
2.44682e+06
6524.41
-12483
898.088
-185.036
-61.2178
6.16484
6.69874
-2.11194e+12
-4.12875e+11
-5.23994e+09
6.52053e+09
4.09154e+08
-2.40036e+07
1.11601e+07
2.4486e+06
29779.9
-12430
728.749
-114.053
-40.9444
6.722
3.33527
-1.93161e+12
-3.95607e+11
-7.3493e+09
6.13929e+09
4.61892e+08
-2.25287e+07
9.78834e+06
2.42653e+06
51603.1
-11954.2
546.111
-75.2858
-35.3632
2.26297
1.09007
-1.70364e+12
-3.29599e+11
-7.89011e+09
5.04548e+09
4.64629e+08
-1.91901e+07
8.54624e+06
2.37246e+06
71058
-11163.8
405.037
-44.7166
-26.6427
0.834418
0.451554
-1.17768e+12
-2.49134e+11
-8.37578e+09
3.89969e+09
4.20148e+08
-1.34663e+07
6.80851e+06
2.17503e+06
87948.9
-10496.3
277.459
-29.7814
-28.612
0.332479
0.322398
-8.48082e+11
-2.08313e+11
-9.23811e+09
3.22961e+09
3.89886e+08
-9.88985e+06
5.15281e+06
1.99467e+06
106883
-9999.02
123.639
-15.7879
-36.3053
-0.205879
0.335914
-7.29072e+11
-1.91232e+11
-1.0085e+10
2.851e+09
3.89012e+08
-7.80254e+06
4.03672e+06
1.9171e+06
128001
-9269.79
-53.6239
4.78588
-39.5148
-0.881667
0.391121
-6.42196e+11
-1.81155e+11
-1.11181e+10
2.60154e+09
4.0344e+08
-4.91977e+06
3.1838e+06
1.86573e+06
150488
-8181.21
-247.676
25.6905
-38.8613
-1.59441
0.431245
-5.70019e+11
-1.71617e+11
-1.20463e+10
2.35691e+09
4.19237e+08
-1.1263e+06
2.41971e+06
1.81645e+06
173945
-6701.9
-450.292
43.3301
-35.9856
-2.27871
0.437175
-5.07482e+11
-1.62082e+11
-1.2912e+10
2.08833e+09
4.33985e+08
3.48683e+06
1.70925e+06
1.7537e+06
197636
-4801.46
-652.987
56.4036
-33.0371
-2.9898
0.416687
-4.49521e+11
-1.51837e+11
-1.36568e+10
1.79936e+09
4.46406e+08
8.91747e+06
1.06731e+06
1.67232e+06
221250
-2462.53
-848.693
63.8057
-29.1007
-3.64015
0.367595
-3.9405e+11
-1.40589e+11
-1.42891e+10
1.49874e+09
4.55496e+08
1.51861e+07
524242
1.5742e+06
244988
363.611
-1031.26
64.9745
-23.9021
-4.07206
0.291469
-3.4187e+11
-1.2894e+11
-1.4813e+10
1.18836e+09
4.60683e+08
2.23011e+07
115380
1.46032e+06
269073
3779.23
-1197.77
60.4728
-19.0196
-4.37403
0.205184
-2.93747e+11
-1.17326e+11
-1.5211e+10
8.67994e+08
4.60769e+08
3.01369e+07
-123161
1.33158e+06
293348
7925.67
-1344.61
50.2815
-14.6341
-4.63631
0.120276
-2.50477e+11
-1.06321e+11
-1.54988e+10
5.40618e+08
4.55255e+08
3.85685e+07
-153376
1.1871e+06
317321
12923.9
-1457.74
33.6483
-10.4109
-4.89283
0.0386633
-2.12027e+11
-9.59389e+10
-1.56407e+10
2.08265e+08
4.43563e+08
4.74927e+07
68648.4
1.0263e+06
340222
18912.7
-1514.62
9.06451
-6.12507
-5.18638
-0.0465333
-1.78819e+11
-8.61696e+10
-1.565e+10
-1.27932e+08
4.25076e+08
5.67808e+07
592458
852149
360856
26048.9
-1479.94
-26.1301
-1.51972
-5.43784
-0.144583
-1.5072e+11
-7.74415e+10
-1.56264e+10
-4.68127e+08
3.98962e+08
6.62322e+07
1.47332e+06
669647
376914
34717.2
-1308.73
-72.452
3.22668
-5.46643
-0.250561
-1.26585e+11
-6.98303e+10
-1.56205e+10
-8.12948e+08
3.63996e+08
7.5649e+07
2.77537e+06
487926
386532
45003.9
-943.172
-129.962
7.60355
-5.32293
-0.359652
-1.053e+11
-6.27176e+10
-1.55381e+10
-1.15724e+09
3.18561e+08
8.47065e+07
4.57501e+06
320930
388922
56882.2
-312.915
-198.943
11.26
-5.02579
-0.472027
-8.63161e+10
-5.5273e+10
-1.51541e+10
-1.48904e+09
2.61866e+08
9.2917e+07
6.95923e+06
188424
382116
70712.1
684.662
-274.542
13.214
-4.44223
-0.572163
-6.99028e+10
-4.75591e+10
-1.43587e+10
-1.7997e+09
1.93554e+08
9.97028e+07
1.00123e+07
121025
363140
86424.1
2213.67
-348.622
12.6835
-3.69271
-0.66336
-5.66316e+10
-4.07458e+10
-1.35274e+10
-2.08307e+09
1.12676e+08
1.04299e+08
1.3785e+07
162944
328279
103853
4531.37
-426.326
9.71133
-2.93188
-0.787226
-4.59157e+10
-3.55855e+10
-1.30161e+10
-2.34939e+09
1.87439e+07
1.05932e+08
1.82872e+07
373147
275568
121959
8001.5
-504.211
2.20688
-1.96596
-0.985965
-3.69198e+10
-3.13436e+10
-1.26243e+10
-2.60747e+09
-8.89481e+07
1.03626e+08
2.33993e+07
820933
206985
139046
13129.2
-526.544
-14.5158
-0.47651
-1.27129
-2.93987e+10
-2.70889e+10
-1.2021e+10
-2.85787e+09
-2.11832e+08
9.58065e+07
2.86129e+07
1.57347e+06
129836
151912
20408.5
-398.68
-47.4029
1.73329
-1.61939
-2.31696e+10
-2.30661e+10
-1.13046e+10
-3.10404e+09
-3.52104e+08
8.06557e+07
3.34807e+07
2.6931e+06
60259.8
156290
29972.1
81.0967
-105.433
4.45688
-1.9183
-1.79794e+10
-1.95807e+10
-1.06446e+10
-3.34023e+09
-5.09773e+08
5.6703e+07
3.76884e+07
4.22948e+06
24890.8
148370
41223.6
1166.01
-186.617
6.09058
-1.91201
-1.36817e+10
-1.65486e+10
-1.0009e+10
-3.54465e+09
-6.77051e+08
2.28544e+07
4.06241e+07
6.19582e+06
59527
125108
52599.4
3090.44
-274.114
3.40528
-1.27416
-1.01547e+10
-1.38729e+10
-9.36666e+09
-3.70328e+09
-8.34571e+08
-2.04565e+07
4.14087e+07
8.52807e+06
202853
86713.2
61895.2
6026.99
-333.139
-8.97897
0.338355
-7.30934e+09
-1.13986e+10
-8.62113e+09
-3.77296e+09
-9.72091e+08
-7.12462e+07
3.91611e+07
1.09495e+07
486151
39168.6
66966.3
10003.7
-269.35
-39.6904
3.0028
-5.10006e+09
-9.06543e+09
-7.7178e+09
-3.71565e+09
-1.09405e+09
-1.26918e+08
3.35032e+07
1.3244e+07
934475
-7547.15
65888.9
14420.5
14.761
-83.2015
5.17708
-3.49529e+09
-6.99077e+09
-6.68074e+09
-3.56436e+09
-1.1985e+09
-1.84981e+08
2.44342e+07
1.49043e+07
1.57259e+06
-41709.9
56682.7
17602.4
484.441
-128.305
5.02253
-2.38068e+09
-5.3122e+09
-5.65121e+09
-3.38052e+09
-1.28287e+09
-2.43319e+08
1.24962e+07
1.58274e+07
2.23309e+06
-50803.8
42658.4
19602.9
1072.12
-166.809
2.23587
-1.62271e+09
-4.03968e+09
-4.77065e+09
-3.19051e+09
-1.34963e+09
-3.00914e+08
-1.67735e+06
1.59269e+07
2.82545e+06
-28341.7
27545.1
20239.8
1516.02
-208.875
-9.40403
-1.10709e+09
-3.09251e+09
-4.04272e+09
-2.99497e+09
-1.40333e+09
-3.57972e+08
-1.76473e+07
1.53812e+07
3.38464e+06
13332.9
11831.1
18130.1
1633.53
-142.209
-11.0286
-7.48569e+08
-2.37374e+09
-3.44632e+09
-2.80996e+09
-1.44621e+09
-4.15175e+08
-3.52889e+07
1.45918e+07
3.88431e+06
65104.3
-793.631
15592.9
1584.04
-81.8609
-6.32401
-4.9879e+08
-1.81423e+09
-2.93783e+09
-2.63371e+09
-1.47603e+09
-4.70662e+08
-5.47085e+07
1.34438e+07
4.45014e+06
125941
-10888.2
14246.1
1602.85
-57.3628
-5.25583
-3.21783e+08
-1.366e+09
-2.47325e+09
-2.44447e+09
-1.48481e+09
-5.20229e+08
-7.53344e+07
1.16615e+07
5.06124e+06
203575
-19275.5
13565.1
1715.84
-46.0403
-5.40505
-2.00331e+08
-1.01045e+09
-2.05593e+09
-2.24808e+09
-1.47548e+09
-5.64841e+08
-9.71118e+07
9.06692e+06
5.62663e+06
299714
-26912.9
13068.1
1863.73
-37.2616
-5.81369
-1.18636e+08
-7.35372e+08
-1.7009e+09
-2.05879e+09
-1.4576e+09
-6.09233e+08
-1.21485e+08
5.61126e+06
6.15781e+06
413702
-33646.5
12432.7
1974.63
-23.9512
-4.83287
-6.53361e+07
-5.23825e+08
-1.39322e+09
-1.8571e+09
-1.43266e+09
-6.53907e+08
-1.49424e+08
1.1216e+06
6.65989e+06
545427
-38815.9
11353.8
1977.96
-3.16101
-0.454826
-3.30599e+07
-3.61772e+08
-1.10814e+09
-1.64336e+09
-1.39841e+09
-6.99269e+08
-1.80684e+08
-4.72712e+06
7.08973e+06
693581
-41829.7
9897.76
1862.26
21.9393
7.99081
-1.42081e+07
-2.41879e+08
-8.55548e+08
-1.43582e+09
-1.3633e+09
-7.45989e+08
-2.15863e+08
-1.22578e+07
7.38142e+06
851621
-42383.2
8285.74
1647.9
48.0344
23.1258
-3.36157e+06
-1.56116e+08
-6.4964e+08
-1.24286e+09
-1.32055e+09
-7.90441e+08
-2.55172e+08
-2.17885e+07
7.46779e+06
1.00876e+06
-39965.3
6667.55
1350.43
71.3005
46.4828
2.21288e+06
-9.47921e+07
-4.78858e+08
-1.05581e+09
-1.25455e+09
-8.29266e+08
-2.98991e+08
-3.37004e+07
7.27371e+06
1.14797e+06
-33896.5
5089.98
994.008
66.1996
55.6113
4.31724e+06
-5.20186e+07
-3.37129e+08
-8.68034e+08
-1.1659e+09
-8.60049e+08
-3.48103e+08
-4.87076e+07
6.71639e+06
1.21081e+06
-23790.9
3369.81
535.835
40.6896
52.7229
4.28089e+06
-2.43638e+07
-2.23607e+08
-6.87273e+08
-1.05487e+09
-8.77315e+08
-3.99965e+08
-6.71465e+07
5.74612e+06
1.18255e+06
-12757.6
1600.72
296.635
43.2153
52.3633
3.23366e+06
-8.30036e+06
-1.36273e+08
-5.1819e+08
-9.2147e+08
-8.76261e+08
-4.53298e+08
-8.83841e+07
4.3171e+06
1.14022e+06
-4279.87
152.871
430.864
54.1922
65.1736
1.96991e+06
-534128
-7.30385e+07
-3.65894e+08
-7.72942e+08
-8.55231e+08
-5.07835e+08
-1.10457e+08
2.37982e+06
1.47052e+06
-4895.25
420.388
581.579
325.626
224.265
881171
1.96518e+06
-3.08186e+07
-2.34782e+08
-6.17589e+08
-8.12949e+08
-5.61467e+08
-1.3088e+08
-550089
2.5775e+06
3702.3
2302.56
-328.848
112.995
277.154
143671
1.45573e+06
-6.73843e+06
-1.2731e+08
-4.61461e+08
-7.47491e+08
-6.10835e+08
-1.51072e+08
-5.44513e+06
2.32992e+06
114844
18476.2
14339.1
7784.92
2650.52
-116728
-78769
2.42116e+06
-4.59897e+07
-3.08843e+08
-6.56273e+08
-6.50552e+08
-1.801e+08
-1.27118e+07
213971
969469
432344
405569
308004
120290
-166363
-517469
1.49899e+06
5.22208e+06
-1.66038e+08
-5.40173e+08
-6.72477e+08
-2.15459e+08
-2.0786e+07
-5.60556e+06
-1.82736e+06
-2.28691e+06
-3.79674e+06
-4.78104e+06
-2.58804e+06
-447691
-831638
526788
2.18278e+07
-4.55553e+07
-4.07652e+08
-6.68722e+08
-2.44767e+08
-2.54038e+07
-6.71372e+06
-1.11372e+07
-1.02868e+07
-1.30081e+07
-9.53748e+06
-5.26829e+06
-2.26676e+06
-732487
1.95356e+06
1.89419e+07
2.53247e+07
-2.74975e+08
-6.3012e+08
-2.63473e+08
-3.10936e+07
1.06007e+06
-2.03528e+06
-4.42829e+06
-3.22912e+06
-2.87884e+06
-5.09311e+06
3.67806e+07
1.78188e+07
8.32108e+06
2.58727e+07
2.34428e+07
-1.68414e+08
-5.55727e+08
-2.69827e+08
-4.254e+07
-251780
346671
-218113
-345788
-669568
-4.25954e+06
4.01046e+08
1.35829e+08
8.70699e+07
6.08479e+07
-2.44742e+07
-2.30642e+08
-4.9765e+08
-2.61299e+08
-6.41655e+07
-2.07803e+07
-7.0473e+06
-2.84931e+06
-1.71018e+06
-1.09715e+06
-3.4675e+06
-1.05696e+10
-3.38252e+09
-1.21868e+09
-5.93383e+08
-3.45511e+08
-5.49175e+08
-7.23128e+08
-2.78392e+08
-9.25037e+07
-3.54923e+07
-1.37083e+07
-5.73226e+06
-2.88157e+06
-1.44258e+06
-2.98391e+06
-6.20732e+10
-1.82962e+10
-1.26063e+10
-8.02532e+09
-5.18551e+09
-3.27556e+09
-1.7234e+09
-7.62881e+08
-2.65224e+08
-8.78733e+07
-3.02786e+07
-1.14437e+07
-4.90322e+06
-2.12779e+06
-2.40792e+06
1.69083e+12
2.96943e+11
4.6403e+10
3.24464e+09
-6.03647e+09
-6.67228e+09
-4.07275e+09
-1.62853e+09
-5.83103e+08
-1.97163e+08
-6.87639e+07
-2.63766e+07
-1.13676e+07
-5.34894e+06
-8.278e+06
-1.34486e+13
-6.49474e+11
4.07903e+11
1.80717e+11
6.16396e+10
1.1751e+10
-1.53266e+09
-1.60928e+09
-6.92945e+08
-2.53571e+08
-9.00467e+07
-3.28525e+07
-1.30131e+07
-6.71366e+06
-1.07874e+07
-1.17763e+14
-2.12855e+13
-3.79554e+12
-4.94739e+11
7.69758e+09
2.18394e+10
4.18943e+08
-1.62671e+09
-9.41881e+08
-5.28815e+08
-3.24524e+08
-2.07861e+08
-1.26296e+08
-6.96539e+07
-5.69177e+07
2.27949e+15
-3.88935e+13
-3.11591e+13
-2.53567e+12
-3.72328e+11
-1.84324e+10
-1.93461e+09
-5.30936e+09
-3.78815e+09
-2.51854e+09
-1.68507e+09
-1.12209e+09
-6.97081e+08
-3.87367e+08
-2.56279e+08
1.56206e+16
2.43352e+15
-5.59034e+13
-2.15753e+13
2.429e+12
-1.55422e+11
6.21197e+10
9.27479e+10
8.44588e+10
7.35287e+10
5.96057e+10
4.35684e+10
2.70923e+10
1.31594e+10
4.77455e+09
-2.18022e+17
1.66621e+16
2.18615e+15
-1.62455e+14
-9.80319e+12
4.31851e+12
1.31293e+12
1.23871e+12
1.00803e+12
7.69078e+11
5.66443e+11
3.94612e+11
2.46825e+11
1.29867e+11
4.74717e+10
1.36669e+18
-1.92995e+17
1.63355e+16
1.96965e+15
-1.3852e+14
-2.48728e+12
8.08174e+12
3.41726e+12
2.19921e+12
1.25243e+12
6.34204e+11
3.22652e+11
2.06483e+11
1.71156e+11
7.94469e+10
3.86906e+18
1.16863e+18
-1.75374e+17
1.59742e+16
1.91738e+15
-1.2902e+14
3.87292e+12
1.60335e+13
1.29082e+13
1.21231e+13
1.03793e+13
7.92259e+12
5.17413e+12
2.7531e+12
1.0814e+12
-1.24607e+20
4.1699e+18
1.033e+18
-1.63905e+17
1.59331e+16
2.0708e+15
2.81466e+13
1.22421e+14
1.02876e+14
7.18609e+13
4.95015e+13
3.31627e+13
2.10098e+13
1.23458e+13
5.38189e+12
-4.64818e+19
-1.13419e+20
4.25857e+18
9.50071e+17
-1.57272e+17
1.31471e+16
-7.89796e+14
-2.9808e+15
-2.87522e+15
-2.6807e+15
-2.34736e+15
-1.90052e+15
-1.37238e+15
-8.50022e+14
-4.17142e+14
2.03971e+22
-7.32447e+19
-3.20013e+20
1.05655e+19
2.79337e+18
-6.16083e+17
-7.37363e+16
-8.6361e+16
-7.3594e+16
-5.55051e+16
-3.99133e+16
-2.86458e+16
-1.99849e+16
-1.37954e+16
-1.0455e+16
-2.05053e+23
1.90957e+22
2.06043e+19
-3.1713e+20
7.70959e+18
2.69441e+18
-8.13361e+17
-1.90614e+17
-1.57285e+17
-1.26581e+17
-8.7445e+16
-5.50673e+16
-3.51819e+16
-2.47303e+16
-1.51753e+16
-9.74029e+22
-1.79875e+23
1.81313e+22
-1.69365e+19
-3.20259e+20
3.94085e+18
3.43021e+18
-2.67335e+17
1.94176e+17
1.38433e+17
8.16357e+16
3.87796e+16
1.08897e+16
-1.26797e+15
-1.6281e+15
1.7192e+25
-1.9204e+23
-1.65022e+23
1.63916e+22
9.35437e+20
-3.3887e+20
-2.14825e+19
1.68936e+19
6.80312e+18
3.89047e+18
2.34795e+18
1.23162e+18
5.55397e+17
2.00617e+17
9.22382e+16
2.91161e+25
1.60388e+25
-2.30519e+23
-1.4739e+23
1.55787e+22
5.05362e+19
-1.69769e+20
2.52996e+19
1.29517e+19
6.71151e+18
4.4558e+18
2.93346e+18
1.80189e+18
9.15482e+17
4.63203e+17
1.74847e+25
-2.40534e+23
-1.6482e+23
1.90362e+22
3.44082e+20
-1.94104e+20
5.45892e+19
3.00007e+19
1.43946e+19
7.9584e+18
4.38523e+18
2.88904e+18
2.31157e+18
1.55877e+18
9.2078e+17
-6.73241e+22
-2.02628e+23
1.50726e+22
1.3261e+21
6.14244e+19
8.72304e+19
5.74793e+19
3.31883e+19
1.90485e+19
1.05896e+19
5.51228e+18
3.18644e+18
2.41677e+18
1.69143e+18
1.00684e+18
-1.46584e+23
-5.51156e+21
9.70447e+20
5.17159e+20
2.60606e+20
1.35846e+20
7.12675e+19
3.83454e+19
2.10961e+19
1.16439e+19
6.48386e+18
4.194e+18
2.28179e+18
1.06902e+18
3.83604e+17
8.02913e+21
1.60678e+21
5.74888e+20
2.47285e+20
1.07841e+20
4.95963e+19
2.38945e+19
1.1865e+19
5.85651e+18
3.01009e+18
1.68721e+18
1.38191e+18
-6.15176e+17
-3.15191e+17
-1.24325e+17
2.40893e+20
6.35526e+19
-6.08031e+18
-1.29371e+19
-1.08822e+19
-8.29455e+18
-6.18429e+18
-4.74853e+18
-5.06412e+18
-8.18321e+18
-1.07276e+18
5.64023e+17
6.56065e+16
9.59203e+15
5.91571e+15
-6.21382e+19
-2.04942e+19
-9.74742e+18
-5.66812e+18
-3.51958e+18
-2.31026e+18
-1.64974e+18
-1.24567e+18
-2.05545e+18
-6.75913e+18
-5.32344e+18
-2.27029e+18
-3.54605e+17
-1.46872e+17
-6.80124e+16
-9.3293e+17
-5.60517e+17
2.40154e+16
2.12252e+17
2.66029e+17
2.20949e+17
-3.26465e+16
-2.47669e+17
-2.75414e+17
-3.43547e+18
-4.69025e+18
-3.25936e+18
-1.95181e+18
-1.15916e+18
-6.72926e+17
8.67986e+17
3.39153e+17
1.34912e+17
6.6313e+16
3.77002e+16
1.95559e+16
1.16326e+16
5.92992e+15
-3.76886e+15
-4.06565e+16
-5.0081e+17
-7.18102e+17
-6.22537e+17
-4.68416e+17
-3.43354e+17
-9.54401e+16
-3.59294e+16
-1.74101e+16
-1.10382e+16
-8.03473e+15
-5.51919e+15
-2.285e+15
3.7622e+14
1.47253e+15
7.84862e+15
-1.01887e+16
-2.48956e+16
-2.58462e+16
-2.25775e+16
-1.94852e+16
2.38556e+15
6.33985e+14
7.49524e+14
7.25368e+14
6.90022e+14
5.85278e+14
2.66327e+14
-5.9486e+12
-1.61275e+14
-2.96391e+14
2.88967e+15
4.11664e+15
3.56999e+15
2.86701e+15
2.34013e+15
1.09246e+15
4.1503e+14
2.01998e+14
1.28551e+14
9.47932e+13
7.04141e+13
5.39063e+13
3.68563e+13
-2.92279e+12
-7.2225e+13
-1.75524e+14
-1.28526e+14
-7.29635e+13
-4.46166e+13
-3.04965e+13
-2.90156e+13
-7.8787e+12
-8.42922e+12
-8.4312e+12
-7.83608e+12
-5.46712e+12
4.52039e+11
6.45897e+12
1.21732e+13
1.52502e+13
-1.46297e+13
-3.34458e+13
-3.31854e+13
-2.75202e+13
-2.12899e+13
-1.23247e+13
-4.95916e+12
-1.968e+12
-9.47805e+11
-5.29879e+11
-3.16789e+11
-2.09376e+11
1.95757e+11
1.70375e+12
5.35707e+12
1.07029e+13
1.05787e+13
8.41311e+12
6.43871e+12
4.88496e+12
1.59525e+12
5.96816e+11
2.90319e+11
1.85801e+11
1.31491e+11
7.66189e+10
7.21136e+09
-5.9285e+10
-9.72339e+10
-6.25807e+09
3.11495e+11
4.47235e+11
4.0837e+11
3.30309e+11
2.5742e+11
-3.83111e+10
-1.18585e+10
-1.45197e+10
-1.40474e+10
-1.23451e+10
-8.1959e+09
-2.29168e+09
-1.49514e+09
-1.38716e+10
-4.83365e+10
-9.34544e+10
-9.47578e+10
-7.61033e+10
-5.62566e+10
-3.77441e+10
-2.06745e+10
-7.80518e+09
-3.62246e+09
-2.23607e+09
-1.6183e+09
-1.18113e+09
-7.138e+08
1.7493e+08
1.6835e+09
3.00113e+09
3.27202e+09
2.50013e+09
2.34451e+09
3.41453e+09
6.468e+09
9.6139e+08
3.289e+08
2.4488e+08
2.06846e+08
1.64247e+08
7.57092e+07
-6.95348e+07
-2.0582e+08
-2.33667e+08
3.05402e+07
4.87999e+08
7.24369e+08
1.05644e+09
2.07334e+09
4.5535e+09
1.92584e+08
7.7044e+07
2.8648e+07
1.26011e+07
6.55312e+06
4.13683e+06
1.13067e+06
-1.46177e+07
-6.08555e+07
-1.41733e+08
-2.06752e+08
-1.28487e+08
1.37738e+08
9.0719e+08
2.78303e+09
-2.78921e+07
-1.07728e+07
-5.13784e+06
-3.15891e+06
-2.14356e+06
-1.15963e+06
84161.4
1.44294e+06
2.25237e+06
304547
-5.49602e+06
-9.21215e+06
2.3322e+07
3.26661e+08
1.36634e+09
1.10547e+06
403167
303678
250179
204546
134970
49543.9
44603.5
258147
629426
879123
-174133
-3.53776e+06
-3.3665e+06
2.75308e+07
209065
83977.4
39059.9
23324.4
16578.7
12718.2
9124.02
4466.63
-23826.7
-361753
-994671
-1.883e+06
-3.49344e+06
-6.98905e+06
-1.3734e+07
-12651.2
-4734.07
-3210.39
-2543.48
-2001.77
-1149.01
786.633
8174.79
216.494
-396368
-1.14768e+06
-2.15566e+06
-3.57916e+06
-5.72242e+06
-9.08399e+06
-1613.18
-691.313
-268.952
-123.946
-68.6721
-22.5724
625.682
7409.5
-2693.78
-477628
-1.35784e+06
-2.55479e+06
-4.24151e+06
-6.60624e+06
-9.82457e+06
232.256
91.267
51.7101
37.4901
29.6227
46.3008
699.125
8481.23
-4348.87
-509158
-1.44105e+06
-2.80442e+06
-4.77537e+06
-7.57899e+06
-1.14249e+07
8.31572
4.85288
0.238453
-1.5678
-1.85759
22.4963
731.34
9948.35
-4745.06
-424242
-1.23109e+06
-2.49631e+06
-4.41195e+06
-7.20561e+06
-1.11156e+07
-5.74831
-2.58564
-1.34969
-0.994081
-0.753758
20.638
749.482
11737.6
22983.6
-239592
-838856
-1.78422e+06
-3.19859e+06
-5.2552e+06
-8.14296e+06
0.397533
0.106841
-0.0336249
-0.238686
-0.436101
16.5167
715.122
13907.8
33957.8
-71823.8
-405342
-932596
-1.69088e+06
-2.76397e+06
-4.25063e+06
-0.00283586
-0.0661255
-0.161988
-0.365336
-0.690085
12.2037
627.785
16120.4
39354.2
25664.2
-76525.6
-270937
-565892
-979646
-1.54624e+06
-0.0396239
-0.0944015
-0.194371
-0.415985
-0.841513
9.29193
535.344
19377.3
42219.6
53006.2
43325.3
5394.91
-66730.2
-178214
-340689
-0.0399645
-0.108671
-0.227719
-0.478588
-1.01541
7.3126
539.272
16039.8
36721.2
51126.6
61614.7
67298
66463.1
57115.7
35848.3
-0.0474554
-0.130502
-0.27433
-0.56441
-1.23707
4.56713
560.91
10277.3
24002.6
35059.8
45497
55514.1
65440.2
75348.2
84440.4
-0.0552681
-0.153917
-0.325248
-0.658477
-1.45354
0.95005
620.676
5904.44
11930.2
17521
23158.2
29010.2
35427.8
42616.5
50459.6
-0.0632167
-0.178023
-0.377664
-0.755166
-1.64336
-2.46671
385.564
2366.24
4399.81
6409.46
8467.8
10717.4
13295.1
16242.2
19540
-0.0722396
-0.20553
-0.437633
-0.866224
-1.8333
-4.14083
62.7257
597.857
1148.26
1676.55
2216.94
2821.84
3534.9
4360.87
5291.83
-0.0822439
-0.23681
-0.507908
-1.00188
-2.06292
-4.59431
6.00439
71.2135
157.696
246.961
340.37
449.623
579.269
728.898
898.396
-0.0928864
-0.270332
-0.583868
-1.15417
-2.40204
-5.41431
-10.7822
-13.6068
-12.6865
-9.23742
-3.87884
3.27203
12.4473
23.8421
37.7195
-0.101216
-0.306102
-0.683669
-1.37114
-2.65321
-4.75687
-7.46574
-9.90436
-11.9547
-13.7781
-15.4286
-17.0563
-18.6716
-20.2069
-21.5837
-0.0772686
-0.252112
-0.559319
-1.02189
-1.64719
-2.38287
-3.03511
-3.44286
-3.72093
-4.00506
-4.31993
-4.68084
-5.08249
-5.5068
-5.94071
-0.0276823
-0.123338
-0.282606
-0.486611
-0.699594
-0.885845
-1.00783
-1.05319
-1.05365
-1.04598
-1.04204
-1.04236
-1.04581
-1.05117
-1.05812
0.010993
-0.0145158
-0.0610906
-0.116611
-0.168226
-0.209351
-0.236559
-0.249618
-0.252715
-0.251063
-0.247343
-0.242106
-0.23534
-0.227225
-0.218042
0.0160727
0.0168458
0.0115842
0.00353475
-0.0051859
-0.0131211
-0.0196316
-0.0245097
-0.0279253
-0.0302759
-0.0318608
-0.0328058
-0.0331756
-0.0330397
-0.0324529
0.006398
0.00909961
0.0100199
0.00977075
0.00877017
0.00748842
0.00616631
0.00493275
0.00385673
0.00294757
0.00218204
0.00153532
0.000990148
0.000535158
0.000165454
0.000811154
0.00156374
0.00200674
0.00219603
0.00220567
0.00211315
0.00196313
0.00178966
0.00162243
0.00147281
0.00133662
0.00120918
0.00108905
0.000976443
0.000871817
-0.000175363
-8.68956e-05
6.12532e-06
7.2192e-05
0.000114521
0.000138889
0.000150023
0.000152088
0.000149911
0.00014627
0.000141141
0.00013453
0.000126823
0.000118444
0.000109623
-8.03857e-05
-7.70027e-05
-6.32793e-05
-5.04688e-05
-3.94665e-05
-3.05412e-05
-2.34819e-05
-1.79577e-05
-1.37597e-05
-1.06111e-05
-8.17512e-06
-6.23815e-06
-4.68651e-06
-3.44629e-06
-2.48245e-06
-1.50774e-05
-1.44635e-05
-1.23462e-05
-1.04453e-05
-8.75412e-06
-7.29899e-06
-6.07103e-06
-5.08054e-06
-4.32051e-06
-3.72765e-06
-3.23441e-06
-2.80684e-06
-2.43147e-06
-2.10133e-06
-1.81355e-06
-2.33102e-06
-1.93325e-06
-1.45327e-06
-1.12668e-06
-8.92252e-07
-7.182e-07
-5.85439e-07
-4.85927e-07
-4.12916e-07
-3.56621e-07
-3.09776e-07
-2.69135e-07
-2.33377e-07
-2.01893e-07
-1.74409e-07
-2.96358e-07
-2.31076e-07
-1.57726e-07
-1.08107e-07
-7.57253e-08
-5.44414e-08
-4.02044e-08
-3.07095e-08
-2.42892e-08
-1.96518e-08
-1.60726e-08
-1.32131e-08
-1.08946e-08
-9.01142e-09
-7.46679e-09
2.85048e-08
1.07715e-08
2.61894e-09
-6.58649e-10
-1.46e-09
-1.41805e-09
-1.17957e-09
-9.44169e-10
-7.28055e-10
-5.2819e-10
-3.55481e-10
-2.17869e-10
-1.14869e-10
-4.27919e-11
1.14785e-11
3.22903e-08
1.65751e-08
9.16463e-09
5.30264e-09
3.2519e-09
2.08726e-09
1.39647e-09
9.75432e-10
7.09543e-10
5.32475e-10
4.08148e-10
3.17481e-10
2.49715e-10
1.98163e-10
1.59613e-10
7.5278e-09
3.97916e-09
2.11372e-09
1.31785e-09
8.76605e-10
6.07255e-10
4.37578e-10
3.27604e-10
2.51506e-10
1.95436e-10
1.52694e-10
1.19686e-10
9.40536e-11
7.4114e-11
5.86394e-11
-7.1816e-10
5.57847e-11
8.07963e-11
7.60611e-11
6.04482e-11
4.73957e-11
3.80244e-11
3.11698e-11
2.56796e-11
2.10778e-11
1.72292e-11
1.40427e-11
1.14192e-11
9.27267e-12
7.50993e-12
-6.78925e-10
-2.31256e-10
-7.13427e-11
-2.7297e-11
-1.24982e-11
-6.48067e-12
-3.74184e-12
-2.37272e-12
-1.61156e-12
-1.13392e-12
-8.05825e-13
-5.7208e-13
-4.04397e-13
-2.84469e-13
-2.02296e-13
-2.56135e-11
-3.53068e-11
-1.58829e-11
-8.06801e-12
-4.29934e-12
-2.43776e-12
-1.48244e-12
-9.61162e-13
-6.52779e-13
-4.57342e-13
-3.28823e-13
-2.4222e-13
-1.82194e-13
-1.3956e-13
-1.08499e-13
4.54434e-11
1.35935e-11
3.08578e-12
4.68002e-13
-1.58008e-13
-2.74196e-13
-2.53223e-13
-1.99751e-13
-1.46715e-13
-1.04254e-13
-7.32455e-14
-5.14092e-14
-3.62257e-14
-2.57234e-14
-1.82697e-14
6.28724e-12
3.87571e-12
1.63448e-12
7.44745e-13
3.53786e-13
1.72486e-13
8.46761e-14
4.0702e-14
1.81534e-14
6.5731e-15
8.84783e-16
-1.62737e-15
-2.49644e-15
-2.55698e-15
-2.25709e-15
-1.58551e-12
-4.1254e-13
-5.14266e-14
3.19732e-14
4.35257e-14
3.83e-14
3.0053e-14
2.23476e-14
1.60439e-14
1.12463e-14
7.76619e-15
5.31076e-15
3.60744e-15
2.44647e-15
1.65107e-15
-4.25684e-13
-2.25932e-13
-9.92881e-14
-4.6602e-14
-2.29602e-14
-1.16686e-14
-6.01287e-15
-3.06402e-15
-1.47778e-15
-6.20665e-16
-1.71864e-16
4.61846e-17
1.37316e-16
1.62417e-16
1.54439e-16
-1.0076e-14
-1.29766e-14
-9.19222e-15
-6.21302e-15
-4.22551e-15
-2.93672e-15
-2.08141e-15
-1.49166e-15
-1.06917e-15
-7.62257e-16
-5.40118e-16
-3.80726e-16
-2.67471e-16
-1.87852e-16
-1.32374e-16
4.80408e-15
2.5262e-15
1.14073e-15
5.44445e-16
2.68755e-16
1.33117e-16
6.33729e-17
2.64263e-17
6.72168e-18
-3.38942e-18
-7.99536e-18
-9.48457e-18
-9.32659e-18
-8.42539e-18
-7.27423e-18
3.72199e-16
2.54408e-16
1.49888e-16
9.3879e-17
6.21346e-17
4.30092e-17
3.07802e-17
2.25008e-17
1.65828e-17
1.22221e-17
8.9806e-18
6.57786e-18
4.81061e-18
3.52443e-18
2.60353e-18
3.7716e-18
2.82922e-18
1.83177e-18
1.24952e-18
8.92825e-19
6.61777e-19
5.03788e-19
3.89844e-19
3.03226e-19
2.35334e-19
1.81735e-19
1.397e-19
1.07132e-19
8.23034e-20
6.37345e-20
5.55155e-21
3.322e-21
1.80237e-21
1.04681e-21
6.52954e-22
4.31124e-22
2.96871e-22
2.10283e-22
1.51153e-22
1.09261e-22
7.91291e-23
5.74032e-23
4.17807e-23
3.06145e-23
2.27126e-23
6.63415e-22
2.83328e-22
1.25399e-22
6.43224e-23
3.74368e-23
2.38557e-23
1.62045e-23
1.14702e-23
8.29402e-24
6.04752e-24
4.42177e-24
3.23878e-24
2.3798e-24
1.76041e-24
1.31842e-24
9.90121e-23
4.54918e-23
1.82281e-23
8.44272e-24
4.34342e-24
2.42077e-24
1.43658e-24
8.92292e-25
5.71046e-25
3.72785e-25
2.47142e-25
1.66124e-25
1.13124e-25
7.81302e-26
5.49686e-26
-2.88104e-25
1.47001e-24
1.05272e-24
7.09899e-25
4.73419e-25
3.18558e-25
2.16834e-25
1.48669e-25
1.0208e-25
7.008e-26
4.81744e-26
3.32311e-26
2.30656e-26
1.6176e-26
1.14442e-26
-1.94244e-24
-9.01745e-25
-3.66102e-25
-1.63341e-25
-7.87105e-26
-4.06083e-26
-2.22177e-26
-1.27382e-26
-7.56232e-27
-4.60512e-27
-2.85853e-27
-1.79983e-27
-1.14367e-27
-7.29871e-28
-4.7726e-28
-2.23708e-25
-1.26442e-25
-6.19742e-26
-3.23846e-26
-1.83038e-26
-1.10766e-26
-7.06831e-27
-4.67815e-27
-3.1639e-27
-2.16775e-27
-1.49957e-27
-1.04635e-27
-7.36453e-28
-5.23104e-28
-3.7577e-28
-3.51321e-26
-1.28532e-26
-5.07695e-27
-2.29912e-27
-1.21738e-27
-7.22274e-28
-4.63669e-28
-3.12983e-28
-2.171e-28
-1.5277e-28
-1.08543e-28
-7.77507e-29
-5.61353e-29
-4.0857e-29
-3.00109e-29
-7.16597e-27
-2.50341e-27
-8.09589e-28
-3.19899e-28
-1.48071e-28
-7.64232e-29
-4.27348e-29
-2.52785e-29
-1.55081e-29
-9.75345e-30
-6.25392e-30
-4.07432e-30
-2.69281e-30
-1.80977e-30
-1.23947e-30
-1.7799e-29
-7.24484e-29
-3.54091e-29
-2.35225e-29
-1.53203e-29
-9.90082e-30
-6.43694e-30
-4.20605e-30
-2.7574e-30
-1.81885e-30
-1.20884e-30
-8.08871e-31
-5.45565e-31
-3.71986e-31
-2.53803e-31
2.28907e-28
8.05679e-29
2.72128e-29
1.04389e-29
4.57022e-30
2.23283e-30
1.19199e-30
6.81736e-31
4.09867e-31
2.55148e-31
1.62832e-31
1.0579e-31
6.97074e-32
4.66208e-32
3.21852e-32
3.21394e-29
1.3198e-29
4.9629e-30
2.22394e-30
1.13792e-30
6.40539e-31
3.8562e-31
2.42647e-31
1.57132e-31
1.03943e-31
6.99e-32
4.75584e-32
3.26714e-32
2.2665e-32
1.5866e-32
4.4707e-31
2.77242e-31
1.2956e-31
7.79515e-32
4.99471e-32
3.29567e-32
2.21819e-32
1.51067e-32
1.03795e-32
7.20475e-33
5.05016e-33
3.56516e-33
2.53097e-33
1.80431e-33
1.28251e-33
-3.50078e-31
-1.33981e-31
-4.9382e-32
-2.02644e-32
-9.43947e-33
-4.91338e-33
-2.78682e-33
-1.67931e-33
-1.05417e-33
-6.81035e-34
-4.4942e-34
-3.01254e-34
-2.04351e-34
-1.399e-34
-9.71919e-35
-6.41363e-32
-2.38291e-32
-8.4525e-33
-3.47794e-33
-1.657e-33
-8.88579e-34
-5.18966e-34
-3.2094e-34
-2.06186e-34
-1.36103e-34
-9.16947e-35
-6.27557e-35
-4.34536e-35
-3.03141e-35
-2.12997e-35
-8.07271e-33
-2.93445e-33
-1.00433e-33
-4.06806e-34
-1.92995e-34
-1.03297e-34
-6.00628e-35
-3.68781e-35
-2.34839e-35
-1.53493e-35
-1.02337e-35
-6.934e-36
-4.75508e-36
-3.28305e-36
-2.27734e-36
-7.77574e-34
-2.56722e-34
-8.23849e-35
-3.26605e-35
-1.56063e-35
-8.45574e-36
-4.9626e-36
-3.06607e-36
-1.96182e-36
-1.2882e-36
-8.62911e-37
-5.86844e-37
-4.03084e-37
-2.78001e-37
-1.91765e-37
-5.15519e-35
-1.39113e-35
-3.62632e-36
-1.41155e-36
-7.03942e-37
-3.91827e-37
-2.31589e-37
-1.42425e-37
-9.02514e-38
-5.86074e-38
-3.88083e-38
-2.60682e-38
-1.76613e-38
-1.19972e-38
-8.10673e-39
4.29465e-36
1.36925e-36
4.37069e-37
1.27908e-37
4.04854e-38
1.44681e-38
5.83243e-39
2.61916e-39
1.28295e-39
6.72252e-40
3.75327e-40
2.2648e-40
1.51396e-40
1.12459e-40
9.66288e-41
1.86621e-36
5.34294e-37
1.49991e-37
5.05778e-38
2.09059e-38
1.00841e-38
5.40686e-39
3.11556e-39
1.88784e-39
1.18629e-39
7.65484e-40
5.03493e-40
3.3561e-40
2.2547e-40
1.52603e-40
2.16595e-37
5.93135e-38
1.5848e-38
5.6535e-39
2.52605e-39
1.2965e-39
7.26487e-40
4.32172e-40
2.68359e-40
1.71957e-40
1.12631e-40
7.4778e-41
4.99587e-41
3.33886e-41
2.22425e-41
4.94861e-39
9.91805e-40
1.7864e-40
1.01225e-40
6.58677e-41
4.13559e-41
2.59515e-41
1.65696e-41
1.07991e-41
7.16033e-42
4.79805e-42
3.2233e-42
2.15405e-42
1.42425e-42
9.24003e-43
-2.04203e-39
-5.71671e-40
-1.55962e-40
-4.83513e-41
-1.83015e-41
-8.24133e-42
-4.20875e-42
-2.34542e-42
-1.38906e-42
-8.59436e-43
-5.49175e-43
-3.59119e-43
-2.38376e-43
-1.59495e-43
-1.07839e-43
-3.58171e-40
-8.99248e-41
-2.24732e-41
-7.19456e-42
-2.91896e-42
-1.39958e-42
-7.50531e-43
-4.34339e-43
-2.64973e-43
-1.67742e-43
-1.08915e-43
-7.17821e-44
-4.75782e-44
-3.1514e-44
-2.08573e-44
-2.85987e-41
-6.47826e-42
-1.49204e-42
-4.91403e-43
-2.09037e-43
-1.03896e-43
-5.71597e-44
-3.37212e-44
-2.08814e-44
-1.33693e-44
-8.74624e-45
-5.78225e-45
-3.8257e-45
-2.51895e-45
-1.64999e-45
-4.98559e-43
-7.22586e-44
-1.15392e-44
-6.70765e-45
-4.04451e-45
-2.39125e-45
-1.45068e-45
-9.11073e-46
-5.89029e-46
-3.88659e-46
-2.59262e-46
-1.73028e-46
-1.14547e-46
-7.49394e-47
-4.83782e-47
8.42875e-44
2.48014e-44
6.18839e-45
1.67991e-45
5.69449e-46
2.40277e-46
1.18357e-46
6.47253e-47
3.80304e-47
2.35031e-47
1.50512e-47
9.858e-48
6.5269e-48
4.33256e-48
2.88693e-48