/*--------------------------------*- C++ -*----------------------------------*\
  =========                 |
  \\      /  F ield         | OpenFOAM: The Open Source CFD Toolbox
   \\    /   O peration     | Website:  https://openfoam.org
    \\  /    A nd           | Version:  8
     \\/     M anipulation  |
\*---------------------------------------------------------------------------*/
FoamFile
{
    version     2.0;
    format      ascii;
    class       volScalarField;
    location    "750";
    object      epsilon;
}
// * * * * * * * * * * * * * * * * * * * * * * * * * * * * * * * * * * * * * //

dimensions      [0 2 -3 0 0 0 0];

internalField   nonuniform List<scalar> 
7320
(
11607.3
10157.7
9314.43
8772.21
8390.2
8102.79
7875.93
7690.7
7535.77
7403.76
7289.61
7189.73
7101.46
7022.84
6952.31
6888.69
6831
6778.46
6730.43
6686.38
6645.85
6608.48
6573.93
6541.93
6512.24
6484.64
6458.97
6435.04
6412.73
6391.9
6372.44
6354.26
6337.25
6321.34
6306.45
6292.52
6279.48
6267.28
6255.87
6245.2
6235.23
6225.91
6217.22
6209.11
6201.57
6194.55
6188.03
6182
6176.41
6171.26
6166.53
6162.19
6158.23
6154.64
6151.39
6148.48
6145.89
6143.61
6141.63
6139.93
6138.51
6137.35
6136.44
6135.78
6135.35
6135.14
6135.14
6135.35
6135.75
6136.34
6137.1
6138.04
6139.13
6140.38
6141.77
6143.3
6144.97
6146.76
6148.67
6150.7
6152.84
6155.08
6157.43
6159.88
6162.41
6165.04
6167.76
6170.57
6173.45
6176.42
6179.46
6182.58
6185.78
6189.05
6192.39
6195.79
6199.27
6202.8
6206.41
6210.08
6213.81
6217.59
6221.44
6225.34
6229.29
6233.3
6237.35
6241.46
6245.6
6249.79
6254.02
6258.28
6262.58
6266.9
6271.26
6275.64
6280.03
6284.45
6288.87
6293.31
6297.63
6302.03
3749.32
3919.37
3598.69
3368.86
3210.19
3093.2
3002.11
2928.43
2867.18
2815.25
2770.5
2731.45
2697.02
2666.41
2638.99
2614.29
2591.92
2571.56
2552.97
2535.93
2520.26
2505.82
2492.48
2480.12
2468.66
2458.02
2448.11
2438.89
2430.29
2422.26
2414.76
2407.75
2401.19
2395.06
2389.33
2383.96
2378.93
2374.23
2369.83
2365.72
2361.87
2358.28
2354.93
2351.8
2348.89
2346.18
2343.66
2341.33
2339.17
2337.17
2335.34
2333.66
2332.12
2330.72
2329.46
2328.32
2327.31
2326.41
2325.63
2324.96
2324.39
2323.91
2323.54
2323.26
2323.07
2322.96
2322.93
2322.98
2323.1
2323.29
2323.55
2323.88
2324.27
2324.72
2325.22
2325.78
2326.4
2327.06
2327.77
2328.52
2329.32
2330.17
2331.05
2331.98
2332.94
2333.94
2334.97
2336.04
2337.15
2338.28
2339.45
2340.65
2341.89
2343.15
2344.44
2345.76
2347.1
2348.48
2349.88
2351.3
2352.75
2354.23
2355.72
2357.24
2358.79
2360.35
2361.93
2363.53
2365.15
2366.78
2368.43
2370.1
2371.77
2373.46
2375.16
2376.86
2378.57
2380.29
2382.01
2383.73
2385.42
2387.12
1528.99
1989.05
1884.98
1770.23
1685.89
1623.05
1574.14
1534.67
1501.95
1474.25
1450.43
1429.67
1411.39
1395.16
1380.63
1367.55
1355.71
1344.94
1335.11
1326.11
1317.83
1310.2
1303.16
1296.64
1290.59
1284.98
1279.75
1274.89
1270.35
1266.11
1262.16
1258.47
1255.01
1251.78
1248.75
1245.92
1243.27
1240.79
1238.47
1236.3
1234.28
1232.38
1230.61
1228.96
1227.42
1225.99
1224.66
1223.43
1222.29
1221.23
1220.26
1219.37
1218.56
1217.82
1217.14
1216.54
1216
1215.52
1215.1
1214.74
1214.44
1214.19
1213.99
1213.84
1213.73
1213.67
1213.66
1213.68
1213.75
1213.85
1213.99
1214.17
1214.38
1214.62
1214.89
1215.19
1215.52
1215.87
1216.25
1216.65
1217.08
1217.53
1218
1218.49
1219
1219.52
1220.07
1220.63
1221.21
1221.81
1222.42
1223.05
1223.69
1224.34
1225.01
1225.69
1226.39
1227.09
1227.81
1228.54
1229.28
1230.03
1230.79
1231.56
1232.34
1233.13
1233.93
1234.73
1235.54
1236.36
1237.18
1238.01
1238.84
1239.68
1240.52
1241.36
1242.2
1243.04
1243.89
1244.73
1245.55
1246.37
720.941
1168.15
1165.72
1105.65
1054.38
1014.75
983.61
958.429
937.557
919.91
904.751
891.558
879.953
869.656
860.45
852.168
844.676
837.868
831.656
825.967
820.741
815.927
811.482
807.369
803.556
800.014
796.721
793.654
790.795
788.127
785.635
783.306
781.129
779.092
777.186
775.403
773.733
772.171
770.709
769.341
768.063
766.868
765.752
764.711
763.74
762.836
761.996
761.217
760.495
759.828
759.213
758.648
758.131
757.659
757.232
756.848
756.504
756.2
755.933
755.703
755.509
755.348
755.22
755.123
755.057
755.02
755.01
755.027
755.07
755.136
755.227
755.339
755.473
755.627
755.8
755.991
756.2
756.425
756.665
756.92
757.189
757.471
757.765
758.071
758.389
758.717
759.056
759.404
759.762
760.128
760.502
760.885
761.275
761.673
762.078
762.489
762.907
763.331
763.761
764.196
764.637
765.082
765.533
765.988
766.447
766.909
767.376
767.845
768.317
768.792
769.269
769.748
770.227
770.708
771.19
771.671
772.153
772.634
773.113
773.592
774.059
774.524
358.82
725.629
779.829
754.392
722.982
696.536
675.147
657.664
643.11
630.786
620.195
610.98
602.879
595.694
589.274
583.502
578.284
573.544
569.221
565.264
561.63
558.284
555.195
552.337
549.689
547.229
544.943
542.813
540.829
538.977
537.247
535.631
534.12
532.707
531.384
530.146
528.987
527.902
526.887
525.937
525.049
524.219
523.443
522.719
522.044
521.415
520.83
520.287
519.784
519.318
518.889
518.494
518.132
517.803
517.503
517.234
516.993
516.779
516.591
516.43
516.293
516.179
516.089
516.021
515.974
515.948
515.941
515.952
515.981
516.028
516.09
516.168
516.261
516.367
516.487
516.618
516.762
516.916
517.081
517.255
517.438
517.63
517.829
518.036
518.25
518.471
518.697
518.93
519.168
519.411
519.659
519.911
520.168
520.429
520.693
520.961
521.233
521.508
521.786
522.066
522.35
522.636
522.924
523.215
523.507
523.801
524.097
524.394
524.693
524.992
525.292
525.593
525.894
526.196
526.497
526.798
527.099
527.399
527.698
527.997
528.289
528.577
180.95
454.606
539.365
539.228
522.289
504.944
489.985
477.422
466.83
457.801
450.016
443.23
437.258
431.96
427.225
422.969
419.121
415.626
412.44
409.523
406.846
404.381
402.106
400.001
398.051
396.241
394.557
392.99
391.529
390.166
388.893
387.704
386.592
385.551
384.577
383.666
382.813
382.014
381.266
380.566
379.912
379.3
378.728
378.194
377.695
377.231
376.799
376.397
376.025
375.68
375.362
375.069
374.801
374.556
374.333
374.132
373.953
373.793
373.653
373.532
373.43
373.344
373.276
373.225
373.189
373.168
373.161
373.168
373.188
373.221
373.265
373.321
373.387
373.463
373.548
373.642
373.744
373.854
373.971
374.094
374.224
374.359
374.499
374.645
374.795
374.949
375.107
375.268
375.433
375.601
375.772
375.946
376.122
376.301
376.481
376.664
376.849
377.035
377.224
377.413
377.605
377.797
377.991
378.186
378.382
378.579
378.777
378.976
379.175
379.375
379.575
379.776
379.977
380.178
380.379
380.58
380.782
380.982
381.183
381.383
381.581
381.774
91.0616
278.177
374.321
393.387
388.302
378.207
368.135
359.167
351.387
344.653
338.793
333.658
329.123
325.091
321.482
318.234
315.297
312.628
310.193
307.964
305.918
304.034
302.295
300.686
299.195
297.811
296.524
295.326
294.209
293.167
292.194
291.284
290.434
289.638
288.893
288.195
287.542
286.931
286.358
285.823
285.321
284.852
284.413
284.004
283.621
283.265
282.933
282.624
282.337
282.072
281.827
281.601
281.394
281.204
281.032
280.877
280.737
280.613
280.504
280.41
280.33
280.263
280.209
280.167
280.138
280.12
280.113
280.116
280.129
280.151
280.182
280.222
280.269
280.324
280.386
280.454
280.527
280.607
280.691
280.78
280.873
280.971
281.071
281.176
281.283
281.393
281.505
281.62
281.738
281.857
281.978
282.1
282.225
282.35
282.477
282.606
282.735
282.866
282.998
283.13
283.264
283.399
283.534
283.67
283.807
283.944
284.083
284.221
284.361
284.501
284.641
284.782
284.923
285.065
285.207
285.349
285.492
285.635
285.778
285.922
286.065
286.204
46.0967
162.189
254.261
286.985
292.083
288.344
282.427
276.399
270.841
265.871
261.463
257.552
254.072
250.96
248.165
245.642
243.355
241.274
239.374
237.632
236.033
234.559
233.197
231.938
230.77
229.686
228.677
227.738
226.862
226.045
225.281
224.568
223.9
223.275
222.69
222.142
221.629
221.149
220.699
220.277
219.883
219.514
219.168
218.846
218.544
218.263
218.001
217.757
217.531
217.321
217.127
216.948
216.783
216.633
216.496
216.372
216.261
216.162
216.074
215.998
215.933
215.879
215.834
215.799
215.774
215.758
215.75
215.75
215.757
215.772
215.793
215.821
215.855
215.894
215.938
215.988
216.041
216.099
216.16
216.225
216.293
216.363
216.436
216.512
216.59
216.669
216.751
216.834
216.919
217.005
217.092
217.18
217.27
217.36
217.452
217.544
217.637
217.731
217.826
217.921
218.017
218.114
218.212
218.31
218.409
218.508
218.608
218.709
218.811
218.913
219.015
219.119
219.223
219.327
219.433
219.539
219.646
219.753
219.862
219.971
220.081
220.188
24.139
88.6484
164.986
205.253
218.887
220.976
218.885
215.492
211.862
208.378
205.161
202.236
199.59
197.197
195.031
193.064
191.273
189.637
188.14
186.765
185.499
184.331
183.251
182.251
181.323
180.461
179.658
178.91
178.212
177.561
176.952
176.382
175.849
175.35
174.883
174.445
174.035
173.65
173.29
172.953
172.637
172.341
172.064
171.805
171.563
171.337
171.126
170.93
170.748
170.579
170.422
170.277
170.145
170.023
169.912
169.811
169.72
169.639
169.568
169.505
169.451
169.406
169.368
169.338
169.316
169.301
169.292
169.289
169.293
169.302
169.316
169.335
169.358
169.386
169.418
169.453
169.492
169.534
169.579
169.626
169.675
169.727
169.781
169.836
169.893
169.951
170.011
170.072
170.134
170.197
170.261
170.325
170.391
170.457
170.524
170.592
170.661
170.73
170.799
170.87
170.941
171.013
171.085
171.158
171.232
171.306
171.381
171.457
171.533
171.611
171.689
171.767
171.847
171.928
172.009
172.092
172.175
172.26
172.345
172.432
172.521
172.607
13.5084
45.5623
99.8141
140.768
160.687
168.047
169.612
168.74
166.918
164.789
162.633
160.564
158.629
156.839
155.192
153.678
152.288
151.01
149.834
148.749
147.746
146.819
145.959
145.161
144.42
143.729
143.086
142.486
141.925
141.401
140.911
140.452
140.022
139.62
139.243
138.889
138.557
138.246
137.955
137.682
137.425
137.185
136.961
136.751
136.554
136.37
136.199
136.039
135.89
135.752
135.624
135.506
135.397
135.298
135.206
135.123
135.049
134.982
134.922
134.87
134.824
134.786
134.754
134.728
134.707
134.693
134.683
134.679
134.68
134.684
134.693
134.705
134.722
134.741
134.764
134.789
134.817
134.848
134.88
134.915
134.951
134.989
135.029
135.069
135.111
135.155
135.199
135.244
135.29
135.337
135.384
135.433
135.481
135.531
135.581
135.632
135.683
135.735
135.788
135.841
135.895
135.949
136.004
136.06
136.116
136.174
136.231
136.29
136.349
136.41
136.471
136.533
136.596
136.66
136.725
136.791
136.858
136.927
136.996
137.067
137.141
137.212
8.23297
22.8776
55.2867
90.2281
113.178
124.85
129.856
131.463
131.425
130.618
129.473
128.204
126.919
125.67
124.481
123.362
122.317
121.343
120.436
119.594
118.81
118.08
117.401
116.769
116.178
115.627
115.113
114.631
114.181
113.759
113.364
112.994
112.647
112.321
112.016
111.729
111.46
111.207
110.97
110.747
110.539
110.343
110.16
109.988
109.827
109.677
109.537
109.406
109.284
109.171
109.065
108.968
108.878
108.796
108.721
108.652
108.59
108.534
108.484
108.44
108.402
108.369
108.341
108.318
108.3
108.286
108.277
108.271
108.269
108.271
108.276
108.284
108.295
108.308
108.324
108.342
108.363
108.385
108.409
108.434
108.461
108.489
108.519
108.549
108.58
108.613
108.646
108.68
108.715
108.75
108.786
108.822
108.859
108.897
108.935
108.974
109.013
109.053
109.094
109.135
109.176
109.218
109.261
109.305
109.349
109.394
109.44
109.486
109.533
109.581
109.63
109.68
109.731
109.783
109.836
109.89
109.945
110.001
110.059
110.118
110.179
110.24
5.47937
11.9932
28.2309
52.6649
74.495
88.7635
96.7042
100.69
102.44
102.969
102.841
102.365
101.714
100.983
100.226
99.4734
98.7428
98.0428
97.3776
96.7488
96.1563
95.5991
95.0758
94.5845
94.1235
93.6908
93.2848
92.9036
92.5457
92.2096
91.8938
91.5971
91.3183
91.0562
90.8098
90.5782
90.3605
90.1558
89.9635
89.7829
89.6132
89.454
89.3045
89.1644
89.0332
88.9103
88.7954
88.6881
88.5881
88.495
88.4085
88.3284
88.2544
88.1863
88.1239
88.0669
88.0152
87.9686
87.9269
87.8899
87.8574
87.8293
87.8054
87.7855
87.7693
87.7568
87.7477
87.7418
87.7389
87.7388
87.7413
87.7461
87.7532
87.7625
87.7737
87.7867
87.8014
87.8177
87.8353
87.8542
87.8743
87.8955
87.9176
87.9406
87.9644
87.989
88.0142
88.0402
88.0667
88.0938
88.1214
88.1496
88.1782
88.2074
88.2371
88.2672
88.2979
88.3291
88.3608
88.3931
88.4259
88.4592
88.4932
88.5278
88.563
88.5989
88.6355
88.6729
88.711
88.7498
88.7896
88.8302
88.8717
88.9142
88.9577
89.0023
89.048
89.0948
89.1429
89.1923
89.2437
89.295
3.95841
6.92866
14.0447
27.7128
44.4801
58.7408
68.535
74.555
78.0226
79.9011
80.8188
81.1603
81.1575
80.9504
80.6246
80.2329
79.8081
79.3708
78.9339
78.5054
78.0901
77.6909
77.3092
76.9458
76.6006
76.2734
75.9636
75.6707
75.3939
75.1325
74.8858
74.6529
74.4332
74.2259
74.0305
73.8463
73.6727
73.5091
73.3551
73.2101
73.0737
72.9454
72.8248
72.7116
72.6053
72.5057
72.4125
72.3253
72.2439
72.1681
72.0975
72.0321
71.9716
71.9158
71.8645
71.8177
71.7751
71.7366
71.702
71.6712
71.6441
71.6205
71.6003
71.5832
71.5693
71.5582
71.5499
71.5442
71.5409
71.5399
71.5409
71.5439
71.5486
71.5551
71.5631
71.5727
71.5835
71.5957
71.6089
71.6233
71.6385
71.6547
71.6717
71.6894
71.7078
71.7268
71.7465
71.7666
71.7873
71.8085
71.8302
71.8523
71.8749
71.8979
71.9214
71.9453
71.9697
71.9945
72.0198
72.0456
72.0719
72.0987
72.126
72.1539
72.1824
72.2115
72.2412
72.2715
72.3025
72.3343
72.3668
72.4
72.4341
72.469
72.5049
72.5417
72.5795
72.6183
72.6582
72.6993
72.7422
72.7855
3.07723
4.48267
7.4297
13.6627
23.6765
35.0257
44.8492
52.0825
56.9685
60.1185
62.0853
63.271
63.946
64.2875
64.4108
64.3915
64.2795
64.1082
63.8999
63.6697
63.4282
63.1823
62.937
62.6954
62.4598
62.2316
62.0117
61.8006
61.5987
61.4058
61.2221
61.0473
60.8811
60.7234
60.5739
60.4322
60.298
60.1711
60.0512
59.9379
59.831
59.7302
59.6352
59.5457
59.4617
59.3827
59.3086
59.2392
59.1743
59.1138
59.0574
59.005
58.9565
58.9117
58.8705
58.8328
58.7984
58.7673
58.7393
58.7144
58.6923
58.6731
58.6565
58.6425
58.631
58.6218
58.6147
58.6098
58.6068
58.6057
58.6062
58.6083
58.6117
58.6165
58.6226
58.6299
58.6383
58.6477
58.6581
58.6693
58.6813
58.694
58.7074
58.7214
58.736
58.7511
58.7668
58.7829
58.7994
58.8164
58.8338
58.8516
58.8698
58.8883
58.9073
58.9266
58.9464
58.9665
58.987
59.0079
59.0293
59.0511
59.0734
59.0961
59.1194
59.1431
59.1674
59.1922
59.2176
59.2435
59.2702
59.2974
59.3254
59.3541
59.3835
59.4137
59.4448
59.4767
59.5095
59.5434
59.5788
59.6149
2.55068
3.21778
4.43832
6.94254
11.6103
18.4647
26.1707
33.1843
38.7612
42.8701
45.7762
47.7853
49.1524
50.0674
50.6656
51.0415
51.2609
51.37
51.4011
51.3772
51.3148
51.2257
51.1186
50.9996
50.8734
50.7433
50.6119
50.4808
50.3516
50.225
50.1018
49.9824
49.8673
49.7566
49.6504
49.5487
49.4516
49.359
49.2709
49.1872
49.1077
49.0324
48.9611
48.8937
48.8301
48.7702
48.7139
48.661
48.6114
48.565
48.5217
48.4815
48.4442
48.4097
48.3779
48.3488
48.3223
48.2983
48.2767
48.2575
48.2405
48.2257
48.213
48.2023
48.1935
48.1866
48.1814
48.1778
48.1758
48.1752
48.176
48.178
48.1811
48.1853
48.1904
48.1965
48.2035
48.2113
48.2198
48.229
48.2389
48.2494
48.2604
48.272
48.284
48.2965
48.3094
48.3226
48.3363
48.3503
48.3646
48.3793
48.3943
48.4097
48.4253
48.4413
48.4576
48.4742
48.4911
48.5084
48.526
48.544
48.5624
48.5811
48.6002
48.6197
48.6397
48.66
48.6809
48.7021
48.7239
48.7462
48.769
48.7924
48.8164
48.841
48.8663
48.8922
48.9189
48.9464
48.9751
49.0048
2.23299
2.5213
3.02004
3.97831
5.81132
8.95326
13.4245
18.6064
23.6547
28.0086
31.4918
34.1618
36.1611
37.6393
38.7238
39.5144
40.0864
40.4959
40.7841
40.9815
41.1107
41.1886
41.2279
41.238
41.2264
41.1984
41.1584
41.1096
41.0546
40.9954
40.9335
40.87
40.806
40.7421
40.6789
40.6169
40.5564
40.4976
40.4407
40.3858
40.3332
40.2827
40.2345
40.1886
40.1449
40.1035
40.0644
40.0275
39.9927
39.9601
39.9296
39.9012
39.8748
39.8505
39.828
39.8075
39.7888
39.772
39.7569
39.7435
39.7318
39.7218
39.7133
39.7063
39.7008
39.6966
39.6937
39.6921
39.6917
39.6924
39.6942
39.6969
39.7005
39.7048
39.7099
39.7157
39.7221
39.7292
39.7369
39.7451
39.7538
39.763
39.7726
39.7827
39.7931
39.8039
39.815
39.8264
39.8381
39.8501
39.8623
39.8749
39.8876
39.9007
39.914
39.9275
39.9413
39.9553
39.9696
39.9841
39.9989
40.014
40.0293
40.0449
40.0608
40.0769
40.0934
40.1102
40.1273
40.1448
40.1626
40.1807
40.1993
40.2182
40.2376
40.2574
40.2777
40.2984
40.3198
40.3417
40.3646
40.3886
2.04415
2.12289
2.29752
2.64296
3.30166
4.4877
6.42602
9.18516
12.5445
16.0848
19.4152
22.3108
24.7067
26.6315
28.1526
29.344
30.2729
30.9955
31.5567
31.9918
32.3282
32.5873
32.7857
32.936
33.0484
33.1307
33.1891
33.2286
33.2529
33.2653
33.2683
33.2638
33.2534
33.2386
33.2203
33.1995
33.1768
33.1529
33.1282
33.1031
33.0779
33.0529
33.0283
33.0042
32.9809
32.9584
32.9368
32.9161
32.8965
32.878
32.8606
32.8443
32.8291
32.8152
32.8023
32.7907
32.7802
32.7709
32.7628
32.7557
32.7498
32.745
32.7413
32.7385
32.7368
32.7361
32.7362
32.7373
32.7391
32.7418
32.7452
32.7494
32.7542
32.7595
32.7653
32.7716
32.7784
32.7856
32.7932
32.8012
32.8096
32.8183
32.8274
32.8367
32.8463
32.8562
32.8663
32.8767
32.8872
32.898
32.909
32.9201
32.9314
32.9429
32.9546
32.9665
32.9785
32.9907
33.003
33.0155
33.0282
33.0411
33.0541
33.0673
33.0807
33.0943
33.108
33.1219
33.1361
33.1504
33.1649
33.1797
33.1947
33.2099
33.2254
33.2412
33.2573
33.2737
33.2904
33.3076
33.3254
33.3444
1.93662
1.89378
1.9091
1.99887
2.20581
2.60135
3.28857
4.38475
5.96585
7.99812
10.3235
12.7231
15.0051
17.0512
18.8156
20.3
21.5307
22.5425
23.3709
24.0479
24.6009
25.053
25.4228
25.7255
25.9736
26.1769
26.3435
26.4799
26.5915
26.6825
26.7565
26.8165
26.8647
26.9033
26.9338
26.9576
26.9759
26.9896
26.9995
27.0064
27.0107
27.013
27.0136
27.013
27.0113
27.009
27.006
27.0028
26.9993
26.9958
26.9924
26.9891
26.986
26.9833
26.9809
26.9789
26.9774
26.9763
26.9758
26.9759
26.9765
26.9776
26.9794
26.9817
26.9845
26.9879
26.9919
26.9963
27.0013
27.0067
27.0126
27.0189
27.0256
27.0327
27.0401
27.0477
27.0556
27.0637
27.0721
27.0807
27.0895
27.0985
27.1077
27.1171
27.1267
27.1364
27.1462
27.1562
27.1663
27.1765
27.1869
27.1973
27.2078
27.2185
27.2292
27.24
27.2509
27.2619
27.273
27.2841
27.2953
27.3066
27.318
27.3295
27.341
27.3526
27.3643
27.376
27.3878
27.3997
27.4116
27.4237
27.4358
27.448
27.4604
27.4728
27.4854
27.4981
27.511
27.5241
27.5378
27.5524
1.87971
1.76618
1.6969
1.6702
1.69599
1.79455
1.99808
2.35263
2.91532
3.74022
4.85282
6.22679
7.78258
9.41177
11.0108
12.5043
13.8504
15.0348
16.0607
16.9406
17.6911
18.3291
18.8711
19.3314
19.7227
20.0558
20.3398
20.5824
20.79
20.968
21.121
21.2527
21.3662
21.4643
21.5492
21.6228
21.6868
21.7424
21.7909
21.8333
21.8704
21.903
21.9317
21.957
21.9794
21.9994
22.0173
22.0333
22.0478
22.061
22.0731
22.0843
22.0947
22.1045
22.1138
22.1227
22.1313
22.1397
22.148
22.1562
22.1643
22.1725
22.1807
22.189
22.1974
22.2059
22.2146
22.2234
22.2323
22.2414
22.2506
22.26
22.2695
22.2791
22.2889
22.2987
22.3085
22.3184
22.3283
22.3383
22.3483
22.3584
22.3685
22.3787
22.3888
22.3991
22.4093
22.4196
22.4299
22.4403
22.4506
22.461
22.4714
22.4818
22.4922
22.5025
22.5129
22.5233
22.5337
22.5441
22.5544
22.5647
22.5751
22.5853
22.5956
22.6058
22.616
22.6262
22.6363
22.6463
22.6563
22.6663
22.6762
22.6861
22.6959
22.7057
22.7155
22.7252
22.735
22.7448
22.7549
22.7659
1.85262
1.70013
1.58443
1.50014
1.44691
1.42874
1.45383
1.53512
1.69135
1.94726
2.33147
2.87025
3.57781
4.44716
5.44734
6.52935
7.63811
8.72431
9.75158
10.698
11.554
12.3183
12.995
13.5909
14.1139
14.5724
14.974
15.3259
15.6346
15.9057
16.1442
16.3544
16.5401
16.7043
16.85
16.9795
17.0948
17.1977
17.2899
17.3725
17.4468
17.5138
17.5744
17.6293
17.6791
17.7246
17.7661
17.8042
17.8392
17.8715
17.9015
17.9293
17.9552
17.9795
18.0023
18.0239
18.0443
18.0637
18.0822
18.1
18.1171
18.1337
18.1497
18.1653
18.1804
18.1953
18.2098
18.224
18.2381
18.2519
18.2655
18.2789
18.2922
18.3054
18.3184
18.3313
18.344
18.3565
18.3689
18.3811
18.3931
18.4051
18.4169
18.4286
18.4402
18.4517
18.4631
18.4744
18.4856
18.4967
18.5077
18.5187
18.5295
18.5403
18.5509
18.5615
18.572
18.5823
18.5926
18.6028
18.6128
18.6228
18.6326
18.6423
18.6519
18.6613
18.6706
18.6797
18.6887
18.6975
18.7062
18.7147
18.723
18.7311
18.7391
18.7469
18.7546
18.762
18.7694
18.7766
18.784
18.792
1.84139
1.6697
1.52946
1.4157
1.32537
1.25752
1.21298
1.19428
1.2059
1.25453
1.3495
1.50277
1.72823
2.03963
2.44734
2.95456
3.55469
4.23102
4.95936
5.71236
6.46405
7.19312
7.88439
8.52868
9.12169
9.66264
10.153
10.5957
10.9943
11.3526
11.6744
11.9636
12.2235
12.4574
12.668
12.858
13.0296
13.1849
13.3256
13.4534
13.5697
13.6758
13.7726
13.8613
13.9426
14.0173
14.0862
14.1498
14.2086
14.2631
14.3138
14.361
14.4051
14.4464
14.4851
14.5216
14.5559
14.5884
14.6193
14.6485
14.6764
14.703
14.7285
14.753
14.7765
14.7991
14.821
14.8421
14.8625
14.8824
14.9016
14.9204
14.9386
14.9564
14.9738
14.9908
15.0073
15.0236
15.0394
15.0548
15.0699
15.0846
15.099
15.1131
15.1269
15.1405
15.1538
15.1669
15.1798
15.1924
15.2048
15.217
15.229
15.2408
15.2524
15.2638
15.2749
15.2859
15.2967
15.3073
15.3176
15.3278
15.3377
15.3474
15.3569
15.3661
15.3751
15.3838
15.3922
15.4004
15.4083
15.4159
15.4233
15.4303
15.4371
15.4435
15.4496
15.4555
15.4611
15.4664
15.4717
15.4775
1.83747
1.65774
1.50597
1.37779
1.26982
1.17973
1.10613
1.0485
1.0071
0.982967
0.978021
0.995182
1.03851
1.11327
1.22579
1.383
1.59157
1.8566
2.1803
2.56083
2.99199
3.4637
3.96323
4.47698
4.99198
5.49723
5.98422
6.44712
6.88244
7.28853
7.66513
8.01289
8.33305
8.6272
8.89711
9.14461
9.37153
9.57963
9.77058
9.94594
10.1071
10.2554
10.3921
10.5181
10.6346
10.7423
10.8421
10.9347
11.0208
11.101
11.1757
11.2455
11.3108
11.372
11.4295
11.4835
11.5345
11.5826
11.628
11.6711
11.7119
11.7508
11.7878
11.8231
11.8568
11.889
11.9199
11.9496
11.9781
12.0055
12.032
12.0575
12.0821
12.1059
12.129
12.1513
12.1729
12.1939
12.2143
12.2341
12.2533
12.2719
12.29
12.3075
12.3246
12.3412
12.3573
12.3731
12.3884
12.4034
12.418
12.4323
12.4462
12.4597
12.473
12.4859
12.4985
12.5107
12.5227
12.5343
12.5456
12.5566
12.5672
12.5775
12.5875
12.5971
12.6064
12.6153
12.6238
12.632
12.6397
12.6471
12.654
12.6606
12.6667
12.6724
12.6777
12.6825
12.687
12.6911
12.695
12.6992
1.83635
1.65389
1.49762
1.36332
1.24761
1.14783
1.062
0.988661
0.926848
0.875995
0.835924
0.806832
0.789309
0.784375
0.793528
0.818789
0.862716
0.92835
1.01906
1.13827
1.28904
1.47355
1.69265
1.94546
2.22922
2.53944
2.87029
3.21516
3.56728
3.92031
4.26872
4.60806
4.93501
5.24733
5.54367
5.8234
6.08641
6.33298
6.56365
6.7791
6.98013
7.16759
7.34234
7.50526
7.65718
7.79891
7.93123
8.05485
8.17044
8.27861
8.37995
8.47499
8.56421
8.64806
8.72697
8.80131
8.87144
8.93768
9.00032
9.05965
9.1159
9.16931
9.22009
9.26842
9.31447
9.35842
9.40041
9.44056
9.479
9.51586
9.55121
9.58518
9.61783
9.64925
9.67951
9.70868
9.73682
9.76399
9.79024
9.81562
9.84017
9.86393
9.88688
9.90904
9.93047
9.95122
9.9713
9.99075
10.0096
10.0279
10.0456
10.0629
10.0796
10.0958
10.1115
10.1267
10.1415
10.1558
10.1697
10.1831
10.1961
10.2086
10.2206
10.2322
10.2434
10.2541
10.2642
10.274
10.2832
10.2919
10.3001
10.3078
10.315
10.3216
10.3277
10.3333
10.3384
10.3429
10.3468
10.3503
10.3534
10.3567
1.8361
1.6529
1.49526
1.35888
1.24033
1.13688
1.04634
0.966998
0.8975
0.836801
0.784121
0.738903
0.700795
0.66963
0.645428
0.628393
0.618928
0.617651
0.625408
0.643286
0.672608
0.714903
0.771843
0.84514
0.936407
1.04697
1.17771
1.32885
1.49987
1.68946
1.89555
2.11545
2.34602
2.5839
2.82575
3.06842
3.30912
3.54551
3.77573
3.99839
4.21254
4.41758
4.61322
4.79938
4.97615
5.14372
5.30239
5.4525
5.59441
5.72853
5.85527
5.97503
6.08823
6.19526
6.2965
6.39233
6.48309
6.56911
6.65069
6.72813
6.80169
6.87162
6.93817
7.00154
7.06194
7.11956
7.17458
7.22716
7.27745
7.32559
7.37172
7.41595
7.45839
7.49914
7.5383
7.57596
7.6122
7.64709
7.68071
7.71312
7.74438
7.77455
7.80368
7.83181
7.85896
7.88513
7.91037
7.93474
7.95827
7.98101
8.00298
8.02421
8.04473
8.06456
8.08373
8.10224
8.12012
8.13738
8.15401
8.17004
8.18547
8.2003
8.21452
8.22815
8.24118
8.2536
8.26541
8.2766
8.28718
8.29712
8.30643
8.31509
8.32311
8.33048
8.33718
8.34322
8.34861
8.35333
8.35739
8.36082
8.3638
8.36671
1.83605
1.6527
1.49473
1.35782
1.23848
1.13393
1.04192
0.960651
0.888632
0.82467
0.767793
0.717216
0.672311
0.632587
0.597667
0.567277
0.541239
0.519467
0.501959
0.488804
0.480184
0.476377
0.477764
0.484832
0.498176
0.518492
0.546563
0.583231
0.629359
0.685781
0.75324
0.832317
0.923369
1.02647
1.14136
1.26745
1.40383
1.54927
1.70234
1.86143
2.02486
2.19096
2.35813
2.52492
2.69004
2.85242
3.0112
3.16571
3.31545
3.46012
3.59951
3.73353
3.86219
3.98553
4.10366
4.21671
4.32483
4.42819
4.52697
4.62137
4.71157
4.79777
4.88016
4.95892
5.03426
5.10634
5.17534
5.24142
5.30473
5.36543
5.42365
5.47952
5.53316
5.58469
5.6342
5.68181
5.7276
5.77166
5.81408
5.85494
5.89431
5.93225
5.96885
6.00416
6.03822
6.07112
6.10286
6.13345
6.16292
6.19133
6.21873
6.24514
6.27062
6.29517
6.31885
6.34166
6.36364
6.38479
6.40513
6.42468
6.44345
6.46144
6.47865
6.4951
6.51079
6.5257
6.53985
6.55323
6.56583
6.57766
6.5887
6.59896
6.60843
6.61711
6.62499
6.63208
6.63838
6.64389
6.64862
6.65259
6.65596
6.65908
1.83603
1.65264
1.49462
1.3576
1.23811
1.13332
1.04098
0.959246
0.886595
0.821781
0.76377
0.711705
0.664871
0.622675
0.584622
0.550304
0.519386
0.491594
0.466712
0.444572
0.425055
0.408081
0.393614
0.381659
0.372259
0.365503
0.36152
0.360489
0.362631
0.368221
0.377575
0.391057
0.409065
0.432026
0.460379
0.49456
0.534976
0.581988
0.635877
0.696829
0.764907
0.840041
0.922014
1.01047
1.1049
1.2047
1.30914
1.41744
1.52877
1.64228
1.75715
1.87259
1.98789
2.10238
2.21553
2.32685
2.43596
2.54257
2.64646
2.74748
2.84551
2.94052
3.03249
3.12144
3.20738
3.29039
3.37052
3.44784
3.52242
3.59435
3.66371
3.73058
3.79504
3.85719
3.91711
3.97488
4.03058
4.0843
4.13612
4.18611
4.23434
4.2809
4.32583
4.36921
4.41111
4.45156
4.49063
4.52838
4.56483
4.60001
4.63391
4.66657
4.69803
4.72834
4.75752
4.78561
4.81263
4.83861
4.86356
4.88751
4.91046
4.93243
4.95343
4.97347
4.99255
5.01067
5.02784
5.04407
5.05934
5.07366
5.08704
5.09947
5.11095
5.12149
5.13108
5.13975
5.14748
5.15429
5.16019
5.16521
5.16949
5.17332
1.83602
1.65261
1.49457
1.35754
1.23801
1.13319
1.0408
0.958995
0.886239
0.821274
0.763051
0.710688
0.663449
0.620708
0.581938
0.54669
0.514581
0.485287
0.45853
0.434076
0.411723
0.391305
0.372681
0.355736
0.340378
0.326535
0.314157
0.30321
0.293681
0.285572
0.278905
0.273723
0.270083
0.268068
0.267776
0.26933
0.272873
0.278569
0.2866
0.297167
0.310483
0.326773
0.346263
0.369176
0.395724
0.426099
0.460464
0.498941
0.541609
0.588491
0.639552
0.694694
0.753759
0.816526
0.88272
0.952018
1.02406
1.09844
1.17475
1.25258
1.33149
1.41109
1.491
1.57084
1.6503
1.72909
1.80696
1.8837
1.95913
2.03312
2.10556
2.17637
2.24549
2.31289
2.37855
2.44247
2.50465
2.56511
2.62386
2.68092
2.73633
2.79011
2.84228
2.89288
2.94194
2.98948
3.03553
3.08014
3.12332
3.1651
3.20554
3.24464
3.2824
3.3188
3.35388
3.38766
3.42017
3.45143
3.48146
3.51028
3.5379
3.56433
3.58959
3.61369
3.63663
3.65841
3.67905
3.69856
3.71692
3.73416
3.75028
3.76528
3.77918
3.79198
3.8037
3.81434
3.82393
3.83248
3.84001
3.84656
3.85224
3.85732
1.83602
1.65258
1.49453
1.35749
1.23795
1.13313
1.04073
0.958918
0.886153
0.821175
0.76293
0.710534
0.663244
0.620428
0.581551
0.546153
0.513841
0.484276
0.457165
0.432255
0.409327
0.388188
0.368672
0.350636
0.333951
0.31851
0.304216
0.290989
0.278758
0.267465
0.25706
0.247503
0.238763
0.230816
0.223648
0.217252
0.211627
0.206783
0.202736
0.199511
0.19714
0.195665
0.195138
0.195619
0.197177
0.199891
0.203849
0.209148
0.215891
0.224188
0.234154
0.245907
0.259563
0.275238
0.293043
0.313076
0.335428
0.360173
0.387363
0.417034
0.449195
0.483831
0.520899
0.56033
0.602029
0.645876
0.691726
0.739417
0.788765
0.839576
0.891645
0.944759
0.998706
1.05327
1.10826
1.16345
1.21868
1.27376
1.32853
1.38285
1.43658
1.48962
1.54186
1.59322
1.64363
1.69304
1.74138
1.78863
1.83476
1.87974
1.92356
1.9662
2.00765
2.04792
2.087
2.12485
2.16142
2.19673
2.23075
2.2635
2.29498
2.32517
2.35409
2.38173
2.40809
2.43318
2.45701
2.47957
2.50088
2.52096
2.5398
2.55743
2.57387
2.58914
2.60324
2.61622
2.6281
2.63889
2.64864
2.65738
2.66521
2.67232
1.83601
1.65256
1.4945
1.35744
1.2379
1.13307
1.04068
0.958862
0.886097
0.821119
0.762874
0.710479
0.663188
0.620369
0.581486
0.546077
0.513746
0.484154
0.457003
0.432037
0.409031
0.387791
0.368143
0.349936
0.333036
0.317326
0.302702
0.28907
0.276348
0.264464
0.253353
0.242957
0.233225
0.224112
0.215578
0.207589
0.200113
0.193125
0.186603
0.180527
0.174883
0.169658
0.164845
0.160438
0.156435
0.152837
0.149649
0.146879
0.144537
0.142639
0.141203
0.140252
0.139811
0.139912
0.140587
0.141877
0.143823
0.146472
0.149874
0.154082
0.159153
0.165145
0.172118
0.180133
0.189251
0.19953
0.211028
0.223798
0.237889
0.253342
0.270194
0.28847
0.308187
0.32935
0.351956
0.375986
0.401412
0.428191
0.456269
0.485581
0.516049
0.547586
0.580095
0.613471
0.647604
0.682375
0.717665
0.75335
0.789308
0.825417
0.861555
0.897608
0.933463
0.969017
1.00417
1.03884
1.07295
1.10642
1.13915
1.17108
1.20215
1.23231
1.26152
1.28975
1.31698
1.34319
1.36837
1.39251
1.41562
1.43769
1.45873
1.47876
1.49778
1.51582
1.53289
1.54901
1.56421
1.5785
1.5919
1.60446
1.61621
1.62726
1.83601
1.65254
1.49448
1.35742
1.23787
1.13304
1.04064
0.958826
0.886061
0.821083
0.762838
0.710444
0.663153
0.620336
0.581454
0.546046
0.513716
0.484124
0.456972
0.432004
0.408994
0.387747
0.368088
0.349865
0.332945
0.317207
0.302545
0.288866
0.276084
0.264125
0.25292
0.24241
0.232539
0.223258
0.214524
0.206295
0.198537
0.191216
0.184303
0.177772
0.171597
0.165758
0.160235
0.155011
0.150069
0.145397
0.140981
0.136812
0.132879
0.129176
0.125696
0.122433
0.119385
0.116549
0.113924
0.11151
0.109309
0.107324
0.105559
0.104021
0.102718
0.101657
0.10085
0.10031
0.10005
0.100086
0.100437
0.101121
0.102161
0.10358
0.105403
0.107657
0.110369
0.11357
0.117289
0.121559
0.126411
0.131876
0.137988
0.144775
0.152269
0.160496
0.169481
0.179248
0.189813
0.201193
0.213397
0.226428
0.240288
0.254969
0.270457
0.286736
0.303778
0.321554
0.340027
0.359154
0.378889
0.399181
0.419982
0.441236
0.462878
0.48484
0.507053
0.529448
0.551957
0.574511
0.597044
0.619494
0.641797
0.663897
0.68574
0.707273
0.728451
0.749232
0.769576
0.789449
0.808821
0.827665
0.84596
0.863686
0.880835
0.897371