/*--------------------------------*- C++ -*----------------------------------*\
  =========                 |
  \\      /  F ield         | OpenFOAM: The Open Source CFD Toolbox
   \\    /   O peration     | Website:  https://openfoam.org
    \\  /    A nd           | Version:  8
     \\/     M anipulation  |
\*---------------------------------------------------------------------------*/
FoamFile
{
    version     2.0;
    format      ascii;
    class       volScalarField;
    location    "750";
    object      k;
}
// * * * * * * * * * * * * * * * * * * * * * * * * * * * * * * * * * * * * * //

dimensions      [0 2 -2 0 0 0 0];

internalField   nonuniform List<scalar> 
7320
(
6.07652
5.55942
5.24732
5.04165
4.8942
4.78178
4.69211
4.61825
4.55602
4.50265
4.45625
4.41545
4.37924
4.34686
4.31771
4.29132
4.26733
4.24542
4.22534
4.20689
4.18987
4.17415
4.15959
4.14608
4.13352
4.12184
4.11095
4.10079
4.09131
4.08244
4.07415
4.0664
4.05914
4.05234
4.04598
4.04002
4.03443
4.02921
4.02431
4.01974
4.01546
4.01146
4.00772
4.00424
4.00099
3.99797
3.99517
3.99257
3.99017
3.98795
3.98591
3.98404
3.98233
3.98078
3.97938
3.97812
3.977
3.97602
3.97516
3.97443
3.97382
3.97332
3.97293
3.97264
3.97246
3.97237
3.97238
3.97247
3.97265
3.97291
3.97325
3.97366
3.97414
3.97468
3.97529
3.97596
3.97669
3.97747
3.97831
3.97919
3.98013
3.9811
3.98213
3.98319
3.98429
3.98543
3.98661
3.98783
3.98908
3.99036
3.99168
3.99303
3.9944
3.99581
3.99725
3.99871
4.00021
4.00172
4.00327
4.00484
4.00643
4.00805
4.00969
4.01136
4.01304
4.01475
4.01647
4.01821
4.01997
4.02175
4.02354
4.02534
4.02715
4.02898
4.03082
4.03266
4.03451
4.03636
4.03822
4.04008
4.04189
4.04374
4.84215
5.67924
5.54001
5.36046
5.21715
5.10399
5.01225
4.93597
4.87129
4.81558
4.76697
4.72412
4.68601
4.65186
4.62109
4.59321
4.56782
4.54462
4.52335
4.50378
4.48573
4.46904
4.45358
4.43924
4.4259
4.41348
4.40191
4.39112
4.38103
4.37161
4.3628
4.35455
4.34683
4.3396
4.33284
4.3265
4.32057
4.31501
4.30981
4.30495
4.3004
4.29616
4.29219
4.2885
4.28505
4.28185
4.27888
4.27612
4.27358
4.27123
4.26907
4.2671
4.26529
4.26366
4.26218
4.26086
4.25969
4.25867
4.25778
4.25703
4.2564
4.25591
4.25553
4.25526
4.25511
4.25507
4.25513
4.25528
4.25553
4.25587
4.25629
4.2568
4.25738
4.25804
4.25876
4.25955
4.26041
4.26132
4.26229
4.26331
4.26438
4.2655
4.26667
4.26787
4.26911
4.2704
4.27171
4.27306
4.27445
4.27586
4.2773
4.27877
4.28027
4.28179
4.28333
4.2849
4.28649
4.28809
4.28972
4.29137
4.29304
4.29472
4.29642
4.29813
4.29986
4.3016
4.30335
4.30512
4.30689
4.30867
4.31046
4.31226
4.31406
4.31586
4.31766
4.31947
4.32128
4.32308
4.32488
4.32668
4.32843
4.33016
3.59581
5.0514
5.15997
5.06781
4.96411
4.87324
4.79598
4.72999
4.67307
4.62344
4.57977
4.541
4.50635
4.47517
4.44698
4.42135
4.39797
4.37656
4.35689
4.33877
4.32204
4.30655
4.29219
4.27885
4.26644
4.25488
4.2441
4.23404
4.22464
4.21585
4.20763
4.19994
4.19274
4.186
4.17969
4.17378
4.16824
4.16306
4.15822
4.15369
4.14946
4.1455
4.14182
4.13838
4.13518
4.13221
4.12946
4.1269
4.12455
4.12238
4.12039
4.11857
4.11692
4.11542
4.11408
4.11288
4.11183
4.11091
4.11013
4.10948
4.10896
4.10856
4.10828
4.10811
4.10805
4.1081
4.10825
4.1085
4.10883
4.10926
4.10977
4.11037
4.11103
4.11177
4.11258
4.11345
4.11437
4.11535
4.11638
4.11746
4.11858
4.11973
4.12093
4.12216
4.12341
4.1247
4.12601
4.12735
4.1287
4.13008
4.13147
4.13287
4.13429
4.13573
4.13717
4.13863
4.14009
4.14157
4.14304
4.14453
4.14602
4.14751
4.14901
4.15051
4.15202
4.15352
4.15502
4.15652
4.15802
4.15952
4.16102
4.16251
4.16399
4.16547
4.16695
4.16841
4.16987
4.17132
4.17276
4.17419
4.17559
4.17692
2.74725
4.48339
4.83294
4.83938
4.78111
4.71517
4.65355
4.59832
4.54927
4.50567
4.46677
4.43188
4.40045
4.372
4.34614
4.32254
4.30093
4.28108
4.2628
4.24593
4.23032
4.21585
4.20241
4.18991
4.17828
4.16743
4.15731
4.14786
4.13902
4.13076
4.12302
4.11579
4.10901
4.10267
4.09673
4.09117
4.08597
4.0811
4.07654
4.07229
4.06831
4.0646
4.06115
4.05793
4.05494
4.05216
4.04959
4.04721
4.04502
4.04301
4.04116
4.03948
4.03796
4.03659
4.03537
4.03429
4.03334
4.03254
4.03186
4.03132
4.0309
4.0306
4.03042
4.03035
4.03039
4.03054
4.03079
4.03114
4.03158
4.03211
4.03272
4.03341
4.03418
4.03501
4.03591
4.03687
4.03788
4.03894
4.04004
4.04119
4.04237
4.04358
4.04482
4.04609
4.04738
4.04868
4.05001
4.05134
4.05269
4.05404
4.05541
4.05677
4.05814
4.05951
4.06088
4.06225
4.06361
4.06497
4.06633
4.06768
4.06902
4.07036
4.07169
4.07301
4.07433
4.07563
4.07692
4.0782
4.07947
4.08073
4.08197
4.08321
4.08443
4.08563
4.08683
4.08801
4.08917
4.09033
4.09147
4.09259
4.0937
4.0947
2.10346
3.90602
4.48941
4.61127
4.60898
4.57387
4.53133
4.489
4.44924
4.41265
4.37922
4.34873
4.32092
4.29549
4.27219
4.2508
4.23111
4.21295
4.19616
4.18061
4.16619
4.15279
4.14032
4.12871
4.11788
4.10777
4.09833
4.08951
4.08125
4.07353
4.0663
4.05953
4.05319
4.04725
4.0417
4.03649
4.03163
4.02708
4.02282
4.01885
4.01514
4.01169
4.00847
4.00548
4.0027
4.00013
3.99775
3.99555
3.99354
3.99169
3.99
3.98847
3.98709
3.98586
3.98477
3.98381
3.983
3.98231
3.98175
3.98132
3.98102
3.98083
3.98076
3.98081
3.98096
3.98123
3.98159
3.98205
3.9826
3.98324
3.98396
3.98475
3.98562
3.98656
3.98755
3.98861
3.98971
3.99085
3.99203
3.99325
3.9945
3.99577
3.99707
3.99838
3.9997
4.00104
4.00238
4.00372
4.00507
4.00641
4.00775
4.00909
4.01042
4.01173
4.01304
4.01434
4.01562
4.01689
4.01814
4.01938
4.0206
4.02181
4.02299
4.02416
4.02531
4.02644
4.02756
4.02865
4.02973
4.03078
4.03182
4.03283
4.03383
4.03481
4.03577
4.03671
4.03763
4.03854
4.03944
4.04031
4.04117
4.04191
1.61624
3.30894
4.10161
4.35522
4.42201
4.42574
4.40724
4.38106
4.35281
4.32483
4.29808
4.27292
4.24944
4.22762
4.20737
4.18859
4.17115
4.15496
4.13991
4.1259
4.11285
4.10069
4.08934
4.07874
4.06884
4.05958
4.05091
4.0428
4.03521
4.02809
4.02143
4.01519
4.00935
4.00388
3.99875
3.99396
3.98948
3.98528
3.98137
3.97772
3.97431
3.97115
3.9682
3.96547
3.96293
3.96059
3.95843
3.95645
3.95463
3.95297
3.95147
3.95011
3.9489
3.94783
3.94689
3.94609
3.94542
3.94487
3.94445
3.94416
3.94398
3.94393
3.94399
3.94416
3.94444
3.94483
3.94532
3.9459
3.94657
3.94732
3.94816
3.94907
3.95005
3.95109
3.95219
3.95334
3.95453
3.95576
3.95703
3.95833
3.95965
3.96098
3.96233
3.9637
3.96506
3.96643
3.9678
3.96916
3.97051
3.97185
3.97318
3.9745
3.9758
3.97708
3.97834
3.97958
3.9808
3.982
3.98317
3.98432
3.98544
3.98654
3.98761
3.98866
3.98968
3.99067
3.99164
3.99258
3.9935
3.99439
3.99526
3.9961
3.99691
3.99771
3.99848
3.99923
3.99996
4.00068
4.00138
4.00206
4.00273
4.00326
1.26812
2.7064
3.65726
4.05358
4.20386
4.25636
4.26838
4.26267
4.24897
4.23181
4.21339
4.19484
4.17674
4.15936
4.14285
4.12725
4.11255
4.09875
4.0858
4.07365
4.06226
4.05158
4.04157
4.03219
4.02339
4.01514
4.0074
4.00014
3.99333
3.98695
3.98096
3.97535
3.97009
3.96517
3.96056
3.95624
3.95221
3.94845
3.94493
3.94166
3.93862
3.93579
3.93317
3.93074
3.9285
3.92643
3.92453
3.9228
3.92122
3.91979
3.91851
3.91736
3.91635
3.91547
3.91471
3.91409
3.91359
3.91321
3.91296
3.91282
3.9128
3.9129
3.9131
3.91342
3.91385
3.91437
3.915
3.91571
3.91652
3.9174
3.91836
3.91939
3.92049
3.92165
3.92285
3.92411
3.92541
3.92674
3.92809
3.92947
3.93087
3.93228
3.9337
3.93512
3.93653
3.93795
3.93935
3.94074
3.94211
3.94347
3.94481
3.94612
3.94741
3.94868
3.94991
3.95112
3.9523
3.95344
3.95456
3.95565
3.9567
3.95772
3.95871
3.95966
3.96058
3.96147
3.96233
3.96316
3.96396
3.96472
3.96546
3.96617
3.96684
3.9675
3.96813
3.96873
3.96932
3.96988
3.97044
3.97097
3.9715
3.97188
1.04443
2.13048
3.15609
3.69382
3.94125
4.05401
4.10457
4.12487
4.12967
4.12622
4.11833
4.10811
4.09673
4.0849
4.07304
4.06139
4.0501
4.03924
4.02888
4.01901
4.00966
4.0008
3.99243
3.98452
3.97707
3.97005
3.96343
3.95721
3.95135
3.94585
3.94068
3.93583
3.93129
3.92702
3.92303
3.9193
3.91582
3.91257
3.90954
3.90673
3.90412
3.9017
3.89946
3.8974
3.89551
3.89378
3.8922
3.89077
3.88948
3.88833
3.88731
3.88641
3.88564
3.885
3.88447
3.88406
3.88377
3.88359
3.88353
3.88358
3.88374
3.88402
3.8844
3.88489
3.88547
3.88616
3.88694
3.88781
3.88876
3.88979
3.89089
3.89206
3.89329
3.89457
3.8959
3.89728
3.89868
3.90012
3.90158
3.90306
3.90455
3.90604
3.90754
3.90903
3.91051
3.91198
3.91344
3.91488
3.91629
3.91768
3.91905
3.92038
3.92168
3.92295
3.92419
3.92539
3.92655
3.92768
3.92877
3.92982
3.93083
3.93181
3.93274
3.93364
3.9345
3.93533
3.93611
3.93686
3.93757
3.93825
3.9389
3.93951
3.94009
3.94065
3.94117
3.94168
3.94216
3.94261
3.94306
3.94348
3.94392
3.94418
0.919762
1.62589
2.61278
3.26902
3.62244
3.80741
3.90596
3.95917
3.98747
4.00145
4.00694
4.00725
4.00438
3.99954
3.99352
3.98681
3.97976
3.97259
3.96544
3.95842
3.95158
3.94497
3.93862
3.93255
3.92675
3.92124
3.91601
3.91105
3.90637
3.90195
3.89779
3.89387
3.89019
3.88673
3.8835
3.88048
3.87766
3.87504
3.87261
3.87035
3.86827
3.86635
3.86459
3.86298
3.86152
3.86019
3.859
3.85794
3.857
3.85619
3.85549
3.8549
3.85443
3.85406
3.85381
3.85366
3.85362
3.85369
3.85386
3.85414
3.85452
3.855
3.85559
3.85627
3.85706
3.85793
3.85889
3.85994
3.86106
3.86225
3.86352
3.86484
3.86622
3.86764
3.86912
3.87062
3.87216
3.87372
3.8753
3.87689
3.87849
3.88009
3.88168
3.88327
3.88484
3.88639
3.88793
3.88943
3.89091
3.89236
3.89378
3.89516
3.8965
3.8978
3.89907
3.90029
3.90147
3.90261
3.9037
3.90476
3.90576
3.90673
3.90765
3.90852
3.90936
3.91015
3.9109
3.91161
3.91228
3.9129
3.9135
3.91405
3.91458
3.91507
3.91553
3.91596
3.91637
3.91676
3.91713
3.91748
3.91784
3.91803
0.860369
1.23773
2.06198
2.78202
3.23846
3.50547
3.66218
3.75644
3.81442
3.85055
3.87304
3.88674
3.89464
3.89864
3.89999
3.89953
3.89781
3.89526
3.89213
3.88865
3.88496
3.88115
3.87732
3.87351
3.86978
3.86614
3.86262
3.85924
3.856
3.85292
3.84999
3.84722
3.8446
3.84215
3.83985
3.8377
3.8357
3.83385
3.83214
3.83057
3.82913
3.82783
3.82665
3.82559
3.82465
3.82382
3.82311
3.8225
3.82199
3.82159
3.82128
3.82107
3.82096
3.82094
3.82102
3.82119
3.82146
3.82182
3.82228
3.82283
3.82347
3.82421
3.82504
3.82596
3.82697
3.82807
3.82924
3.8305
3.83182
3.83321
3.83466
3.83616
3.83772
3.83932
3.84095
3.84262
3.84431
3.84602
3.84775
3.84948
3.85121
3.85293
3.85465
3.85636
3.85804
3.8597
3.86134
3.86294
3.86451
3.86605
3.86755
3.86901
3.87042
3.87179
3.87312
3.8744
3.87563
3.87681
3.87795
3.87904
3.88007
3.88106
3.882
3.88289
3.88374
3.88453
3.88529
3.88599
3.88665
3.88727
3.88784
3.88837
3.88887
3.88933
3.88976
3.89016
3.89053
3.89087
3.8912
3.8915
3.89182
3.89196
0.836787
0.98815
1.55966
2.25312
2.7872
3.13869
3.36248
3.50657
3.60152
3.66555
3.70958
3.74028
3.76186
3.77709
3.78779
3.79521
3.80023
3.80349
3.80544
3.80641
3.80665
3.80636
3.80567
3.8047
3.80353
3.80223
3.80084
3.79941
3.79796
3.79653
3.79514
3.79379
3.7925
3.79127
3.79013
3.78906
3.78807
3.78717
3.78635
3.78563
3.78499
3.78443
3.78397
3.78359
3.78329
3.78308
3.78294
3.78289
3.78291
3.78301
3.78319
3.78345
3.78378
3.78418
3.78467
3.78523
3.78587
3.78659
3.78739
3.78827
3.78924
3.79028
3.79141
3.79262
3.7939
3.79526
3.79669
3.7982
3.79976
3.80138
3.80306
3.80478
3.80654
3.80834
3.81018
3.81204
3.81391
3.81581
3.8177
3.8196
3.8215
3.82339
3.82526
3.82711
3.82894
3.83075
3.83252
3.83425
3.83595
3.83761
3.83923
3.8408
3.84232
3.8438
3.84522
3.84659
3.84791
3.84918
3.85039
3.85155
3.85266
3.85371
3.85471
3.85566
3.85655
3.85739
3.85817
3.85891
3.8596
3.86023
3.86083
3.86137
3.86187
3.86234
3.86276
3.86315
3.86351
3.86383
3.86414
3.86442
3.86471
3.86482
0.830413
0.857509
1.16926
1.7285
2.28148
2.70333
2.99742
3.19899
3.33861
3.4372
3.50825
3.56042
3.59936
3.62883
3.65138
3.6688
3.68236
3.69298
3.70133
3.70792
3.71312
3.71725
3.72051
3.72309
3.72514
3.72675
3.72802
3.72903
3.72983
3.73046
3.73097
3.73139
3.73174
3.73204
3.73232
3.73259
3.73286
3.73313
3.73342
3.73374
3.73408
3.73446
3.73488
3.73533
3.73583
3.73637
3.73696
3.73758
3.73826
3.73898
3.73976
3.74058
3.74145
3.74238
3.74336
3.7444
3.7455
3.74666
3.74789
3.74917
3.75053
3.75195
3.75344
3.75499
3.75661
3.75829
3.76003
3.76184
3.76369
3.76559
3.76754
3.76952
3.77154
3.77359
3.77566
3.77776
3.77986
3.78197
3.78408
3.78619
3.78829
3.79038
3.79245
3.79449
3.7965
3.79849
3.80043
3.80234
3.80421
3.80603
3.8078
3.80952
3.81119
3.81281
3.81437
3.81588
3.81733
3.81872
3.82006
3.82133
3.82254
3.8237
3.82479
3.82583
3.82681
3.82773
3.82859
3.8294
3.83014
3.83084
3.83148
3.83207
3.83261
3.8331
3.83355
3.83396
3.83433
3.83466
3.83496
3.83524
3.83552
3.83561
0.831632
0.801461
0.924682
1.27902
1.76057
2.20994
2.5635
2.82478
3.0153
3.15518
3.2594
3.33832
3.39906
3.44651
3.48408
3.51418
3.53856
3.5585
3.57496
3.58866
3.60014
3.60984
3.61808
3.62514
3.63123
3.63651
3.64112
3.64518
3.64878
3.652
3.65489
3.65751
3.65991
3.66213
3.66418
3.66611
3.66794
3.66967
3.67134
3.67295
3.67452
3.67605
3.67756
3.67905
3.68053
3.682
3.68347
3.68495
3.68643
3.68792
3.68943
3.69095
3.6925
3.69406
3.69566
3.69729
3.69895
3.70065
3.7024
3.70418
3.70602
3.7079
3.70982
3.7118
3.71383
3.71591
3.71803
3.7202
3.72241
3.72465
3.72693
3.72924
3.73157
3.73392
3.73628
3.73866
3.74104
3.74342
3.7458
3.74816
3.75051
3.75285
3.75515
3.75743
3.75968
3.76188
3.76405
3.76618
3.76825
3.77028
3.77226
3.77418
3.77604
3.77785
3.7796
3.78128
3.7829
3.78446
3.78596
3.78739
3.78876
3.79006
3.7913
3.79247
3.79357
3.79461
3.79559
3.7965
3.79735
3.79813
3.79886
3.79952
3.80013
3.80068
3.80118
3.80163
3.80204
3.8024
3.80272
3.803
3.80328
3.80338
0.835915
0.782667
0.803403
0.968303
1.29566
1.69673
2.07275
2.38225
2.62383
2.80953
2.95259
3.06386
3.15146
3.22133
3.27774
3.32383
3.3619
3.39365
3.42038
3.44308
3.46251
3.47926
3.4938
3.50652
3.51771
3.52762
3.53644
3.54435
3.55147
3.55793
3.56381
3.5692
3.57417
3.57877
3.58305
3.58706
3.59083
3.59439
3.59777
3.60099
3.60408
3.60705
3.60992
3.61269
3.61539
3.61802
3.62059
3.62311
3.62559
3.62804
3.63045
3.63284
3.63522
3.63758
3.63994
3.64229
3.64465
3.64702
3.64941
3.65181
3.65423
3.65668
3.65915
3.66165
3.66418
3.66674
3.66933
3.67195
3.67459
3.67726
3.67995
3.68265
3.68536
3.68808
3.69081
3.69353
3.69625
3.69897
3.70167
3.70435
3.70701
3.70965
3.71225
3.71482
3.71735
3.71984
3.72228
3.72467
3.72702
3.7293
3.73153
3.7337
3.73581
3.73786
3.73984
3.74175
3.7436
3.74538
3.74708
3.74872
3.75029
3.75178
3.7532
3.75455
3.75583
3.75703
3.75816
3.75922
3.7602
3.76112
3.76196
3.76274
3.76345
3.76409
3.76467
3.76519
3.76566
3.76607
3.76643
3.76674
3.76704
3.76715
0.841165
0.780282
0.755
0.801817
0.962762
1.23783
1.56799
1.88853
2.16639
2.39488
2.57903
2.72692
2.8462
2.94318
3.02278
3.08874
3.14394
3.19054
3.23023
3.26431
3.29378
3.31947
3.34199
3.36186
3.37951
3.39527
3.40941
3.42217
3.43374
3.44429
3.45394
3.46281
3.47101
3.47861
3.48569
3.4923
3.49851
3.50436
3.50988
3.51513
3.52012
3.52488
3.52944
3.53382
3.53804
3.54211
3.54606
3.54988
3.5536
3.55723
3.56077
3.56424
3.56765
3.57099
3.57429
3.57755
3.58078
3.58397
3.58715
3.59031
3.59347
3.59661
3.59976
3.60291
3.60606
3.60923
3.61239
3.61557
3.61875
3.62194
3.62513
3.62832
3.6315
3.63468
3.63785
3.64101
3.64415
3.64727
3.65037
3.65344
3.65648
3.65949
3.66246
3.66539
3.66827
3.6711
3.67389
3.67661
3.67928
3.68189
3.68443
3.68691
3.68933
3.69167
3.69394
3.69614
3.69827
3.70032
3.70229
3.70418
3.706
3.70774
3.7094
3.71097
3.71247
3.71388
3.71521
3.71646
3.71763
3.71872
3.71972
3.72065
3.72149
3.72226
3.72296
3.72358
3.72413
3.72461
3.72503
3.72539
3.72572
3.72586
0.846372
0.784571
0.740866
0.731421
0.780818
0.913761
1.13036
1.39676
1.66969
1.92048
2.13792
2.32135
2.47447
2.60211
2.70889
2.79873
2.87484
2.93979
2.99561
3.04393
3.08604
3.12297
3.15556
3.18449
3.2103
3.23346
3.25433
3.27323
3.29043
3.30614
3.32056
3.33383
3.3461
3.35748
3.36808
3.37798
3.38726
3.39599
3.40421
3.41199
3.41937
3.42638
3.43307
3.43946
3.44559
3.45146
3.45712
3.46258
3.46785
3.47295
3.47791
3.48272
3.48741
3.49198
3.49646
3.50084
3.50514
3.50937
3.51353
3.51764
3.52171
3.52573
3.52971
3.53367
3.5376
3.5415
3.54539
3.54926
3.55311
3.55694
3.56075
3.56455
3.56832
3.57207
3.57579
3.57948
3.58314
3.58677
3.59036
3.59391
3.59743
3.60089
3.60431
3.60768
3.61099
3.61425
3.61745
3.62058
3.62365
3.62665
3.62958
3.63244
3.63523
3.63794
3.64057
3.64312
3.64559
3.64797
3.65027
3.65249
3.65462
3.65666
3.65861
3.66047
3.66224
3.66392
3.6655
3.667
3.66839
3.6697
3.67091
3.67203
3.67305
3.67399
3.67483
3.67558
3.67625
3.67684
3.67735
3.67778
3.67816
3.67836
0.851011
0.791143
0.741126
0.708367
0.70346
0.741579
0.838108
0.996907
1.20263
1.4285
1.65059
1.85477
2.03555
2.19259
2.3279
2.44426
2.54449
2.63115
2.70642
2.77214
2.82983
2.88074
2.9259
2.96617
3.00225
3.03473
3.0641
3.09076
3.11507
3.13731
3.15775
3.17659
3.19401
3.21018
3.22523
3.23928
3.25244
3.26479
3.27642
3.2874
3.29778
3.30763
3.317
3.32592
3.33444
3.34259
3.3504
3.3579
3.36512
3.37208
3.37879
3.38529
3.39159
3.3977
3.40364
3.40943
3.41507
3.42059
3.42599
3.43129
3.43649
3.4416
3.44663
3.45159
3.45649
3.46133
3.46611
3.47084
3.47553
3.48017
3.48476
3.48931
3.49381
3.49827
3.50267
3.50703
3.51134
3.51559
3.5198
3.52395
3.52804
3.53207
3.53605
3.53996
3.5438
3.54758
3.55129
3.55492
3.55848
3.56197
3.56537
3.56869
3.57193
3.57509
3.57815
3.58113
3.58402
3.58682
3.58952
3.59213
3.59464
3.59705
3.59936
3.60157
3.60368
3.60569
3.60759
3.60938
3.61107
3.61264
3.61411
3.61547
3.61673
3.61787
3.61891
3.61984
3.62067
3.6214
3.62202
3.62255
3.62302
3.62331
0.854799
0.797919
0.746862
0.705362
0.677885
0.670753
0.692779
0.753704
0.85933
1.00619
1.18133
1.368
1.55204
1.72458
1.88152
2.02185
2.14624
2.2561
2.35311
2.43889
2.51496
2.58264
2.64307
2.69726
2.74602
2.79009
2.83005
2.86643
2.89966
2.93013
2.95815
2.98401
3.00794
3.03015
3.05083
3.07013
3.08819
3.10513
3.12106
3.13608
3.15027
3.16371
3.17645
3.18857
3.20011
3.21112
3.22165
3.23173
3.2414
3.25069
3.25963
3.26825
3.27656
3.28461
3.2924
3.29995
3.30728
3.31442
3.32137
3.32815
3.33478
3.34126
3.34761
3.35384
3.35995
3.36595
3.37186
3.37768
3.38341
3.38906
3.39463
3.40012
3.40554
3.41088
3.41614
3.42133
3.42644
3.43148
3.43645
3.44134
3.44615
3.45089
3.45555
3.46013
3.46463
3.46905
3.47339
3.47764
3.4818
3.48587
3.48985
3.49374
3.49754
3.50124
3.50484
3.50834
3.51174
3.51504
3.51823
3.52131
3.52429
3.52716
3.52991
3.53255
3.53507
3.53748
3.53976
3.54193
3.54397
3.54588
3.54768
3.54934
3.55088
3.55229
3.55358
3.55474
3.55577
3.55669
3.55748
3.55815
3.55874
3.55914
0.857613
0.803838
0.754023
0.710069
0.674015
0.648368
0.636594
0.64348
0.674826
0.73588
0.828724
0.950233
1.09243
1.24518
1.3992
1.54782
1.68713
1.81538
1.93217
2.03791
2.13338
2.21952
2.29731
2.36767
2.43146
2.48942
2.54224
2.59051
2.63474
2.67539
2.71285
2.74747
2.77954
2.80934
2.83709
2.863
2.88724
2.90997
2.93134
2.95146
2.97046
2.98842
3.00544
3.0216
3.03696
3.05159
3.06555
3.07889
3.09165
3.10389
3.11564
3.12693
3.1378
3.14828
3.1584
3.16818
3.17764
3.18682
3.19573
3.20438
3.21281
3.22102
3.22902
3.23684
3.24448
3.25196
3.25929
3.26647
3.27352
3.28044
3.28723
3.29391
3.30047
3.30693
3.31327
3.31951
3.32563
3.33166
3.33758
3.34339
3.34911
3.35472
3.36024
3.36565
3.37097
3.37618
3.38129
3.3863
3.3912
3.396
3.40069
3.40528
3.40975
3.41412
3.41837
3.42251
3.42654
3.43044
3.43423
3.4379
3.44144
3.44486
3.44815
3.45131
3.45434
3.45724
3.46
3.46262
3.4651
3.46743
3.46962
3.47167
3.47357
3.47531
3.47691
3.47837
3.47967
3.48082
3.48183
3.4827
3.48346
3.48402
0.859482
0.808378
0.760626
0.716973
0.678334
0.645749
0.620512
0.604371
0.599722
0.609658
0.637654
0.686738
0.758295
0.851094
0.961178
1.08279
1.20982
1.33698
1.46042
1.57773
1.68765
1.78972
1.88396
1.9707
2.05043
2.12369
2.19105
2.25304
2.31019
2.36296
2.41178
2.45704
2.49907
2.5382
2.57469
2.6088
2.64074
2.6707
2.69887
2.72541
2.75044
2.7741
2.7965
2.81775
2.83793
2.85713
2.87542
2.89288
2.90956
2.92552
2.94082
2.95549
2.96959
2.98315
2.99621
3.00881
3.02097
3.03273
3.04411
3.05514
3.06583
3.07622
3.08633
3.09616
3.10574
3.11508
3.1242
3.13311
3.14182
3.15034
3.15869
3.16686
3.17487
3.18273
3.19043
3.19799
3.20539
3.21265
3.21977
3.22676
3.2336
3.24032
3.2469
3.25336
3.25969
3.26589
3.27197
3.27792
3.28374
3.28944
3.29501
3.30045
3.30577
3.31095
3.31601
3.32093
3.32572
3.33038
3.3349
3.33928
3.34351
3.34761
3.35156
3.35536
3.35901
3.3625
3.36584
3.36902
3.37204
3.37489
3.37757
3.38009
3.38243
3.3846
3.38659
3.38842
3.39006
3.39153
3.39283
3.39395
3.39494
3.39573
0.860565
0.811411
0.765711
0.723439
0.684828
0.650242
0.620147
0.595142
0.57603
0.563904
0.56022
0.566795
0.585676
0.618805
0.66751
0.731993
0.811019
0.902008
1.00149
1.10577
1.21146
1.31586
1.41705
1.51381
1.60547
1.69173
1.77257
1.84814
1.91867
1.98447
2.04585
2.10313
2.15664
2.20668
2.25352
2.29744
2.33866
2.37742
2.41391
2.44831
2.4808
2.51152
2.54061
2.5682
2.59441
2.61933
2.64306
2.66568
2.68729
2.70794
2.7277
2.74664
2.76481
2.78227
2.79905
2.8152
2.83077
2.84579
2.8603
2.87433
2.8879
2.90106
2.91382
2.9262
2.93823
2.94994
2.96133
2.97243
2.98325
2.99381
3.00412
3.01419
3.02403
3.03366
3.04308
3.05229
3.06132
3.07015
3.07879
3.08724
3.09552
3.10362
3.11156
3.11932
3.12693
3.13437
3.14165
3.14878
3.15575
3.16257
3.16924
3.17575
3.1821
3.1883
3.19435
3.20024
3.20598
3.21156
3.21697
3.22223
3.22732
3.23225
3.237
3.24159
3.246
3.25023
3.25428
3.25815
3.26183
3.26532
3.26861
3.27171
3.27461
3.2773
3.27979
3.28208
3.28416
3.28604
3.28771
3.28917
3.29047
3.29156
0.861099
0.813133
0.76901
0.728261
0.690673
0.656203
0.624916
0.596953
0.57254
0.551996
0.535764
0.524447
0.518835
0.519919
0.528854
0.546863
0.575059
0.614217
0.66454
0.725513
0.795886
0.87382
0.957144
1.04364
1.13129
1.21842
1.30375
1.3864
1.4658
1.54163
1.61374
1.68211
1.74682
1.80798
1.86575
1.92031
1.97184
2.02055
2.0666
2.11018
2.15145
2.19057
2.22769
2.26294
2.29646
2.32837
2.35877
2.38777
2.41546
2.44193
2.46725
2.49151
2.51477
2.53709
2.55853
2.57916
2.59901
2.61814
2.63658
2.65439
2.6716
2.68825
2.70436
2.71997
2.73511
2.74981
2.76408
2.77795
2.79145
2.80459
2.81739
2.82987
2.84204
2.85391
2.8655
2.87682
2.88788
2.8987
2.90926
2.91959
2.92968
2.93954
2.94918
2.95861
2.96782
2.97683
2.98564
2.99425
3.00266
3.01089
3.01892
3.02676
3.03442
3.04189
3.04917
3.05627
3.06318
3.0699
3.07643
3.08277
3.08892
3.09487
3.10063
3.10618
3.11153
3.11667
3.1216
3.12632
3.13082
3.13509
3.13914
3.14296
3.14655
3.1499
3.15301
3.15589
3.15852
3.16091
3.16306
3.16497
3.16668
3.16816
0.861317
0.813942
0.770775
0.731184
0.694718
0.661081
0.630095
0.601662
0.575754
0.552397
0.531673
0.513721
0.498751
0.487049
0.478999
0.475087
0.475905
0.482135
0.494503
0.513717
0.540366
0.574817
0.61712
0.666952
0.72361
0.786067
0.853079
0.923306
0.995439
1.06829
1.14087
1.21238
1.28223
1.35001
1.41546
1.47841
1.53881
1.59663
1.6519
1.70469
1.75507
1.80315
1.84902
1.8928
1.93459
1.9745
2.01264
2.04911
2.08399
2.11739
2.14938
2.18006
2.20949
2.23774
2.2649
2.29101
2.31614
2.34035
2.36369
2.3862
2.40794
2.42894
2.44925
2.46891
2.48795
2.5064
2.5243
2.54167
2.55854
2.57494
2.59088
2.6064
2.62151
2.63623
2.65057
2.66456
2.6782
2.69151
2.70451
2.71719
2.72958
2.74168
2.75348
2.76501
2.77627
2.78726
2.79799
2.80848
2.81871
2.82871
2.83847
2.84799
2.85728
2.86634
2.87517
2.88377
2.89215
2.9003
2.90822
2.91591
2.92337
2.9306
2.9376
2.94435
2.95087
2.95713
2.96315
2.96892
2.97443
2.97968
2.98467
2.98939
2.99383
2.998
3.0019
3.00551
3.00884
3.01189
3.01465
3.01713
3.01938
3.02137
0.861389
0.814244
0.77153
0.732597
0.696917
0.664079
0.633769
0.605753
0.579862
0.555979
0.53403
0.513979
0.495828
0.479611
0.4654
0.453309
0.443493
0.436161
0.431574
0.430052
0.431968
0.437737
0.4478
0.462586
0.482476
0.507758
0.538577
0.574904
0.616511
0.662979
0.713717
0.768008
0.825061
0.884069
0.944259
1.00493
1.06548
1.12542
1.18435
1.242
1.29815
1.35266
1.40546
1.45649
1.50575
1.55324
1.59899
1.64303
1.68542
1.72621
1.76546
1.80324
1.8396
1.8746
1.90832
1.94081
1.97214
2.00235
2.0315
2.05964
2.08683
2.11311
2.13852
2.16311
2.18692
2.20999
2.23235
2.25405
2.2751
2.29554
2.31541
2.33472
2.3535
2.37178
2.38957
2.4069
2.42378
2.44024
2.45628
2.47193
2.48719
2.50209
2.51662
2.53081
2.54465
2.55815
2.57132
2.58417
2.59671
2.60894
2.62087
2.63251
2.64386
2.65492
2.66569
2.67619
2.68641
2.69634
2.706
2.71538
2.72448
2.7333
2.74184
2.75009
2.75805
2.76572
2.77309
2.78016
2.78693
2.79339
2.79954
2.80537
2.81088
2.81607
2.82094
2.82547
2.82968
2.83355
2.83709
2.84031
2.84324
2.84589
0.861406
0.814329
0.771776
0.733121
0.697834
0.665476
0.635686
0.608168
0.582682
0.559037
0.53708
0.516692
0.497782
0.480288
0.464168
0.449403
0.435996
0.423969
0.413369
0.404262
0.396745
0.390937
0.38699
0.385084
0.385432
0.38827
0.393857
0.402461
0.414344
0.429748
0.448872
0.471851
0.49874
0.5295
0.563987
0.601961
0.643088
0.68696
0.733121
0.781087
0.830373
0.880513
0.93108
0.981697
1.03204
1.08185
1.1309
1.17905
1.22616
1.27216
1.31699
1.36062
1.40302
1.4442
1.48416
1.52292
1.5605
1.59692
1.63222
1.66642
1.69956
1.73168
1.76282
1.79301
1.82229
1.8507
1.87827
1.90504
1.93104
1.9563
1.98085
2.00472
2.02793
2.05052
2.07251
2.09392
2.11477
2.13508
2.15488
2.17417
2.19299
2.21134
2.22925
2.24671
2.26375
2.28038
2.2966
2.31241
2.32783
2.34287
2.35752
2.37181
2.38573
2.39929
2.4125
2.42536
2.43788
2.45004
2.46187
2.47335
2.48449
2.49529
2.50574
2.51585
2.5256
2.535
2.54405
2.55274
2.56106
2.56901
2.5766
2.58381
2.59064
2.59709
2.60316
2.60884
2.61414
2.61905
2.62358
2.62772
2.63153
2.63502
0.861407
0.814342
0.77183
0.73326
0.698113
0.665954
0.636417
0.609191
0.584014
0.560665
0.538959
0.518737
0.499869
0.482247
0.46578
0.450397
0.43604
0.422666
0.410246
0.398762
0.388209
0.378592
0.36993
0.362255
0.355609
0.350053
0.345657
0.342512
0.340722
0.340409
0.341708
0.344772
0.349758
0.356833
0.366159
0.377891
0.392165
0.409092
0.428747
0.45116
0.476313
0.504137
0.534507
0.567251
0.602152
0.638956
0.677388
0.717154
0.757962
0.799522
0.841565
0.88384
0.926126
0.968229
1.00999
1.05127
1.09196
1.13199
1.17128
1.2098
1.24751
1.2844
1.32045
1.35565
1.39002
1.42356
1.45627
1.48816
1.51926
1.54958
1.57913
1.60794
1.63602
1.66339
1.69008
1.7161
1.74147
1.76622
1.79036
1.81391
1.83689
1.85932
1.88121
1.90257
1.92342
1.94377
1.96363
1.98302
2.00193
2.02039
2.03837
2.05589
2.07296
2.08958
2.10577
2.12153
2.13686
2.15177
2.16625
2.18031
2.19395
2.20717
2.21997
2.23234
2.24429
2.25581
2.2669
2.27756
2.28778
2.29756
2.3069
2.31579
2.32424
2.33224
2.33979
2.34689
2.35354
2.35974
2.3655
2.37081
2.37573
2.3803
0.861405
0.814337
0.771831
0.733277
0.698164
0.666062
0.636607
0.60949
0.584448
0.561253
0.53971
0.519653
0.500935
0.483431
0.467033
0.451647
0.437194
0.423603
0.410816
0.398785
0.387468
0.376832
0.366852
0.357508
0.348789
0.340687
0.333204
0.326348
0.32013
0.314572
0.309702
0.305553
0.30217
0.299604
0.297914
0.29717
0.297449
0.298836
0.301424
0.305311
0.3106
0.317392
0.325788
0.335883
0.347762
0.361495
0.377137
0.394719
0.41425
0.435711
0.459055
0.484211
0.511078
0.539534
0.569434
0.600619
0.632919
0.666157
0.700153
0.734734
0.76973
0.804983
0.84035
0.875701
0.91092
0.94591
0.980588
1.01488
1.04875
1.08213
1.11499
1.14732
1.17909
1.2103
1.24092
1.27097
1.30043
1.32932
1.35762
1.38534
1.41249
1.43907
1.46508
1.49054
1.51544
1.53979
1.5636
1.58688
1.60962
1.63184
1.65354
1.67473
1.6954
1.71555
1.73517
1.75428
1.77287
1.79096
1.80854
1.82561
1.84218
1.85824
1.87379
1.88884
1.90337
1.9174
1.9309
1.9439
1.95637
1.96833
1.97976
1.99068
2.00107
2.01094
2.0203
2.02913
2.03746
2.04527
2.05258
2.05939
2.06575
2.07172
0.861402
0.814329
0.77182
0.733266
0.698157
0.666065
0.636627
0.609537
0.584532
0.561385
0.539902
0.519913
0.50127
0.483846
0.467525
0.45221
0.437813
0.424257
0.411474
0.399403
0.387993
0.377196
0.366972
0.357284
0.348103
0.339402
0.331157
0.323351
0.315968
0.308997
0.302429
0.296259
0.290486
0.285112
0.28014
0.275581
0.271445
0.267749
0.264512
0.261758
0.259514
0.257813
0.256693
0.256195
0.256365
0.257255
0.25892
0.261418
0.264812
0.269165
0.274542
0.281005
0.288617
0.297435
0.307512
0.318891
0.33161
0.345691
0.361149
0.377983
0.396177
0.415704
0.436519
0.458567
0.481777
0.506068
0.531349
0.557523
0.584485
0.612127
0.640342
0.66902
0.698058
0.727353
0.756812
0.786345
0.815871
0.845317
0.874619
0.903717
0.932563
0.961114
0.989333
1.01719
1.04466
1.07172
1.09836
1.12455
1.1503
1.17557
1.20038
1.22471
1.24855
1.2719
1.29475
1.31708
1.33887
1.36011
1.38081
1.40096
1.42055
1.43958
1.45805
1.47595
1.49327
1.51002
1.5262
1.5418
1.55682
1.57126
1.58513
1.59843
1.61115
1.6233
1.6349
1.64593
1.65641
1.66635
1.67575
1.68462
1.69301
1.70097
0.8614
0.814321
0.77181
0.733253
0.698143
0.66605
0.636614
0.609527
0.584528
0.561391
0.53992
0.519948
0.501326
0.483926
0.467634
0.45235
0.437986
0.424462
0.411709
0.399665
0.388273
0.377484
0.367254
0.35754
0.348309
0.339526
0.331164
0.323195
0.315596
0.308347
0.301429
0.294824
0.288519
0.282502
0.27676
0.271286
0.266072
0.261112
0.256403
0.251941
0.247725
0.243758
0.24004
0.236576
0.233372
0.230436
0.227778
0.225408
0.223341
0.221593
0.220182
0.219128
0.218455
0.218189
0.218358
0.218993
0.220126
0.221792
0.22403
0.226878
0.230375
0.234562
0.239478
0.245164
0.251657
0.258994
0.267207
0.276325
0.286374
0.297371
0.309331
0.322259
0.336154
0.35101
0.366809
0.383528
0.401135
0.419592
0.438854
0.458868
0.479577
0.50092
0.522831
0.54524
0.568079
0.591275
0.614757
0.638456
0.662302
0.68623
0.710177
0.734084
0.757895
0.781559
0.80503
0.828266
0.851235
0.873898
0.896213
0.918147
0.939676
0.960778
0.981437
1.00164
1.02137
1.04062
1.05938
1.07765
1.09541
1.11267
1.12943
1.14568
1.16141
1.17664
1.19136
1.20557
1.21927
1.23247
1.24516
1.25736
1.26909
1.28035
0.861399
0.814317
0.771804
0.733245
0.698133
0.666039
0.636602
0.609515
0.584516
0.561379
0.53991
0.51994
0.501322
0.483926
0.46764
0.452363
0.438006
0.424492
0.411749
0.399716
0.388335
0.377557
0.367336
0.357631
0.348405
0.339624
0.331258
0.323279
0.315662
0.308383
0.301421
0.294758
0.288376
0.282259
0.276392
0.270762
0.265357
0.260167
0.25518
0.250389
0.245786
0.241362
0.237113
0.233033
0.229117
0.225362
0.221764
0.218323
0.215035
0.211901
0.208922
0.206097
0.20343
0.200923
0.198581
0.196407
0.194407
0.192589
0.19096
0.18953
0.188308
0.187306
0.186537
0.186015
0.185756
0.185776
0.186094
0.18673
0.187706
0.189043
0.190766
0.192899
0.19547
0.198504
0.202029
0.206072
0.210661
0.215824
0.221586
0.227974
0.23501
0.242717
0.251113
0.260216
0.270038
0.280588
0.291872
0.303891
0.316639
0.33011
0.344288
0.359155
0.374688
0.390859
0.407634
0.424977
0.442848
0.461204
0.480002