/*--------------------------------*- C++ -*----------------------------------*\
  =========                 |
  \\      /  F ield         | OpenFOAM: The Open Source CFD Toolbox
   \\    /   O peration     | Website:  https://openfoam.org
    \\  /    A nd           | Version:  8
     \\/     M anipulation  |
\*---------------------------------------------------------------------------*/
FoamFile
{
    version     2.0;
    format      ascii;
    class       volScalarField;
    location    "750";
    object      nut;
}
// * * * * * * * * * * * * * * * * * * * * * * * * * * * * * * * * * * * * * //

dimensions      [0 2 -1 0 0 0 0];

internalField   nonuniform List<scalar> 
7320
(
0.000286299
0.000273847
0.000266049
0.000260783
0.000256941
0.000253973
0.00025158
0.000249592
0.000247905
0.000246449
0.000245176
0.000244051
0.000243048
0.000242148
0.000241334
0.000240596
0.000239922
0.000239306
0.000238739
0.000238217
0.000237735
0.000237288
0.000236874
0.000236489
0.000236131
0.000235797
0.000235485
0.000235194
0.000234922
0.000234667
0.000234429
0.000234206
0.000233997
0.000233801
0.000233617
0.000233445
0.000233283
0.000233132
0.000232991
0.000232858
0.000232734
0.000232618
0.00023251
0.000232409
0.000232315
0.000232227
0.000232145
0.00023207
0.000232
0.000231935
0.000231876
0.000231822
0.000231772
0.000231727
0.000231686
0.000231649
0.000231617
0.000231588
0.000231563
0.000231542
0.000231524
0.000231509
0.000231498
0.00023149
0.000231485
0.000231482
0.000231483
0.000231486
0.000231492
0.0002315
0.00023151
0.000231523
0.000231537
0.000231554
0.000231572
0.000231593
0.000231615
0.000231638
0.000231664
0.00023169
0.000231718
0.000231748
0.000231778
0.00023181
0.000231843
0.000231877
0.000231912
0.000231948
0.000231985
0.000232023
0.000232061
0.000232101
0.000232141
0.000232182
0.000232224
0.000232266
0.000232309
0.000232353
0.000232398
0.000232443
0.000232488
0.000232534
0.000232581
0.000232628
0.000232676
0.000232724
0.000232772
0.000232821
0.00023287
0.00023292
0.000232969
0.000233019
0.00023307
0.00023312
0.00023317
0.000233221
0.000233272
0.000233322
0.000233373
0.000233423
0.000233472
0.000233522
0.000562815
0.000740638
0.000767571
0.000767651
0.000763096
0.000757975
0.000753148
0.000748779
0.000744861
0.00074135
0.000738193
0.000735345
0.000732764
0.000730416
0.000728271
0.000726307
0.000724501
0.000722838
0.000721301
0.000719879
0.00071856
0.000717334
0.000716194
0.000715131
0.00071414
0.000713215
0.00071235
0.000711541
0.000710784
0.000710076
0.000709412
0.00070879
0.000708208
0.000707662
0.000707151
0.000706672
0.000706223
0.000705803
0.000705411
0.000705043
0.0007047
0.000704381
0.000704082
0.000703805
0.000703547
0.000703307
0.000703085
0.00070288
0.000702691
0.000702518
0.000702359
0.000702215
0.000702084
0.000701967
0.000701862
0.00070177
0.00070169
0.000701622
0.000701566
0.000701521
0.000701488
0.000701465
0.000701453
0.000701452
0.000701461
0.000701479
0.000701506
0.000701543
0.000701588
0.00070164
0.000701701
0.000701769
0.000701844
0.000701925
0.000702012
0.000702104
0.000702201
0.000702302
0.000702407
0.000702516
0.000702628
0.000702742
0.000702858
0.000702977
0.000703097
0.000703218
0.000703339
0.000703462
0.000703584
0.000703707
0.00070383
0.000703952
0.000704074
0.000704195
0.000704315
0.000704434
0.000704552
0.000704669
0.000704785
0.000704899
0.000705011
0.000705122
0.000705231
0.000705339
0.000705445
0.000705549
0.000705651
0.000705751
0.000705849
0.000705945
0.000706039
0.000706131
0.000706221
0.000706309
0.000706395
0.000706479
0.000706561
0.000706641
0.00070672
0.000706796
0.00070687
0.00070693
0.00076108
0.00115457
0.00127125
0.00130573
0.00131552
0.00131688
0.00131508
0.00131204
0.00130855
0.00130497
0.00130147
0.00129811
0.00129493
0.00129193
0.00128913
0.0012865
0.00128405
0.00128176
0.00127961
0.00127761
0.00127574
0.00127398
0.00127234
0.0012708
0.00126936
0.00126801
0.00126674
0.00126555
0.00126444
0.0012634
0.00126242
0.0012615
0.00126064
0.00125984
0.00125908
0.00125838
0.00125772
0.0012571
0.00125652
0.00125599
0.00125549
0.00125502
0.00125459
0.0012542
0.00125383
0.00125349
0.00125317
0.00125289
0.00125263
0.00125239
0.00125218
0.00125199
0.00125182
0.00125167
0.00125154
0.00125144
0.00125135
0.00125129
0.00125124
0.00125122
0.00125121
0.00125123
0.00125126
0.00125132
0.00125139
0.00125148
0.00125159
0.00125171
0.00125185
0.001252
0.00125217
0.00125235
0.00125254
0.00125274
0.00125295
0.00125317
0.0012534
0.00125363
0.00125387
0.00125411
0.00125435
0.00125459
0.00125483
0.00125508
0.00125532
0.00125556
0.00125579
0.00125603
0.00125626
0.00125648
0.0012567
0.00125691
0.00125712
0.00125731
0.00125751
0.00125769
0.00125787
0.00125804
0.0012582
0.00125836
0.0012585
0.00125864
0.00125877
0.00125889
0.00125901
0.00125912
0.00125921
0.0012593
0.00125939
0.00125946
0.00125953
0.00125959
0.00125964
0.00125968
0.00125972
0.00125976
0.00125978
0.00125981
0.00125982
0.00125983
0.00125985
0.00125982
0.00094219
0.00154866
0.00180331
0.00190635
0.0019512
0.00197187
0.00198147
0.00198555
0.00198668
0.00198617
0.00198472
0.00198276
0.00198051
0.00197813
0.00197571
0.00197331
0.00197095
0.00196867
0.00196648
0.00196438
0.00196238
0.00196047
0.00195867
0.00195695
0.00195534
0.00195381
0.00195237
0.00195101
0.00194973
0.00194852
0.00194739
0.00194633
0.00194534
0.0019444
0.00194353
0.00194272
0.00194196
0.00194126
0.0019406
0.00193999
0.00193943
0.00193891
0.00193844
0.001938
0.00193761
0.00193725
0.00193692
0.00193663
0.00193637
0.00193614
0.00193594
0.00193577
0.00193563
0.00193552
0.00193544
0.00193538
0.00193536
0.00193536
0.0019354
0.00193546
0.00193556
0.00193568
0.00193584
0.00193602
0.00193623
0.00193647
0.00193674
0.00193703
0.00193734
0.00193768
0.00193804
0.00193841
0.0019388
0.00193921
0.00193963
0.00194006
0.00194049
0.00194093
0.00194138
0.00194183
0.00194227
0.00194271
0.00194315
0.00194358
0.00194401
0.00194442
0.00194482
0.00194521
0.00194559
0.00194596
0.0019463
0.00194663
0.00194695
0.00194725
0.00194752
0.00194779
0.00194803
0.00194825
0.00194845
0.00194864
0.0019488
0.00194895
0.00194908
0.00194918
0.00194927
0.00194934
0.00194939
0.00194942
0.00194944
0.00194944
0.00194942
0.00194938
0.00194933
0.00194927
0.00194919
0.0019491
0.00194899
0.00194888
0.00194876
0.00194862
0.0019485
0.00194828
0.00110978
0.00189233
0.00232606
0.0025368
0.00264438
0.00270313
0.00273713
0.00275765
0.00277031
0.00277817
0.00278296
0.00278574
0.00278718
0.00278769
0.00278758
0.00278703
0.00278618
0.00278514
0.00278397
0.00278273
0.00278144
0.00278014
0.00277885
0.00277758
0.00277634
0.00277515
0.002774
0.0027729
0.00277185
0.00277085
0.00276991
0.00276903
0.0027682
0.00276742
0.0027667
0.00276602
0.0027654
0.00276483
0.00276431
0.00276383
0.00276341
0.00276302
0.00276268
0.00276238
0.00276211
0.00276189
0.0027617
0.00276155
0.00276144
0.00276135
0.0027613
0.00276129
0.0027613
0.00276135
0.00276144
0.00276155
0.00276171
0.0027619
0.00276213
0.0027624
0.00276271
0.00276305
0.00276344
0.00276387
0.00276434
0.00276484
0.00276539
0.00276596
0.00276657
0.00276721
0.00276787
0.00276856
0.00276927
0.00277
0.00277075
0.0027715
0.00277226
0.00277302
0.00277378
0.00277454
0.0027753
0.00277604
0.00277677
0.00277748
0.00277817
0.00277884
0.00277949
0.00278011
0.0027807
0.00278127
0.0027818
0.00278231
0.00278277
0.00278321
0.00278361
0.00278397
0.0027843
0.00278459
0.00278484
0.00278506
0.00278524
0.00278539
0.00278549
0.00278557
0.0027856
0.0027856
0.00278557
0.00278551
0.00278541
0.00278528
0.00278512
0.00278492
0.0027847
0.00278446
0.00278419
0.0027839
0.00278358
0.00278325
0.0027829
0.00278254
0.00278218
0.00278168
0.00129926
0.00216764
0.00280717
0.00316585
0.00336954
0.00349116
0.00356775
0.00361825
0.00365279
0.00367709
0.00369457
0.00370734
0.00371679
0.00372385
0.00372913
0.0037331
0.00373607
0.00373829
0.00373993
0.00374111
0.00374196
0.00374253
0.0037429
0.00374312
0.00374321
0.00374322
0.00374316
0.00374305
0.00374292
0.00374276
0.0037426
0.00374245
0.00374229
0.00374216
0.00374204
0.00374194
0.00374186
0.00374181
0.00374179
0.0037418
0.00374183
0.0037419
0.00374199
0.00374211
0.00374226
0.00374245
0.00374266
0.00374289
0.00374316
0.00374345
0.00374377
0.00374413
0.00374451
0.00374492
0.00374537
0.00374585
0.00374638
0.00374694
0.00374755
0.0037482
0.0037489
0.00374965
0.00375045
0.00375129
0.00375219
0.00375314
0.00375413
0.00375516
0.00375624
0.00375735
0.00375849
0.00375967
0.00376087
0.00376208
0.00376332
0.00376456
0.0037658
0.00376705
0.00376828
0.00376951
0.00377072
0.0037719
0.00377306
0.00377419
0.00377528
0.00377633
0.00377734
0.00377831
0.00377922
0.00378009
0.0037809
0.00378166
0.00378236
0.003783
0.00378359
0.00378411
0.00378457
0.00378497
0.00378531
0.00378559
0.00378581
0.00378596
0.00378605
0.00378609
0.00378606
0.00378598
0.00378584
0.00378564
0.00378538
0.00378508
0.00378472
0.00378431
0.00378386
0.00378336
0.00378282
0.00378224
0.00378163
0.00378098
0.00378031
0.00377961
0.00377893
0.00377801
0.00158937
0.00236976
0.00321596
0.00375923
0.00409609
0.00431112
0.00445413
0.00455312
0.00462407
0.00467641
0.00471597
0.00474649
0.00477044
0.00478951
0.00480489
0.00481744
0.00482777
0.00483636
0.00484356
0.00484964
0.00485482
0.00485926
0.00486309
0.00486643
0.00486936
0.00487194
0.00487424
0.0048763
0.00487817
0.00487987
0.00488143
0.00488288
0.00488424
0.00488551
0.00488673
0.00488789
0.00488901
0.0048901
0.00489116
0.00489221
0.00489324
0.00489426
0.00489527
0.00489628
0.00489729
0.0048983
0.00489932
0.00490034
0.00490136
0.0049024
0.00490344
0.0049045
0.00490558
0.00490667
0.00490779
0.00490894
0.00491013
0.00491135
0.00491261
0.00491393
0.00491529
0.0049167
0.00491817
0.0049197
0.00492128
0.00492292
0.00492462
0.00492636
0.00492815
0.00492999
0.00493186
0.00493376
0.00493569
0.00493764
0.00493959
0.00494156
0.00494352
0.00494547
0.00494741
0.00494931
0.00495119
0.00495303
0.00495482
0.00495656
0.00495824
0.00495985
0.0049614
0.00496288
0.00496428
0.0049656
0.00496683
0.00496798
0.00496904
0.00497001
0.00497088
0.00497166
0.00497235
0.00497294
0.00497343
0.00497383
0.00497413
0.00497433
0.00497444
0.00497445
0.00497437
0.0049742
0.00497393
0.00497358
0.00497314
0.00497261
0.00497201
0.00497132
0.00497056
0.00496973
0.00496883
0.00496787
0.00496685
0.00496578
0.00496466
0.0049635
0.00496235
0.00496087
0.00212976
0.00251869
0.00352583
0.00427893
0.00478634
0.00512981
0.00536872
0.00554022
0.00566706
0.00576335
0.00583815
0.00589739
0.00594512
0.00598413
0.00601645
0.00604352
0.00606643
0.00608601
0.00610287
0.00611753
0.00613035
0.00614164
0.00615166
0.00616061
0.00616864
0.00617589
0.00618248
0.00618849
0.00619402
0.00619911
0.00620384
0.00620825
0.00621238
0.00621626
0.00621993
0.00622341
0.00622673
0.00622991
0.00623296
0.00623589
0.00623873
0.00624148
0.00624416
0.00624677
0.00624931
0.0062518
0.00625425
0.00625665
0.00625901
0.00626134
0.00626364
0.00626593
0.0062682
0.00627046
0.00627272
0.00627499
0.00627727
0.00627958
0.00628192
0.0062843
0.00628673
0.0062892
0.00629173
0.00629432
0.00629696
0.00629967
0.00630243
0.00630525
0.00630812
0.00631103
0.00631397
0.00631695
0.00631995
0.00632297
0.00632599
0.00632901
0.00633201
0.00633499
0.00633794
0.00634084
0.00634369
0.00634647
0.00634918
0.00635182
0.00635436
0.0063568
0.00635915
0.00636138
0.0063635
0.00636549
0.00636737
0.00636911
0.00637072
0.00637219
0.00637352
0.00637472
0.00637577
0.00637668
0.00637744
0.00637806
0.00637854
0.00637886
0.00637905
0.00637909
0.006379
0.00637876
0.00637838
0.00637787
0.00637722
0.00637645
0.00637555
0.00637452
0.00637338
0.00637213
0.00637078
0.00636932
0.00636777
0.00636613
0.00636443
0.00636264
0.00636085
0.00635861
0.0031541
0.00268382
0.00372393
0.00468584
0.00539542
0.00590413
0.00627311
0.00654666
0.00675434
0.00691556
0.00704326
0.00714624
0.00723059
0.00730064
0.00735953
0.00740958
0.00745254
0.00748974
0.00752221
0.00755076
0.00757604
0.00759856
0.00761874
0.00763694
0.00765342
0.00766842
0.00768215
0.00769477
0.00770641
0.0077172
0.00772723
0.0077366
0.00774539
0.00775365
0.00776145
0.00776883
0.00777584
0.00778251
0.00778889
0.007795
0.00780086
0.00780651
0.00781195
0.00781721
0.00782231
0.00782725
0.00783205
0.00783673
0.00784129
0.00784574
0.0078501
0.00785437
0.00785858
0.00786272
0.00786682
0.00787088
0.00787492
0.00787895
0.00788298
0.00788703
0.0078911
0.00789521
0.00789936
0.00790356
0.00790781
0.00791212
0.00791647
0.00792088
0.00792533
0.00792982
0.00793434
0.00793889
0.00794344
0.00794801
0.00795256
0.0079571
0.0079616
0.00796605
0.00797045
0.00797478
0.00797902
0.00798317
0.00798721
0.00799112
0.00799491
0.00799856
0.00800206
0.0080054
0.00800857
0.00801157
0.00801439
0.00801702
0.00801946
0.00802171
0.00802376
0.0080256
0.00802724
0.00802867
0.0080299
0.00803091
0.00803172
0.00803231
0.0080327
0.00803288
0.00803285
0.00803261
0.00803217
0.00803153
0.00803069
0.00802966
0.00802844
0.00802704
0.00802546
0.0080237
0.00802179
0.00801972
0.00801751
0.00801516
0.0080127
0.0080101
0.00800748
0.00800424
0.00493181
0.00302612
0.0038337
0.00494834
0.00587406
0.00658116
0.00711649
0.00752622
0.00784508
0.00809766
0.00830115
0.00846767
0.00860586
0.00872199
0.00882068
0.0089054
0.00897879
0.0090429
0.00909931
0.00914929
0.00919386
0.00923384
0.00926988
0.00930254
0.00933229
0.00935949
0.00938448
0.00940751
0.00942883
0.00944864
0.0094671
0.00948435
0.00950054
0.00951576
0.00953012
0.00954371
0.00955659
0.00956884
0.00958051
0.00959166
0.00960233
0.00961257
0.0096224
0.00963187
0.00964099
0.00964981
0.00965834
0.0096666
0.00967461
0.0096824
0.00968998
0.00969737
0.00970459
0.00971166
0.00971861
0.00972544
0.00973219
0.00973886
0.00974548
0.00975207
0.00975864
0.00976521
0.00977179
0.00977839
0.00978502
0.00979168
0.00979838
0.00980511
0.00981186
0.00981864
0.00982543
0.00983223
0.00983902
0.00984579
0.00985253
0.00985923
0.00986586
0.00987241
0.00987888
0.00988523
0.00989145
0.00989754
0.00990347
0.00990922
0.00991479
0.00992016
0.00992533
0.00993027
0.00993497
0.00993943
0.00994365
0.0099476
0.00995128
0.00995469
0.00995783
0.00996068
0.00996324
0.00996551
0.00996749
0.00996918
0.00997056
0.00997165
0.00997245
0.00997294
0.00997314
0.00997305
0.00997266
0.00997199
0.00997103
0.00996978
0.00996826
0.00996647
0.00996442
0.00996212
0.00995957
0.00995679
0.00995379
0.00995058
0.00994718
0.00994358
0.00993991
0.00993542
0.00765447
0.00384129
0.0039599
0.0050637
0.00617752
0.00710148
0.0078361
0.00841791
0.00888249
0.00925803
0.00956562
0.00982082
0.0100351
0.0102171
0.0103732
0.0105082
0.0106262
0.0107298
0.0108217
0.0109035
0.0109768
0.0110429
0.0111028
0.0111573
0.011207
0.0112527
0.0112948
0.0113337
0.0113697
0.0114033
0.0114346
0.0114639
0.0114914
0.0115173
0.0115417
0.0115648
0.0115867
0.0116075
0.0116273
0.0116462
0.0116642
0.0116815
0.0116981
0.011714
0.0117293
0.011744
0.0117582
0.011772
0.0117853
0.0117981
0.0118106
0.0118227
0.0118345
0.0118461
0.0118573
0.0118683
0.0118791
0.0118898
0.0119003
0.0119107
0.0119209
0.0119312
0.0119413
0.0119514
0.0119615
0.0119716
0.0119817
0.0119918
0.0120019
0.0120119
0.012022
0.012032
0.0120419
0.0120518
0.0120617
0.0120714
0.012081
0.0120906
0.0120999
0.0121091
0.0121182
0.012127
0.0121356
0.0121439
0.012152
0.0121599
0.0121674
0.0121746
0.0121815
0.0121881
0.0121943
0.0122002
0.0122057
0.0122109
0.0122156
0.01222
0.012224
0.0122276
0.0122308
0.0122335
0.0122359
0.0122378
0.0122394
0.0122405
0.0122412
0.0122415
0.0122414
0.0122409
0.01224
0.0122386
0.0122369
0.0122348
0.0122323
0.0122295
0.0122263
0.0122227
0.0122189
0.0122147
0.0122102
0.0122054
0.0122005
0.0121944
0.0113266
0.00551803
0.00435849
0.00510578
0.00628855
0.00740978
0.00836168
0.0091471
0.00979278
0.0103264
0.0107711
0.0111453
0.0114634
0.0117362
0.0119723
0.0121782
0.0123592
0.0125193
0.0126619
0.0127896
0.0129046
0.0130086
0.0131032
0.0131896
0.0132687
0.0133415
0.0134088
0.0134711
0.0135289
0.0135829
0.0136333
0.0136805
0.0137248
0.0137666
0.013806
0.0138433
0.0138786
0.0139122
0.0139441
0.0139745
0.0140036
0.0140313
0.014058
0.0140835
0.014108
0.0141316
0.0141543
0.0141762
0.0141973
0.0142178
0.0142376
0.0142567
0.0142754
0.0142935
0.0143111
0.0143283
0.0143451
0.0143616
0.0143778
0.0143938
0.0144095
0.014425
0.0144404
0.0144556
0.0144708
0.0144858
0.0145007
0.0145156
0.0145304
0.0145451
0.0145598
0.0145743
0.0145887
0.014603
0.0146172
0.0146312
0.0146451
0.0146588
0.0146722
0.0146854
0.0146983
0.014711
0.0147233
0.0147353
0.014747
0.0147583
0.0147692
0.0147796
0.0147897
0.0147993
0.0148084
0.0148171
0.0148253
0.014833
0.0148401
0.0148468
0.0148529
0.0148585
0.0148635
0.014868
0.014872
0.0148753
0.0148782
0.0148804
0.0148821
0.0148832
0.0148838
0.0148837
0.0148832
0.014882
0.0148804
0.0148781
0.0148754
0.0148721
0.0148683
0.014864
0.0148592
0.014854
0.0148483
0.0148422
0.0148359
0.0148281
0.0157248
0.0083437
0.00547916
0.00531275
0.00627167
0.00748282
0.00862975
0.00963244
0.0104877
0.0112134
0.0118305
0.0123582
0.0128125
0.0132064
0.0135503
0.0138528
0.0141205
0.0143588
0.0145721
0.0147641
0.0149377
0.0150955
0.0152394
0.0153712
0.0154923
0.0156041
0.0157075
0.0158035
0.0158929
0.0159763
0.0160543
0.0161275
0.0161964
0.0162612
0.0163225
0.0163804
0.0164354
0.0164876
0.0165372
0.0165845
0.0166296
0.0166728
0.0167141
0.0167537
0.0167917
0.0168282
0.0168634
0.0168972
0.0169298
0.0169614
0.0169918
0.0170213
0.0170499
0.0170776
0.0171046
0.0171308
0.0171564
0.0171814
0.0172059
0.0172299
0.0172535
0.0172767
0.0172995
0.0173221
0.0173444
0.0173665
0.0173884
0.0174101
0.0174315
0.0174528
0.0174739
0.0174948
0.0175155
0.017536
0.0175563
0.0175763
0.017596
0.0176154
0.0176345
0.0176533
0.0176717
0.0176896
0.0177072
0.0177243
0.017741
0.0177571
0.0177727
0.0177878
0.0178023
0.0178162
0.0178295
0.0178421
0.0178541
0.0178655
0.0178762
0.0178862
0.0178955
0.0179041
0.0179119
0.0179191
0.0179255
0.0179311
0.017936
0.0179401
0.0179435
0.0179461
0.017948
0.0179491
0.0179494
0.0179489
0.0179477
0.0179457
0.017943
0.0179396
0.0179355
0.0179306
0.0179251
0.0179189
0.0179121
0.0179046
0.0178967
0.017887
0.0204365
0.0122987
0.00781877
0.0061763
0.00638132
0.00739745
0.00862145
0.00980678
0.0108762
0.0118169
0.0126375
0.0133529
0.0139782
0.0145273
0.0150118
0.0154416
0.0158248
0.0161683
0.0164775
0.0167573
0.0170115
0.0172433
0.0174556
0.0176506
0.0178304
0.0179968
0.018151
0.0182945
0.0184284
0.0185535
0.0186708
0.018781
0.0188847
0.0189825
0.0190749
0.0191624
0.0192455
0.0193243
0.0193994
0.0194709
0.0195391
0.0196044
0.0196668
0.0197267
0.0197841
0.0198392
0.0198923
0.0199433
0.0199925
0.02004
0.0200858
0.0201302
0.0201731
0.0202147
0.020255
0.0202943
0.0203324
0.0203697
0.020406
0.0204415
0.0204764
0.0205105
0.0205441
0.0205771
0.0206096
0.0206416
0.0206733
0.0207045
0.0207354
0.020766
0.0207961
0.0208259
0.0208554
0.0208844
0.0209131
0.0209414
0.0209693
0.0209967
0.0210237
0.0210502
0.0210761
0.0211015
0.0211263
0.0211505
0.0211741
0.021197
0.0212192
0.0212407
0.0212614
0.0212814
0.0213005
0.0213189
0.0213364
0.021353
0.0213688
0.0213836
0.0213976
0.0214106
0.0214227
0.0214338
0.0214439
0.0214531
0.0214612
0.0214684
0.0214745
0.0214797
0.0214838
0.0214869
0.0214889
0.02149
0.02149
0.021489
0.0214869
0.0214839
0.0214799
0.0214749
0.0214689
0.0214621
0.0214543
0.0214457
0.0214363
0.0214246
0.024966
0.017029
0.011559
0.0083344
0.00718515
0.00746836
0.008455
0.00967288
0.0108973
0.0120408
0.0130773
0.0140053
0.014833
0.0155712
0.0162309
0.0168222
0.0173542
0.0178345
0.01827
0.0186661
0.0190279
0.0193593
0.0196641
0.0199451
0.020205
0.0204461
0.0206704
0.0208795
0.0210749
0.021258
0.0214298
0.0215915
0.0217439
0.0218879
0.022024
0.0221531
0.0222755
0.022392
0.0225028
0.0226085
0.0227095
0.022806
0.0228983
0.0229868
0.0230717
0.0231533
0.0232317
0.0233072
0.0233799
0.02345
0.0235177
0.0235831
0.0236464
0.0237077
0.0237671
0.0238248
0.0238808
0.0239354
0.0239886
0.0240404
0.0240912
0.0241408
0.0241894
0.0242372
0.024284
0.0243301
0.0243755
0.0244202
0.0244642
0.0245076
0.0245504
0.0245926
0.0246342
0.0246752
0.0247156
0.0247554
0.0247945
0.024833
0.0248709
0.024908
0.0249444
0.02498
0.0250148
0.0250488
0.025082
0.0251143
0.0251456
0.025176
0.0252055
0.0252339
0.0252613
0.0252877
0.0253129
0.025337
0.0253601
0.0253819
0.0254025
0.025422
0.0254402
0.0254572
0.0254729
0.0254874
0.0255005
0.0255124
0.0255229
0.0255321
0.0255399
0.0255464
0.0255515
0.0255553
0.0255577
0.0255587
0.0255584
0.0255567
0.0255536
0.0255493
0.0255436
0.0255367
0.0255285
0.025519
0.0255086
0.0254952
0.0288721
0.0219727
0.0163572
0.0121026
0.00944208
0.00839318
0.00856599
0.00943681
0.0106072
0.0118514
0.0130626
0.0141965
0.0152393
0.0161903
0.0170549
0.0178406
0.0185555
0.0192071
0.0198026
0.0203481
0.0208492
0.0213109
0.0217373
0.0221321
0.0224988
0.02284
0.0231583
0.0234559
0.0237348
0.0239966
0.024243
0.0244751
0.0246943
0.0249016
0.025098
0.0252843
0.0254613
0.0256298
0.0257904
0.0259435
0.0260899
0.0262298
0.0263639
0.0264924
0.0266157
0.0267342
0.0268481
0.0269577
0.0270634
0.0271653
0.0272636
0.0273586
0.0274504
0.0275394
0.0276255
0.0277091
0.0277902
0.0278691
0.0279459
0.0280207
0.0280938
0.0281651
0.0282348
0.0283031
0.02837
0.0284357
0.0285002
0.0285636
0.0286259
0.0286872
0.0287475
0.0288068
0.0288652
0.0289227
0.0289793
0.0290349
0.0290896
0.0291433
0.0291961
0.0292479
0.0292986
0.0293484
0.029397
0.0294445
0.0294909
0.0295362
0.0295802
0.029623
0.0296645
0.0297047
0.0297436
0.0297811
0.0298172
0.0298519
0.0298852
0.0299169
0.0299471
0.0299758
0.0300029
0.0300285
0.0300523
0.0300746
0.0300952
0.0301141
0.0301312
0.0301467
0.0301604
0.0301723
0.0301824
0.0301908
0.0301973
0.0302021
0.030205
0.0302061
0.0302054
0.030203
0.0301988
0.0301928
0.0301852
0.0301758
0.030165
0.0301504
0.0318859
0.0265354
0.0215162
0.0170871
0.0134893
0.0110289
0.00983786
0.0097379
0.0103766
0.011418
0.0126294
0.0138773
0.0150935
0.0162465
0.0173241
0.0183238
0.0192482
0.0201018
0.0208901
0.0216189
0.0222936
0.0229193
0.0235006
0.0240417
0.0245463
0.025018
0.0254596
0.0258739
0.0262632
0.0266297
0.0269754
0.0273019
0.0276108
0.0279035
0.0281812
0.0284451
0.0286963
0.0289355
0.0291638
0.0293818
0.0295903
0.0297898
0.0299811
0.0301645
0.0303407
0.03051
0.0306729
0.0308297
0.0309808
0.0311266
0.0312673
0.0314033
0.0315347
0.031662
0.0317852
0.0319047
0.0320207
0.0321334
0.032243
0.0323496
0.0324536
0.032555
0.032654
0.0327509
0.0328456
0.0329384
0.0330293
0.0331185
0.033206
0.033292
0.0333765
0.0334594
0.033541
0.0336211
0.0336999
0.0337772
0.0338533
0.0339279
0.0340012
0.0340731
0.0341435
0.0342126
0.0342801
0.0343462
0.0344108
0.0344738
0.0345353
0.0345951
0.0346533
0.0347098
0.0347646
0.0348177
0.0348689
0.0349183
0.0349659
0.0350115
0.0350553
0.035097
0.0351368
0.0351745
0.0352101
0.0352437
0.0352751
0.0353044
0.0353314
0.0353562
0.0353788
0.0353991
0.035417
0.0354327
0.035446
0.0354569
0.0354654
0.0354716
0.0354754
0.0354768
0.0354759
0.0354727
0.0354671
0.0354593
0.0354494
0.0354348
0.0339568
0.0302574
0.0262964
0.0224018
0.0187493
0.0155657
0.0131348
0.01166
0.0111401
0.0113925
0.0121663
0.0132379
0.014448
0.0156984
0.0169334
0.0181236
0.0192548
0.0203216
0.0213231
0.0222613
0.0231394
0.0239613
0.0247308
0.0254521
0.0261288
0.0267645
0.0273626
0.027926
0.0284574
0.0289594
0.0294343
0.0298842
0.0303109
0.0307161
0.0311014
0.0314683
0.0318181
0.0321518
0.0324707
0.0327757
0.0330676
0.0333475
0.0336159
0.0338736
0.0341213
0.0343596
0.034589
0.0348099
0.035023
0.0352287
0.0354272
0.0356192
0.0358048
0.0359845
0.0361585
0.0363273
0.036491
0.0366501
0.0368046
0.036955
0.0371015
0.0372443
0.0373835
0.0375195
0.0376524
0.0377824
0.0379096
0.0380342
0.0381564
0.0382762
0.0383937
0.038509
0.0386222
0.0387333
0.0388424
0.0389495
0.0390547
0.0391579
0.0392591
0.0393584
0.0394558
0.0395512
0.0396446
0.0397361
0.0398255
0.0399128
0.0399981
0.0400813
0.0401624
0.0402412
0.0403179
0.0403923
0.0404644
0.0405342
0.0406016
0.0406667
0.0407292
0.0407893
0.0408468
0.0409018
0.0409541
0.0410037
0.0410507
0.0410948
0.0411362
0.0411747
0.0412104
0.0412431
0.0412729
0.0412996
0.0413233
0.041344
0.0413616
0.041376
0.0413874
0.0413957
0.0414008
0.0414029
0.0414019
0.0413979
0.0413911
0.0413784
0.0352156
0.0329264
0.0301548
0.0271692
0.0241079
0.0210828
0.0182539
0.0158401
0.0140585
0.0130304
0.012737
0.0130508
0.0138009
0.0148263
0.0160022
0.0172434
0.018496
0.0197278
0.0209204
0.0220639
0.0231539
0.024189
0.0251701
0.026099
0.026978
0.0278099
0.0285976
0.0293438
0.0300513
0.0307226
0.0313602
0.0319664
0.0325433
0.0330929
0.0336169
0.0341171
0.0345949
0.0350519
0.0354894
0.0359086
0.0363105
0.0366964
0.037067
0.0374233
0.0377662
0.0380963
0.0384145
0.0387213
0.0390174
0.0393034
0.0395797
0.039847
0.0401056
0.040356
0.0405987
0.0408341
0.0410625
0.0412843
0.0415
0.0417097
0.0419138
0.0421127
0.0423067
0.0424959
0.0426807
0.0428613
0.0430378
0.0432106
0.0433798
0.0435456
0.043708
0.0438673
0.0440235
0.0441767
0.044327
0.0444744
0.0446191
0.044761
0.0449002
0.0450368
0.0451706
0.0453018
0.0454303
0.0455562
0.0456793
0.0457998
0.0459175
0.0460324
0.0461446
0.046254
0.0463605
0.0464642
0.0465649
0.0466627
0.0467574
0.0468491
0.0469377
0.0470231
0.0471053
0.0471842
0.0472599
0.0473321
0.0474009
0.0474663
0.047528
0.0475862
0.0476407
0.0476915
0.0477385
0.0477816
0.0478209
0.0478563
0.0478876
0.047915
0.0479384
0.0479577
0.047973
0.0479842
0.0479914
0.0479946
0.0479941
0.0479864
0.0358864
0.034593
0.0328633
0.0308401
0.0286213
0.0262674
0.0238358
0.0214144
0.0191386
0.0171788
0.0156958
0.0147878
0.0144645
0.0146593
0.0152639
0.0161609
0.0172464
0.01844
0.0196844
0.0209414
0.0221859
0.0234025
0.0245816
0.025718
0.0268092
0.0278544
0.0288542
0.0298095
0.0307222
0.0315938
0.0324266
0.0332223
0.0339831
0.0347108
0.0354074
0.0360744
0.0367138
0.0373269
0.0379154
0.0384806
0.0390238
0.0395463
0.0400491
0.0405334
0.0410001
0.0414502
0.0418846
0.042304
0.0427093
0.0431011
0.0434801
0.043847
0.0442024
0.0445468
0.0448807
0.0452048
0.0455194
0.0458251
0.0461223
0.0464114
0.0466928
0.046967
0.0472342
0.047495
0.0477494
0.047998
0.0482409
0.0484785
0.048711
0.0489386
0.0491615
0.0493799
0.049594
0.0498039
0.0500097
0.0502115
0.0504093
0.0506034
0.0507938
0.0509804
0.0511635
0.0513429
0.0515187
0.051691
0.0518597
0.0520248
0.0521863
0.0523442
0.0524985
0.0526492
0.0527962
0.0529395
0.0530791
0.0532149
0.0533468
0.0534749
0.053599
0.0537192
0.0538353
0.0539473
0.0540551
0.0541586
0.0542578
0.0543527
0.054443
0.0545288
0.0546099
0.0546864
0.054758
0.0548248
0.0548866
0.0549434
0.0549952
0.0550418
0.0550833
0.0551196
0.0551506
0.0551765
0.0551971
0.0552125
0.055223
0.0552248
0.0361963
0.0354884
0.0345011
0.0332718
0.0318469
0.0302605
0.0285351
0.0266917
0.024764
0.0228124
0.0209309
0.0192398
0.0178631
0.0168966
0.0163857
0.0163216
0.0166534
0.0173069
0.0182017
0.0192644
0.020434
0.0216643
0.0229216
0.0241827
0.0254314
0.0266568
0.0278519
0.0290123
0.0301354
0.0312203
0.0322666
0.0332747
0.0342455
0.03518
0.0360794
0.0369452
0.0377787
0.0385814
0.0393546
0.0400997
0.0408181
0.041511
0.0421796
0.042825
0.0434485
0.044051
0.0446336
0.0451971
0.0457426
0.0462707
0.0467824
0.0472784
0.0477593
0.048226
0.0486789
0.0491189
0.0495464
0.049962
0.0503664
0.05076
0.0511432
0.0515167
0.0518809
0.0522361
0.0525829
0.0529216
0.0532525
0.0535761
0.0538927
0.0542025
0.0545058
0.0548029
0.0550941
0.0553794
0.0556592
0.0559335
0.0562024
0.0564661
0.0567246
0.0569782
0.0572269
0.0574708
0.0577098
0.0579441
0.0581737
0.0583986
0.0586188
0.0588343
0.0590451
0.0592512
0.0594526
0.0596492
0.0598411
0.0600281
0.0602103
0.0603875
0.0605598
0.060727
0.0608892
0.0610461
0.0611978
0.0613441
0.061485
0.0616203
0.06175
0.061874
0.0619921
0.0621043
0.0622104
0.0623104
0.0624042
0.0624916
0.0625725
0.062647
0.0627149
0.0627762
0.0628308
0.0628788
0.06292
0.0629544
0.0629826
0.0630004
0.0363185
0.0358964
0.035342
0.0346443
0.0338099
0.0328502
0.0317745
0.0305881
0.0292942
0.0278982
0.0264145
0.0248739
0.0233287
0.0218531
0.0205352
0.0194615
0.0187
0.018288
0.0182293
0.0184992
0.0190539
0.0198402
0.020804
0.0218958
0.0230737
0.0243048
0.0255638
0.0268322
0.0280964
0.0293469
0.0305766
0.0317807
0.0329559
0.0341003
0.0352127
0.0362927
0.0373403
0.0383558
0.03934
0.0402934
0.0412169
0.0421115
0.0429782
0.0438178
0.0446315
0.0454203
0.046185
0.0469267
0.0476463
0.0483446
0.0490226
0.0496809
0.0503205
0.050942
0.0515463
0.0521341
0.0527059
0.0532626
0.0538047
0.0543328
0.0548476
0.0553496
0.0558393
0.0563173
0.0567841
0.0572402
0.0576859
0.0581218
0.0585483
0.0589657
0.0593744
0.0597748
0.060167
0.0605515
0.0609285
0.0612981
0.0616605
0.062016
0.0623647
0.0627065
0.0630419
0.0633708
0.0636935
0.0640099
0.06432
0.0646241
0.064922
0.0652139
0.0654997
0.0657795
0.0660532
0.0663208
0.0665823
0.0668376
0.0670868
0.0673298
0.0675664
0.0677967
0.0680206
0.0682379
0.0684486
0.0686526
0.0688497
0.0690399
0.069223
0.0693989
0.0695675
0.0697286
0.0698822
0.070028
0.0701659
0.0702959
0.0704178
0.0705315
0.0706368
0.0707338
0.0708224
0.0709024
0.070974
0.0710369
0.0710918
0.0711345
0.0363591
0.0360515
0.0357024
0.0352937
0.0348163
0.0342669
0.0336458
0.0329534
0.032189
0.0313505
0.0304344
0.0294384
0.0283636
0.0272185
0.0260225
0.0248094
0.0236274
0.0225355
0.0215963
0.0208663
0.020387
0.0201807
0.0202495
0.0205783
0.0211397
0.021899
0.0228189
0.0238634
0.0249997
0.0262001
0.0274421
0.0287078
0.0299836
0.0312592
0.0325266
0.0337799
0.0350147
0.0362278
0.0374167
0.0385798
0.0397163
0.0408256
0.0419075
0.0429621
0.0439898
0.0449908
0.0459658
0.0469152
0.0478398
0.04874
0.0496168
0.0504706
0.0513024
0.0521128
0.0529024
0.0536721
0.0544225
0.0551543
0.0558681
0.0565647
0.0572445
0.0579082
0.0585565
0.05919
0.0598091
0.0604144
0.0610066
0.061586
0.0621532
0.0627086
0.0632527
0.0637858
0.0643084
0.0648208
0.0653233
0.0658161
0.0662996
0.0667741
0.0672396
0.0676964
0.0681446
0.0685843
0.0690158
0.0694392
0.0698546
0.0702621
0.0706617
0.0710536
0.0714376
0.0718139
0.0721825
0.0725434
0.0728964
0.0732417
0.0735792
0.0739088
0.0742305
0.0745441
0.0748496
0.075147
0.075436
0.0757166
0.0759886
0.0762519
0.0765064
0.0767518
0.0769881
0.0772151
0.0774325
0.0776403
0.0778382
0.0780262
0.078204
0.0783716
0.0785287
0.0786753
0.0788114
0.0789367
0.0790514
0.0791553
0.079249
0.0793285
0.0363702
0.0360998
0.0358287
0.035546
0.0352425
0.0349115
0.0345487
0.0341513