/*--------------------------------*- C++ -*----------------------------------*\
  =========                 |
  \\      /  F ield         | OpenFOAM: The Open Source CFD Toolbox
   \\    /   O peration     | Website:  https://openfoam.org
    \\  /    A nd           | Version:  8
     \\/     M anipulation  |
\*---------------------------------------------------------------------------*/
FoamFile
{
    version     2.0;
    format      ascii;
    class       volScalarField;
    location    "750";
    object      p;
}
// * * * * * * * * * * * * * * * * * * * * * * * * * * * * * * * * * * * * * //

dimensions      [0 2 -2 0 0 0 0];

internalField   nonuniform List<scalar> 
7320
(
159.62
153.763
151.853
150.068
148.359
146.664
145
143.376
141.784
140.217
138.674
137.15
135.644
134.155
132.682
131.221
129.774
128.338
126.914
125.5
124.095
122.7
121.313
119.934
118.563
117.2
115.843
114.494
113.15
111.813
110.482
109.156
107.835
106.52
105.21
103.905
102.604
101.308
100.016
98.7287
97.4453
96.1657
94.89
93.618
92.3496
91.0847
89.8232
88.5651
87.3101
86.0582
84.8094
83.5636
82.3207
81.0806
79.8432
78.6085
77.3764
76.1469
74.9199
73.6952
72.4729
71.253
70.0352
68.8197
67.6063
66.3949
65.1856
63.9782
62.7728
61.5693
60.3676
59.1676
57.9694
56.7729
55.5781
54.3849
53.1932
52.0031
50.8144
49.6273
48.4415
47.2572
46.0741
44.8925
43.7121
42.5329
41.3549
40.1781
39.0025
37.8279
36.6544
35.482
34.3105
33.14
31.9704
30.8017
29.6338
28.4667
27.3003
26.1347
24.9697
23.8054
22.6415
21.4783
20.3155
19.1532
17.9912
16.8297
15.6685
14.5076
13.3468
12.1864
11.0261
9.86592
8.70584
7.54594
6.38605
5.22624
4.06637
2.90696
1.74613
0.599312
158.821
153.75
151.853
150.069
148.36
146.664
145
143.376
141.784
140.217
138.674
137.15
135.644
134.156
132.682
131.221
129.774
128.338
126.914
125.5
124.095
122.7
121.313
119.934
118.564
117.2
115.844
114.494
113.15
111.813
110.482
109.156
107.835
106.52
105.21
103.905
102.604
101.308
100.016
98.7288
97.4453
96.1657
94.89
93.618
92.3496
91.0847
89.8232
88.5651
87.3101
86.0582
84.8095
83.5636
82.3207
81.0806
79.8432
78.6085
77.3765
76.1469
74.9199
73.6952
72.4729
71.253
70.0352
68.8197
67.6063
66.3949
65.1856
63.9782
62.7728
61.5693
60.3676
59.1676
57.9694
56.7729
55.5781
54.3849
53.1932
52.0031
50.8144
49.6273
48.4415
47.2572
46.0741
44.8925
43.7121
42.5329
41.3549
40.1781
39.0025
37.8279
36.6544
35.482
34.3105
33.14
31.9704
30.8017
29.6338
28.4667
27.3003
26.1347
24.9697
23.8054
22.6415
21.4783
20.3155
19.1532
17.9912
16.8297
15.6685
14.5076
13.3468
12.1864
11.0261
9.86592
8.70583
7.54594
6.38605
5.22624
4.06637
2.90696
1.74612
0.59931
158.616
153.755
151.855
150.069
148.36
146.664
145
143.376
141.784
140.218
138.674
137.15
135.645
134.156
132.682
131.222
129.774
128.339
126.914
125.5
124.095
122.7
121.313
119.934
118.564
117.2
115.844
114.494
113.15
111.813
110.482
109.156
107.835
106.52
105.21
103.905
102.604
101.308
100.016
98.7288
97.4453
96.1657
94.89
93.618
92.3496
91.0847
89.8233
88.5651
87.3101
86.0583
84.8095
83.5636
82.3207
81.0806
79.8432
78.6085
77.3765
76.1469
74.9199
73.6952
72.4729
71.253
70.0352
68.8197
67.6063
66.3949
65.1856
63.9782
62.7728
61.5693
60.3676
59.1676
57.9694
56.7729
55.5781
54.3849
53.1932
52.0031
50.8144
49.6273
48.4415
47.2572
46.0741
44.8925
43.712
42.5329
41.3549
40.1781
39.0025
37.8279
36.6544
35.482
34.3105
33.14
31.9704
30.8017
29.6338
28.4667
27.3003
26.1347
24.9697
23.8054
22.6415
21.4783
20.3155
19.1532
17.9912
16.8297
15.6685
14.5076
13.3468
12.1864
11.0261
9.86591
8.70582
7.54593
6.38604
5.22623
4.06636
2.90695
1.74611
0.599306
158.602
153.762
151.856
150.07
148.361
146.665
145.001
143.376
141.784
140.218
138.674
137.15
135.645
134.156
132.682
131.222
129.774
128.339
126.914
125.5
124.095
122.7
121.313
119.935
118.564
117.2
115.844
114.494
113.15
111.813
110.482
109.156
107.836
106.52
105.21
103.905
102.604
101.308
100.016
98.7288
97.4453
96.1658
94.89
93.618
92.3497
91.0848
89.8233
88.5651
87.3101
86.0583
84.8095
83.5636
82.3207
81.0806
79.8432
78.6085
77.3765
76.1469
74.9199
73.6952
72.473
71.253
70.0352
68.8197
67.6063
66.3949
65.1856
63.9782
62.7728
61.5693
60.3676
59.1676
57.9694
56.7729
55.5781
54.3849
53.1932
52.0031
50.8144
49.6273
48.4415
47.2572
46.0741
44.8925
43.712
42.5329
41.3549
40.1781
39.0025
37.8279
36.6544
35.482
34.3105
33.14
31.9704
30.8017
29.6338
28.4667
27.3003
26.1347
24.9697
23.8054
22.6415
21.4783
20.3155
19.1532
17.9912
16.8297
15.6685
14.5076
13.3468
12.1864
11.0261
9.8659
8.70582
7.54592
6.38603
5.22622
4.06635
2.90694
1.74611
0.599301
158.575
153.767
151.858
150.072
148.362
146.665
145.001
143.377
141.785
140.218
138.674
137.15
135.645
134.156
132.682
131.222
129.774
128.339
126.914
125.5
124.095
122.7
121.313
119.935
118.564
117.2
115.844
114.494
113.15
111.813
110.482
109.156
107.836
106.52
105.21
103.905
102.604
101.308
100.016
98.7288
97.4453
96.1658
94.8901
93.6181
92.3497
91.0848
89.8233
88.5651
87.3101
86.0583
84.8095
83.5637
82.3207
81.0806
79.8432
78.6086
77.3765
76.1469
74.9199
73.6952
72.473
71.253
70.0352
68.8197
67.6063
66.3949
65.1856
63.9782
62.7728
61.5693
60.3676
59.1676
57.9694
56.7729
55.5781
54.3848
53.1932
52.0031
50.8144
49.6273
48.4415
47.2572
46.0741
44.8925
43.712
42.5329
41.3549
40.1781
39.0025
37.8279
36.6544
35.482
34.3105
33.14
31.9704
30.8017
29.6338
28.4667
27.3003
26.1347
24.9697
23.8053
22.6415
21.4783
20.3155
19.1532
17.9912
16.8297
15.6685
14.5075
13.3468
12.1864
11.026
9.86589
8.7058
7.54591
6.38602
5.22621
4.06634
2.90693
1.74609
0.599295
158.533
153.771
151.861
150.073
148.363
146.666
145.002
143.377
141.785
140.219
138.675
137.151
135.645
134.156
132.682
131.222
129.774
128.339
126.914
125.5
124.096
122.7
121.313
119.935
118.564
117.2
115.844
114.494
113.15
111.813
110.482
109.156
107.836
106.52
105.21
103.905
102.604
101.308
100.016
98.7288
97.4454
96.1658
94.8901
93.6181
92.3497
91.0848
89.8233
88.5651
87.3101
86.0583
84.8095
83.5637
82.3207
81.0806
79.8433
78.6086
77.3765
76.1469
74.9199
73.6952
72.473
71.253
70.0352
68.8197
67.6063
66.3949
65.1856
63.9782
62.7728
61.5693
60.3676
59.1676
57.9694
56.7729
55.5781
54.3848
53.1932
52.0031
50.8144
49.6273
48.4415
47.2572
46.0741
44.8925
43.712
42.5329
41.3549
40.1781
39.0025
37.8279
36.6544
35.482
34.3105
33.14
31.9704
30.8017
29.6338
28.4667
27.3003
26.1347
24.9697
23.8053
22.6415
21.4783
20.3155
19.1532
17.9912
16.8297
15.6684
14.5075
13.3468
12.1863
11.026
9.86588
8.70579
7.54589
6.38601
5.2262
4.06632
2.90692
1.74608
0.599287
158.498
153.776
151.863
150.075
148.364
146.667
145.003
143.378
141.786
140.219
138.675
137.151
135.646
134.156
132.682
131.222
129.775
128.339
126.914
125.5
124.096
122.7
121.313
119.935
118.564
117.2
115.844
114.494
113.151
111.813
110.482
109.156
107.836
106.521
105.21
103.905
102.604
101.308
100.016
98.7289
97.4454
96.1658
94.8901
93.6181
92.3497
91.0848
89.8233
88.5651
87.3102
86.0583
84.8095
83.5637
82.3208
81.0806
79.8433
78.6086
77.3765
76.1469
74.9199
73.6953
72.473
71.253
70.0352
68.8197
67.6063
66.3949
65.1856
63.9783
62.7728
61.5693
60.3676
59.1676
57.9694
56.7729
55.5781
54.3848
53.1932
52.0031
50.8144
49.6273
48.4415
47.2572
46.0741
44.8924
43.712
42.5329
41.3549
40.1781
39.0024
37.8279
36.6544
35.482
34.3105
33.14
31.9703
30.8017
29.6338
28.4667
27.3002
26.1346
24.9697
23.8053
22.6415
21.4783
20.3155
19.1532
17.9912
16.8297
15.6684
14.5075
13.3468
12.1863
11.026
9.86586
8.70577
7.54587
6.38599
5.22618
4.0663
2.9069
1.74606
0.599276
158.471
153.781
151.866
150.077
148.366
146.668
145.004
143.379
141.786
140.22
138.675
137.152
135.646
134.157
132.683
131.222
129.775
128.339
126.915
125.5
124.096
122.7
121.314
119.935
118.564
117.2
115.844
114.494
113.151
111.813
110.482
109.156
107.836
106.521
105.21
103.905
102.604
101.308
100.017
98.7289
97.4454
96.1659
94.8902
93.6182
92.3498
91.0849
89.8234
88.5652
87.3102
86.0583
84.8095
83.5637
82.3208
81.0807
79.8433
78.6086
77.3765
76.147
74.9199
73.6953
72.473
71.253
70.0353
68.8197
67.6063
66.3949
65.1856
63.9783
62.7728
61.5693
60.3676
59.1676
57.9694
56.7729
55.5781
54.3848
53.1932
52.0031
50.8144
49.6273
48.4415
47.2571
46.0741
44.8924
43.712
42.5329
41.3549
40.1781
39.0024
37.8279
36.6544
35.4819
34.3105
33.14
31.9703
30.8016
29.6337
28.4666
27.3002
26.1346
24.9696
23.8053
22.6415
21.4782
20.3155
19.1531
17.9911
16.8296
15.6684
14.5075
13.3467
12.1863
11.026
9.86584
8.70575
7.54585
6.38597
5.22616
4.06628
2.90688
1.74604
0.599263
158.449
153.787
151.869
150.079
148.367
146.67
145.005
143.38
141.787
140.22
138.676
137.152
135.646
134.157
132.683
131.223
129.775
128.34
126.915
125.501
124.096
122.701
121.314
119.935
118.564
117.201
115.844
114.494
113.151
111.813
110.482
109.156
107.836
106.521
105.211
103.905
102.605
101.308
100.017
98.729
97.4455
96.1659
94.8902
93.6182
92.3498
91.0849
89.8234
88.5652
87.3102
86.0584
84.8096
83.5637
82.3208
81.0807
79.8433
78.6086
77.3765
76.147
74.9199
73.6953
72.473
71.253
70.0353
68.8197
67.6063
66.3949
65.1856
63.9783
62.7728
61.5693
60.3676
59.1676
57.9694
56.7729
55.5781
54.3848
53.1932
52.0031
50.8144
49.6273
48.4415
47.2571
46.0741
44.8924
43.712
42.5328
41.3549
40.1781
39.0024
37.8279
36.6543
35.4819
34.3105
33.14
31.9703
30.8016
29.6337
28.4666
27.3002
26.1346
24.9696
23.8053
22.6414
21.4782
20.3154
19.1531
17.9911
16.8296
15.6684
14.5075
13.3467
12.1863
11.026
9.86581
8.70572
7.54583
6.38594
5.22613
4.06625
2.90685
1.74602
0.599246
158.428
153.794
151.871
150.082
148.37
146.672
145.006
143.381
141.788
140.221
138.677
137.153
135.647
134.158
132.684
131.223
129.776
128.34
126.915
125.501
124.096
122.701
121.314
119.935
118.564
117.201
115.844
114.494
113.151
111.814
110.482
109.156
107.836
106.521
105.211
103.905
102.605
101.308
100.017
98.7291
97.4456
96.166
94.8903
93.6183
92.3499
91.085
89.8235
88.5653
87.3103
86.0584
84.8096
83.5638
82.3208
81.0807
79.8433
78.6086
77.3766
76.147
74.9199
73.6953
72.473
71.253
70.0353
68.8197
67.6063
66.3949
65.1856
63.9783
62.7728
61.5693
60.3676
59.1676
57.9694
56.7729
55.5781
54.3848
53.1932
52.003
50.8144
49.6272
48.4415
47.2571
46.0741
44.8924
43.712
42.5328
41.3548
40.1781
39.0024
37.8279
36.6543
35.4819
34.3104
33.1399
31.9703
30.8016
29.6337
28.4666
27.3002
26.1346
24.9696
23.8052
22.6414
21.4782
20.3154
19.1531
17.9911
16.8296
15.6684
14.5074
13.3467
12.1863
11.0259
9.86578
8.70569
7.54579
6.38591
5.2261
4.06622
2.90682
1.74599
0.599223
158.408
153.803
151.873
150.084
148.372
146.674
145.008
143.382
141.789
140.222
138.678
137.154
135.648
134.158
132.684
131.224
129.776
128.34
126.916
125.501
124.097
122.701
121.314
119.936
118.565
117.201
115.845
114.495
113.151
111.814
110.482
109.157
107.836
106.521
105.211
103.905
102.605
101.309
100.017
98.7292
97.4457
96.1661
94.8904
93.6184
92.3499
91.085
89.8235
88.5653
87.3103
86.0585
84.8097
83.5638
82.3209
81.0808
79.8434
78.6087
77.3766
76.147
74.92
73.6953
72.473
71.2531
70.0353
68.8197
67.6063
66.395
65.1856
63.9783
62.7728
61.5693
60.3676
59.1676
57.9694
56.7729
55.5781
54.3848
53.1932
52.003
50.8144
49.6272
48.4415
47.2571
46.0741
44.8924
43.712
42.5328
41.3548
40.1781
39.0024
37.8278
36.6543
35.4819
34.3104
33.1399
31.9703
30.8016
29.6337
28.4666
27.3002
26.1346
24.9696
23.8052
22.6414
21.4782
20.3154
19.1531
17.9911
16.8296
15.6683
14.5074
13.3466
12.1862
11.0259
9.86575
8.70565
7.54576
6.38587
5.22607
4.06619
2.90679
1.74595
0.599194
158.385
153.812
151.875
150.086
148.374
146.676
145.01
143.384
141.791
140.224
138.679
137.155
135.649
134.159
132.685
131.224
129.777
128.341
126.916
125.502
124.097
122.702
121.315
119.936
118.565
117.201
115.845
114.495
113.151
111.814
110.483
109.157
107.836
106.521
105.211
103.906
102.605
101.309
100.017
98.7293
97.4458
96.1662
94.8905
93.6185
92.35
91.0851
89.8236
88.5654
87.3104
86.0586
84.8097
83.5639
82.3209
81.0808
79.8434
78.6087
77.3766
76.1471
74.92
73.6954
72.4731
71.2531
70.0353
68.8198
67.6063
66.395
65.1857
63.9783
62.7729
61.5693
60.3676
59.1676
57.9694
56.7729
55.5781
54.3848
53.1932
52.003
50.8144
49.6272
48.4415
47.2571
46.0741
44.8924
43.712
42.5328
41.3548
40.178
39.0024
37.8278
36.6543
35.4819
34.3104
33.1399
31.9702
30.8016
29.6336
28.4665
27.3001
26.1345
24.9695
23.8052
22.6413
21.4781
20.3153
19.153
17.991
16.8295
15.6683
14.5074
13.3466
12.1862
11.0259
9.86571
8.70561
7.54572
6.38583
5.22602
4.06614
2.90674
1.74591
0.599156
158.359
153.822
151.877
150.088
148.376
146.678
145.012
143.386
141.793
140.225
138.68
137.156
135.65
134.16
132.686
131.225
129.778
128.342
126.917
125.502
124.098
122.702
121.315
119.936
118.565
117.202
115.845
114.495
113.152
111.814
110.483
109.157
107.837
106.521
105.211
103.906
102.605
101.309
100.017
98.7295
97.446
96.1664
94.8906
93.6186
92.3502
91.0853
89.8237
88.5655
87.3105
86.0586
84.8098
83.564
82.321
81.0809
79.8435
78.6088
77.3767
76.1471
74.9201
73.6954
72.4731
71.2531
70.0354
68.8198
67.6064
66.395
65.1857
63.9783
62.7729
61.5693
60.3676
59.1677
57.9694
56.7729
55.5781
54.3848
53.1932
52.003
50.8144
49.6272
48.4415
47.2571
46.0741
44.8924
43.712
42.5328
41.3548
40.178
39.0024
37.8278
36.6543
35.4818
34.3104
33.1399
31.9702
30.8015
29.6336
28.4665
27.3001
26.1345
24.9695
23.8052
22.6413
21.4781
20.3153
19.153
17.991
16.8295
15.6682
14.5073
13.3466
12.1861
11.0258
9.86566
8.70556
7.54567
6.38578
5.22597
4.06609
2.90669
1.74586
0.599104
158.328
153.834
151.878
150.09
148.378
146.68
145.014
143.388
141.794
140.227
138.682
137.157
135.651
134.161
132.687
131.226
129.778
128.343
126.918
125.503
124.098
122.703
121.316
119.937
118.566
117.202
115.846
114.496
113.152
111.815
110.483
109.157
107.837
106.522
105.211
103.906
102.605
101.309
100.017
98.7297
97.4462
96.1666
94.8908
93.6188
92.3503
91.0854
89.8239
88.5657
87.3106
86.0588
84.8099
83.5641
82.3211
81.081
79.8436
78.6089
77.3768
76.1472
74.9201
73.6955
72.4732
71.2532
70.0354
68.8199
67.6064
66.3951
65.1857
63.9784
62.7729
61.5694
60.3676
59.1677
57.9695
56.773
55.5781
54.3849
53.1932
52.0031
50.8144
49.6272
48.4415
47.2571
46.0741
44.8924
43.712
42.5328
41.3548
40.178
39.0023
37.8278
36.6543
35.4818
34.3103
33.1398
31.9702
30.8015
29.6336
28.4665
27.3001
26.1345
24.9695
23.8051
22.6413
21.478
20.3153
19.1529
17.9909
16.8294
15.6682
14.5073
13.3465
12.1861
11.0258
9.86561
8.70551
7.54561
6.38572
5.22592
4.06604
2.90664
1.7458
0.599037
158.293
153.848
151.879
150.091
148.38
146.682
145.016
143.39
141.796
140.229
138.684
137.159
135.652
134.163
132.688
131.227
129.78
128.344
126.919
125.504
124.099
122.704
121.316
119.938
118.567
117.203
115.846
114.496
113.153
111.815
110.484
109.158
107.837
106.522
105.212
103.906
102.606
101.309
100.018
98.73
97.4464
96.1668
94.891
93.619
92.3505
91.0856
89.8241
88.5658
87.3108
86.0589
84.8101
83.5642
82.3213
81.0811
79.8437
78.609
77.3769
76.1473
74.9202
73.6956
72.4733
71.2533
70.0355
68.8199
67.6065
66.3951
65.1858
63.9784
62.773
61.5694
60.3677
59.1677
57.9695
56.773
55.5781
54.3849
53.1932
52.0031
50.8144
49.6273
48.4415
47.2571
46.0741
44.8924
43.712
42.5328
41.3548
40.178
39.0023
37.8278
36.6542
35.4818
34.3103
33.1398
31.9702
30.8015
29.6336
28.4665
27.3
26.1344
24.9694
23.8051
22.6412
21.478
20.3152
19.1529
17.9909
16.8294
15.6681
14.5072
13.3465
12.186
11.0257
9.86554
8.70544
7.54555
6.38566
5.22585
4.06597
2.90657
1.74574
0.598945
158.251
153.864
151.88
150.092
148.381
146.683
145.017
143.392
141.798
140.231
138.685
137.161
135.654
134.164
132.69
131.229
129.781
128.345
126.92
125.505
124.1
122.704
121.317
119.938
118.567
117.204
115.847
114.497
113.153
111.816
110.484
109.158
107.838
106.523
105.212
103.907
102.606
101.31
100.018
98.7303
97.4467
96.1671
94.8913
93.6193
92.3508
91.0859
89.8243
88.5661
87.311
86.0591
84.8103
83.5644
82.3215
81.0813
79.8439
78.6092
77.377
76.1475
74.9204
73.6957
72.4734
71.2534
70.0356
68.82
67.6066
66.3952
65.1859
63.9785
62.773
61.5695
60.3677
59.1678
57.9696
56.773
55.5782
54.3849
53.1933
52.0031
50.8145
49.6273
48.4415
47.2571
46.0741
44.8924
43.712
42.5328
41.3548
40.178
39.0023
37.8278
36.6542
35.4818
34.3103
33.1398
31.9701
30.8014
29.6335
28.4664
27.3
26.1344
24.9694
23.805
22.6412
21.478
20.3152
19.1528
17.9908
16.8293
15.6681
14.5072
13.3464
12.186
11.0256
9.86548
8.70537
7.54548
6.38559
5.22578
4.0659
2.90649
1.74567
0.598822
158.204
153.883
151.881
150.093
148.382
146.684
145.019
143.393
141.8
140.232
138.687
137.162
135.656
134.166
132.691
131.23
129.782
128.346
126.921
125.506
124.101
122.706
121.318
119.939
118.568
117.204
115.848
114.498
113.154
111.816
110.485
109.159
107.838
106.523
105.213
103.907
102.607
101.31
100.018
98.7308
97.4472
96.1675
94.8917
93.6196
92.3512
91.0862
89.8246
88.5664
87.3113
86.0594
84.8106
83.5647
82.3217
81.0815
79.8441
78.6094
77.3772
76.1476
74.9205
73.6959
72.4735
71.2535
70.0358
68.8202
67.6067
66.3953
65.186
63.9786
62.7732
61.5696
60.3678
59.1679
57.9696
56.7731
55.5782
54.385
53.1933
52.0032
50.8145
49.6273
48.4416
47.2572
46.0741
44.8924
43.712
42.5328
41.3548
40.178
39.0023
37.8278
36.6542
35.4818
34.3103
33.1398
31.9701
30.8014
29.6335
28.4664
27.3
26.1343
24.9693
23.805
22.6411
21.4779
20.3151
19.1528
17.9908
16.8293
15.668
14.5071
13.3463
12.1859
11.0256
9.86541
8.7053
7.5454
6.38551
5.2257
4.06582
2.90641
1.74558
0.598654
158.148
153.906
151.883
150.094
148.382
146.685
145.019
143.394
141.801
140.234
138.689
137.164
135.658
134.168
132.693
131.232
129.784
128.348
126.922
125.508
124.103
122.707
121.32
119.941
118.569
117.205
115.849
114.499
113.155
111.817
110.486
109.16
107.839
106.524
105.213
103.908
102.607
101.311
100.019
98.7313
97.4477
96.168
94.8922
93.6201
92.3516
91.0866
89.825
88.5667
87.3117
86.0598
84.8109
83.565
82.322
81.0818
79.8444
78.6096
77.3775
76.1479
74.9208
73.6961
72.4738
71.2537
70.036
68.8204
67.6069
66.3955
65.1861
63.9788
62.7733
61.5697
60.368
59.168
57.9698
56.7732
55.5783
54.3851
53.1934
52.0033
50.8146
49.6274
48.4416
47.2572
46.0742
44.8925
43.712
42.5328
41.3548
40.178
39.0024
37.8278
36.6542
35.4818
34.3103
33.1398
31.9701
30.8014
29.6335
28.4664
27.2999
26.1343
24.9693
23.805
22.6411
21.4779
20.3151
19.1527
17.9907
16.8292
15.668
14.507
13.3463
12.1858
11.0255
9.86533
8.70523
7.54532
6.38543
5.22562
4.06573
2.90632
1.7455
0.598426
158.084
153.932
151.884
150.095
148.383
146.685
145.02
143.394
141.802
140.234
138.69
137.165
135.659
134.169
132.695
131.234
129.786
128.349
126.924
125.509
124.104
122.708
121.321
119.942
118.571
117.207
115.85
114.5
113.156
111.818
110.487
109.161
107.84
106.525
105.214
103.909
102.608
101.312
100.02
98.732
97.4483
96.1686
94.8928
93.6207
92.3521
91.0871
89.8255
88.5672
87.3122
86.0602
84.8113
83.5654
82.3224
81.0822
79.8447
78.61
77.3778
76.1482
74.9211
73.6964
72.474
71.254
70.0362
68.8206
67.6071
66.3957
65.1864
63.979
62.7735
61.5699
60.3681
59.1682
57.9699
56.7734
55.5785
54.3852
53.1935
52.0034
50.8147
49.6275
48.4417
47.2573
46.0743
44.8926
43.7121
42.5329
41.3549
40.1781
39.0024
37.8278
36.6543
35.4818
34.3103
33.1398
31.9702
30.8014
29.6335
28.4664
27.3
26.1343
24.9693
23.8049
22.6411
21.4778
20.315
19.1527
17.9907
16.8292
15.6679
14.507
13.3462
12.1858
11.0254
9.86527
8.70515
7.54524
6.38535
5.22554
4.06565
2.90622
1.74541
0.598113
158.011
153.963
151.885
150.097
148.385
146.686
145.02
143.395
141.802
140.235
138.69
137.166
135.66
134.17
132.696
131.235
129.787
128.351
126.926
125.511
124.106
122.71
121.322
119.943
118.572
117.208
115.851
114.501
113.157
111.82
110.488
109.162
107.841
106.526
105.215
103.91
102.609
101.313
100.021
98.7328
97.4491
96.1694
94.8935
93.6214
92.3528
91.0878
89.8262
88.5679
87.3128
86.0608
84.8119
83.5659
82.3229
81.0827
79.8452
78.6104
77.3783
76.1486
74.9215
73.6968
72.4744
71.2544
70.0366
68.8209
67.6075
66.396
65.1867
63.9793
62.7738
61.5702
60.3684
59.1684
57.9702
56.7736
55.5787
54.3854
53.1937
52.0036
50.8149
49.6277
48.4419
47.2575
46.0744
44.8927
43.7122
42.533
41.355
40.1782
39.0025
37.8279
36.6544
35.4819
34.3104
33.1399
31.9702
30.8015
29.6335
28.4664
27.3
26.1343
24.9693
23.805
22.6411
21.4778
20.315
19.1527
17.9907
16.8291
15.6679
14.5069
13.3462
12.1857
11.0254
9.86521
8.70509
7.54517
6.38527
5.22546
4.06556
2.90613
1.74532
0.597683
157.927
153.998
151.887
150.099
148.386
146.687
145.021
143.395
141.802
140.235
138.691
137.166
135.66
134.171
132.697
131.236
129.788
128.352
126.927
125.512
124.107
122.711
121.324
119.945
118.574
117.21
115.853
114.502
113.159
111.821
110.489
109.163
107.842
106.527
105.217
103.911
102.61
101.314
100.022
98.7338
97.4501
96.1704
94.8945
93.6223
92.3537
91.0886
89.827
88.5686
87.3135
86.0615
84.8126
83.5666
82.3236
81.0833
79.8458
78.611
77.3788
76.1492
74.922
73.6973
72.4749
71.2549
70.037
68.8214
67.6079
66.3965
65.1871
63.9796
62.7742
61.5705
60.3687
59.1688
57.9705
56.7739
55.579
54.3857
53.194
52.0038
50.8151
49.6279
48.4421
47.2577
46.0746
44.8929
43.7124
42.5332
41.3552
40.1784
39.0027
37.8281
36.6545
35.482
34.3105
33.14
31.9703
30.8016
29.6336
28.4665
27.3001
26.1344
24.9694
23.805
22.6411
21.4779
20.3151
19.1527
17.9907
16.8291
15.6679
14.5069
13.3462
12.1857
11.0253
9.86517
8.70505
7.54512
6.38522
5.2254
4.06549
2.90604
1.74524
0.597091
157.832
154.037
151.889
150.1
148.388
146.689
145.022
143.396
141.803
140.236
138.691
137.167
135.661
134.171
132.697
131.236
129.789
128.353
126.928
125.513
124.108
122.713
121.325
119.946
118.575
117.211
115.854
114.504
113.16
111.822
110.491
109.165
107.844
106.528
105.218
103.912
102.611
101.315
100.023
98.735
97.4513
96.1715
94.8956
93.6233
92.3547
91.0897
89.828
88.5696
87.3144
86.0624
84.8135
83.5675
82.3244
81.0841
79.8466
78.6118
77.3796
76.1499
74.9227
73.698
72.4756
71.2555
70.0376
68.822
67.6085
66.397
65.1876
63.9802
62.7747
61.571
60.3692
59.1692
57.9709
56.7744
55.5794
54.3861
53.1944
52.0042
50.8155
49.6283
48.4425
47.258
46.075
44.8932
43.7127
42.5335
41.3555
40.1786
39.0029
37.8283
36.6547
35.4823
34.3107
33.1402
31.9705
30.8018
29.6338
28.4667
27.3002
26.1345
24.9695
23.8051
22.6412
21.478
20.3151
19.1528
17.9908
16.8292
15.6679
14.507
13.3462
12.1857
11.0254
9.86517
8.70504
7.54511
6.38519
5.22536
4.06545
2.90597
1.74517
0.59628
157.725
154.081
151.892
150.102
148.39
146.69
145.023
143.397
141.804
140.236
138.691
137.167
135.661
134.171
132.697
131.236
129.789
128.353
126.928
125.514
124.109
122.713
121.326
119.947
118.576
117.212
115.856
114.505
113.162
111.824
110.492
109.166
107.845
106.53
105.219
103.914
102.613
101.316
100.024
98.7364
97.4526
96.1728
94.8968
93.6246
92.356
91.0909
89.8291
88.5707
87.3156
86.0635
84.8145
83.5685
82.3254
81.0851
79.8476
78.6127
77.3805
76.1508
74.9236
73.6988
72.4764
71.2563
70.0384
68.8228
67.6092
66.3977
65.1883
63.9809
62.7753
61.5717
60.3699
59.1698
57.9715
56.7749
55.58
54.3867
53.1949
52.0047
50.816
49.6288
48.4429
47.2585
46.0754
44.8936
43.7132
42.5339
41.3559
40.179
39.0033
37.8287
36.6551
35.4826
34.3111
33.1405
31.9708
30.802
29.6341
28.4669
27.3004
26.1348
24.9697
23.8053
22.6414
21.4782
20.3153
19.1529
17.9909
16.8293
15.668
14.5071
13.3463
12.1858
11.0254
9.86523
8.7051
7.54514
6.38522
5.22538
4.06546
2.90593
1.74514
0.595169
157.608
154.128
151.895
150.104
148.393
146.692
145.025
143.398
141.805
140.237
138.692
137.168
135.661
134.172
132.697
131.237
129.789
128.353
126.928
125.514
124.109
122.713
121.326
119.947
118.576
117.213
115.856
114.506
113.162
111.825
110.493
109.167
107.847
106.531
105.221
103.915
102.614
101.318
100.026
98.7379
97.4541
96.1743
94.8983
93.626
92.3574
91.0922
89.8305
88.5721
87.3169
86.0648
84.8158
83.5698
82.3266
81.0863
79.8488
78.6139
77.3816
76.1519
74.9247
73.6999
72.4774
71.2573
70.0394
68.8237
67.6102
66.3987
65.1892
63.9817
62.7762
61.5725
60.3707
59.1706
57.9723
56.7757
55.5807
54.3874
53.1957
52.0054
50.8167
49.6294
48.4436
47.2591
46.076
44.8942
43.7137
42.5345
41.3564
40.1795
39.0038
37.8292
36.6556
35.4831
34.3115
33.1409
31.9712
30.8024
29.6345
28.4673
27.3008
26.1351
24.9701
23.8056
22.6417
21.4784
20.3156
19.1532
17.9912
16.8296
15.6683
14.5073
13.3465
12.186
11.0256
9.86538
8.70523
7.54526
6.38532
5.22546
4.06553
2.90596
1.74516
0.593662
157.481
154.178
151.899
150.106
148.396
146.694
145.026
143.4
141.806
140.238
138.693
137.168
135.662
134.172
132.698
131.237
129.789
128.353
126.928
125.514
124.109
122.713
121.326
119.948
118.576
117.213
115.856
114.506
113.163
111.825
110.494
109.168
107.847
106.532
105.222
103.916
102.615
101.319
100.027
98.7393
97.4556
96.1758
94.8998
93.6276
92.3589
91.0938
89.832
88.5736
87.3183
86.0663
84.8172
83.5712
82.328
81.0877
79.8501
78.6152
77.3829
76.1532
74.926
73.7011
72.4787
71.2585
70.0406
68.8249
67.6113
66.3998
65.1903
63.9828
62.7773
61.5736
60.3717
59.1716
57.9733
56.7767
55.5817
54.3884
53.1966
52.0063
50.8176
49.6303
48.4444
47.26
46.0768
44.895
43.7145
42.5352
41.3572
40.1803
39.0045
37.8299
36.6563
35.4837
34.3122
33.1416
31.9718
30.803
29.635
28.4678
27.3014
26.1356
24.9706
23.8061
22.6422
21.4789
20.316
19.1536
17.9916
16.83
15.6686
14.5076
13.3468
12.1863
11.0259
9.86565
8.70549
7.54549
6.38554
5.22566
4.06571
2.90607
1.74525
0.591638
157.348
154.229
151.904
150.108
148.399
146.697
145.028
143.401
141.807
140.239
138.694
137.169
135.663
134.173
132.699
131.238
129.79
128.354
126.929
125.514
124.109
122.714
121.327
119.948
118.577
117.213
115.856
114.506
113.163
111.825
110.494
109.168
107.847
106.532
105.222
103.916
102.616
101.319
100.028
98.7398
97.4562
96.1766
94.9008
93.6286
92.3601
91.0951
89.8334
88.575
87.3198
86.0678
84.8188
83.5727
82.3296
81.0893
79.8517
78.6168
77.3845
76.1547
74.9274
73.7026
72.4801
71.2599
70.042
68.8263
67.6127
66.4012
65.1917
63.9842
62.7786
61.5749
60.373
59.1729
57.9745
56.7779
55.5829
54.3895
53.1977
52.0075
50.8187
49.6314
48.4455
47.261
46.0779
44.8961
43.7155
42.5362
41.3581
40.1812
39.0055
37.8308
36.6572
35.4846
34.313
33.1424
31.9727
30.8038
29.6358
28.4686
27.3021
26.1364
24.9713
23.8068
22.6429
21.4795
20.3167
19.1542
17.9922
16.8305
15.6692
14.5081
13.3473
12.1867
11.0263
9.86608
8.7059
7.54588
6.3859
5.226
4.06603
2.90631
1.74543
0.588971
157.213
154.279
151.911
150.109
148.402
146.7
145.03
143.403
141.809
140.24
138.695
137.17
135.664
134.174
132.699
131.238
129.79
128.354
126.929
125.515
124.11
122.714
121.327
119.948
118.577
117.213
115.857
114.507
113.163
111.825
110.494
109.168
107.847
106.532
105.222
103.916
102.616
101.319
100.028
98.7399
97.4563
96.1767
94.9009
93.6288
92.3603
91.0953
89.8338
88.5755
87.3205
86.0686
84.8197
83.5737
82.3307
81.0905
79.853
78.6182
77.3859
76.1562
74.929
73.7042
72.4817
71.2616
70.0436
68.8279
67.6143
66.4027
65.1932
63.9857
62.7801
61.5764
60.3745
59.1744
57.976
56.7793
55.5843
54.3909
53.1991
52.0088
50.8201
49.6328
48.4469
47.2624
46.0792
44.8974
43.7168
42.5375
41.3594
40.1825
39.0067
37.832
36.6583
35.4858
34.3142
33.1435
31.9738
30.8049
29.6369
28.4697
27.3031
26.1374
24.9723
23.8078
22.6438
21.4804
20.3175
19.1551
17.993
16.8313
15.6699
14.5089
13.348
12.1874
11.027
9.86671
8.70651
7.54646
6.38646
5.22652
4.06653
2.9067
1.74573
0.585548
157.086
154.324
151.918
150.109
148.406
146.702
145.032
143.404
141.81
140.242
138.696
137.171
135.665
134.175
132.7
131.239
129.791
128.355
126.93
125.515
124.11
122.715
121.327
119.949
118.577
117.214
115.857
114.507
113.163
111.826
110.494
109.168
107.848
106.532
105.222
103.917
102.616
101.32
100.028
98.74
97.4564
96.1767
94.9009
93.6288
92.3604
91.0954
89.8338
88.5755
87.3205
86.0686
84.8197
83.5738
82.3308
81.0907
79.8532
78.6185
77.3863
76.1567
74.9296
73.7049
72.4826
71.2625
70.0447
68.8291
67.6156
66.4041
65.1947
63.9873
62.7817
61.578
60.3762
59.1761
57.9777
56.7811
55.5861
54.3927
53.2008
52.0105
50.8217
49.6344
48.4485
47.2639
46.0808
44.8989
43.7183
42.539
41.3609
40.1839
39.0081
37.8334
36.6598
35.4872
34.3155
33.1449
31.9751
30.8063
29.6382
28.4709
27.3044
26.1386
24.9735
23.809
22.645
21.4816
20.3187
19.1562
17.9941
16.8324
15.671
14.5099
13.349
12.1884
11.0279
9.86758
8.70735
7.54727
6.38724
5.22727
4.06724
2.90731
1.74616
0.58136
156.978
154.36
151.925
150.109
148.408
146.704
145.033
143.405
141.811
140.243
138.697
137.172
135.665
134.175
132.701
131.24
129.792
128.356
126.93
125.516
124.111
122.715
121.328
119.949
118.578
117.214
115.857
114.507
113.164
111.826
110.494
109.168
107.848
106.533
105.222
103.917
102.616
101.32
100.028
98.7402
97.4565
96.1769
94.9011
93.629
92.3605
91.0955
89.8339
88.5756
87.3206
86.0687
84.8198
83.5739
82.3309
81.0907
79.8533
78.6185
77.3864
76.1568
74.9296
73.7049
72.4826
71.2626
70.0448
68.8292
67.6157
66.4043
65.195
63.9876
62.7821
61.5785
60.3768
59.1768
57.9785
56.782
55.5871
54.3938
53.2021
52.0119
50.8232
49.6359
48.4501
47.2656
46.0825
44.9007
43.7201
42.5408
41.3627
40.1858
39.0099
37.8352
36.6616
35.489
34.3173
33.1466
31.9768
30.808
29.6399
28.4726
27.306
26.1402
24.975
23.8105
22.6465
21.483
20.32
19.1575
17.9954
16.8336
15.6722
14.5111
13.3502
12.1895
11.029
9.86867
8.70841
7.5483
6.38823
5.22823
4.06817
2.90813
1.74676
0.576724
156.909
154.382
151.93
150.109
148.41
146.706
145.034
143.406
141.812
140.243
138.698
137.173
135.666
134.176
132.701
131.24
129.792
128.356
126.931
125.516
124.111
122.715
121.328
119.949
118.578
117.214
115.857
114.507
113.164
111.826
110.495
109.169
107.848
106.533
105.222
103.917
102.616
101.32
100.028
98.7403
97.4567
96.1771
94.9012
93.6291
92.3606
91.0956
89.834
88.5758
87.3207
86.0688
84.8199
83.574
82.331
81.0908
79.8533
78.6186
77.3864
76.1568
74.9297
73.705
72.4827
71.2626
70.0449
68.8292
67.6158
66.4044
65.195
63.9876
62.7821
61.5785
60.3768
59.1768
57.9785
56.782
55.5871
54.3938
53.2021
52.012
50.8233
49.6361
48.4503
47.2659
46.0828
44.901
43.7206
42.5413
41.3633
40.1864
39.0107
37.8361
36.6625
35.4899
34.3184
33.1477
31.978
30.8092
29.6411
28.4739
27.3074
26.1416
24.9764
23.8119
22.6479
21.4845
20.3215
19.159
17.9969
16.8351
15.6737
14.5126
13.3516
12.1909
11.0304
9.87004
8.70976
7.54961
6.38952
5.22948
4.06939
2.90925
1.74768
0.573131
156.909
154.382
151.93
150.109
148.41
146.706
145.034
143.406
141.812
140.243
138.698
137.173
135.666
134.176
132.701
131.24
129.792
128.356
126.931
125.516
124.111
122.715
121.328
119.949
118.578
117.214
115.857
114.507
113.164
111.826
110.495
109.169
107.848
106.533
105.222
103.917
102.616
101.32
100.028
98.7403
97.4567
96.177
94.9012
93.6291
92.3606
91.0956
89.834
88.5758
87.3207
86.0688
84.8199
83.574
82.331
81.0908
79.8533
78.6186
77.3864