/*--------------------------------*- C++ -*----------------------------------*\
  =========                 |
  \\      /  F ield         | OpenFOAM: The Open Source CFD Toolbox
   \\    /   O peration     | Website:  https://openfoam.org
    \\  /    A nd           | Version:  8
     \\/     M anipulation  |
\*---------------------------------------------------------------------------*/
FoamFile
{
    version     2.0;
    format      ascii;
    class       surfaceScalarField;
    location    "750";
    object      phi;
}
// * * * * * * * * * * * * * * * * * * * * * * * * * * * * * * * * * * * * * //

dimensions      [0 3 -1 0 0 0 0];

internalField   nonuniform List<scalar> 
14458
(
0.00222126
0.00139905
0.00205682
0.000164437
0.00198942
6.74042e-05
0.00194726
4.21615e-05
0.00191671
3.05474e-05
0.00189296
2.37482e-05
0.00187368
1.92764e-05
0.00185758
1.61006e-05
0.00184386
1.37259e-05
0.00183197
1.18874e-05
0.00182154
1.0424e-05
0.00181231
9.23411e-06
0.00180406
8.24785e-06
0.00179664
7.41809e-06
0.00178993
6.71014e-06
0.00178383
6.10079e-06
0.00177826
5.57056e-06
0.00177315
5.10552e-06
0.00176846
4.69301e-06
0.00176413
4.32748e-06
0.00176013
4.0003e-06
0.00175643
3.70614e-06
0.00175299
3.43909e-06
0.00174979
3.19782e-06
0.00174681
2.97779e-06
0.00174403
2.77669e-06
0.00174144
2.59003e-06
0.00173902
2.4202e-06
0.00173676
2.26328e-06
0.00173464
2.11823e-06
0.00173266
1.98213e-06
0.0017308
1.857e-06
0.00172906
1.74019e-06
0.00172743
1.63126e-06
0.0017259
1.527e-06
0.00172447
1.43151e-06
0.00172313
1.34168e-06
0.00172187
1.2574e-06
0.00172069
1.17646e-06
0.00171959
1.10162e-06
0.00171856
1.03072e-06
0.0017176
9.63841e-07
0.0017167
8.98369e-07
0.00171586
8.38343e-07
0.00171508
7.8119e-07
0.00171435
7.27032e-07
0.00171367
6.74251e-07
0.00171305
6.25136e-07
0.00171247
5.7811e-07
0.00171194
5.3329e-07
0.00171145
4.88993e-07
0.001711
4.47909e-07
0.00171059
4.08413e-07
0.00171022
3.70557e-07
0.00170989
3.3362e-07
0.00170959
2.98638e-07
0.00170932
2.64966e-07
0.00170909
2.32563e-07
0.00170889
2.00936e-07
0.00170872
1.70922e-07
0.00170858
1.42098e-07
0.00170846
1.14292e-07
0.00170837
8.765e-08
0.00170831
6.20406e-08
0.00170827
3.76138e-08
0.00170826
1.4122e-08
0.00170827
-8.75214e-09
0.0017083
-3.01944e-08
0.00170835
-5.05718e-08
0.00170841
-7.00899e-08
0.0017085
-8.92336e-08
0.00170861
-1.06821e-07
0.00170873
-1.23529e-07
0.00170887
-1.39349e-07
0.00170902
-1.56949e-07
0.00170919
-1.7096e-07
0.00170938
-1.84469e-07
0.00170957
-1.97026e-07
0.00170978
-2.12e-07
0.00171
-2.23012e-07
0.00171024
-2.33937e-07
0.00171048
-2.43771e-07
0.00171074
-2.60678e-07
0.001711
-2.69023e-07
0.00171128
-2.77791e-07
0.00171157
-2.85074e-07
0.00171186
-2.99526e-07
0.00171217
-3.05569e-07
0.00171248
-3.12671e-07
0.0017128
-3.18067e-07
0.00171313
-3.37674e-07
0.00171347
-3.41764e-07
0.00171381
-3.47391e-07
0.00171417
-3.50646e-07
0.00171453
-3.66312e-07
0.0017149
-3.68519e-07
0.00171527
-3.72989e-07
0.00171565
-3.74982e-07
0.00171604
-3.97728e-07
0.00171644
-3.98528e-07
0.00171684
-4.01883e-07
0.00171725
-4.01959e-07
0.00171766
-4.18697e-07
0.00171808
-4.1779e-07
0.0017185
-4.2008e-07
0.00171893
-4.19199e-07
0.00171937
-4.42458e-07
0.00171981
-4.40455e-07
0.00172025
-4.41617e-07
0.0017207
-4.3897e-07
0.00172115
-4.53199e-07
0.0017216
-4.49893e-07
0.00172206
-4.50133e-07
0.00172252
-4.47367e-07
0.00172298
-4.62257e-07
0.00172345
-4.59433e-07
0.00172392
-4.5945e-07
0.00172438
-4.56944e-07
0.00172485
-4.6006e-07
0.00172531
-4.52331e-07
0.00172577
-4.51019e-07
-2.3498e-07
0.00311152
0.00259572
0.00288393
0.000392018
0.00278399
0.000167351
0.00272314
0.000103005
0.0026798
7.38908e-05
0.0026464
5.71452e-05
0.00261943
4.62479e-05
0.00259697
3.85569e-05
0.00257787
3.28283e-05
0.00256135
2.84048e-05
0.00254689
2.48913e-05
0.00253408
2.20379e-05
0.00252265
1.96756e-05
0.00251238
1.76898e-05
0.00250309
1.59974e-05
0.00249465
1.4541e-05
0.00248695
1.32744e-05
0.00247989
1.21639e-05
0.0024734
1.11804e-05
0.00246742
1.03081e-05
0.00246189
9.52762e-06
0.00245677
8.82593e-06
0.00245202
8.18998e-06
0.00244761
7.6146e-06
0.00244349
7.0901e-06
0.00243966
6.61062e-06
0.00243608
6.16732e-06
0.00243274
5.76244e-06
0.00242961
5.3885e-06
0.00242669
5.04266e-06
0.00242395
4.71942e-06
0.00242139
4.42108e-06
0.00241899
4.14275e-06
0.00241673
3.88305e-06
0.00241462
3.63636e-06
0.00241265
3.40867e-06
0.00241079
3.19463e-06
0.00240906
2.99363e-06
0.00240743
2.80186e-06
0.00240591
2.62334e-06
0.00240449
2.45443e-06
0.00240316
2.2949e-06
0.00240191
2.14046e-06
0.00240075
1.99727e-06
0.00239967
1.86108e-06
0.00239867
1.73186e-06
0.00239774
1.60694e-06
0.00239687
1.48976e-06
0.00239607
1.37772e-06
0.00239533
1.27083e-06
0.00239466
1.16637e-06
0.00239404
1.06846e-06
0.00239347
9.74479e-07
0.00239296
8.84375e-07
0.00239249
7.96991e-07
0.00239208
7.13857e-07
0.00239171
6.33934e-07
0.00239138
5.57065e-07
0.0023911
4.82484e-07
0.00239086
4.11432e-07
0.00239066
3.43233e-07
0.0023905
2.77548e-07
0.00239037
2.14637e-07
0.00239028
1.54206e-07
0.00239022
9.65052e-08
0.00239019
4.10624e-08
0.00239019
-1.25928e-08
0.00239023
-6.32845e-08
0.00239029
-1.11531e-07
0.00239037
-1.57759e-07
0.00239049
-2.02662e-07
0.00239062
-2.44508e-07
0.00239078
-2.84332e-07
0.00239097
-3.22282e-07
0.00239117
-3.62428e-07
0.0023914
-3.96415e-07
0.00239164
-4.29096e-07
0.0023919
-4.59948e-07
0.00239218
-4.94104e-07
0.00239248
-5.21676e-07
0.0023928
-5.48659e-07
0.00239313
-5.73773e-07
0.00239347
-6.09667e-07
0.00239383
-6.3175e-07
0.00239421
-6.54131e-07
0.0023946
-6.74137e-07
0.002395
-7.05089e-07
0.00239542
-7.22641e-07
0.00239585
-7.41489e-07
0.00239629
-7.57753e-07
0.00239674
-7.96188e-07
0.00239721
-8.09938e-07
0.00239769
-8.2577e-07
0.00239817
-8.38013e-07
0.00239867
-8.69495e-07
0.00239919
-8.79707e-07
0.00239971
-8.93084e-07
0.00240024
-9.02778e-07
0.00240078
-9.44976e-07
0.00240133
-9.52341e-07
0.00240189
-9.63329e-07
0.00240246
-9.69343e-07
0.00240304
-1.00124e-06
0.00240363
-1.00524e-06
0.00240423
-1.01378e-06
0.00240483
-1.0175e-06
0.00240544
-1.05901e-06
0.00240606
-1.06035e-06
0.00240669
-1.06618e-06
0.00240732
-1.06607e-06
0.00240796
-1.09213e-06
0.0024086
-1.09032e-06
0.00240925
-1.09354e-06
0.0024099
-1.092e-06
0.00241056
-1.11806e-06
0.00241122
-1.11564e-06
0.00241188
-1.11716e-06
0.00241254
-1.1144e-06
0.00241321
-1.12036e-06
0.00241386
-1.10255e-06
0.00241452
-1.09866e-06
-5.66664e-07
0.00403426
0.00368821
0.00373892
0.00068736
0.00360103
0.000305243
0.00351841
0.000185628
0.00346051
0.000131791
0.00341635
0.0001013
0.00338092
8.16787e-05
0.00335155
6.79313e-05
0.00332663
5.77413e-05
0.00330514
4.98991e-05
0.00328634
4.36862e-05
0.00326973
3.86497e-05
0.00325492
3.44863e-05
0.00324162
3.09906e-05
0.0032296
2.80148e-05
0.00321869
2.54557e-05
0.00320873
2.32317e-05
0.00319961
2.12828e-05
0.00319123
1.95591e-05
0.00318351
1.80296e-05
0.00317637
1.66618e-05
0.00316977
1.54324e-05
0.00316364
1.43194e-05
0.00315794
1.33119e-05
0.00315264
1.23937e-05
0.00314769
1.15544e-05
0.00314308
1.07803e-05
0.00313877
1.00719e-05
0.00313474
9.41766e-06
0.00313097
8.81263e-06
0.00312744
8.24839e-06
0.00312414
7.72653e-06
0.00312104
7.23981e-06
0.00311814
6.78563e-06
0.00311542
6.35614e-06
0.00311287
5.95797e-06
0.00311048
5.58377e-06
0.00310824
5.23228e-06
0.00310614
4.8982e-06
0.00310418
4.58603e-06
0.00310234
4.29076e-06
0.00310063
4.01184e-06
0.00309902
3.74355e-06
0.00309753
3.49318e-06
0.00309613
3.25514e-06
0.00309484
3.02921e-06
0.00309363
2.81178e-06
0.00309251
2.60692e-06
0.00309148
2.41114e-06
0.00309053
2.22436e-06
0.00308965
2.04301e-06
0.00308885
1.87204e-06
0.00308811
1.70802e-06
0.00308745
1.55084e-06
0.00308684
1.39891e-06
0.0030863
1.25407e-06
0.00308582
1.11488e-06
0.0030854
9.81142e-07
0.00308503
8.51801e-07
0.00308471
7.28362e-07
0.00308445
6.0988e-07
0.00308423
4.95924e-07
0.00308406
3.86739e-07
0.00308393
2.81961e-07
0.00308384
1.81783e-07
0.0030838
8.56164e-08
0.00308379
-7.21554e-09
0.00308382
-9.52747e-08
0.00308389
-1.79288e-07
0.00308399
-2.59731e-07
0.00308413
-3.37569e-07
0.00308429
-4.10642e-07
0.00308449
-4.80435e-07
0.00308471
-5.47073e-07
0.00308497
-6.15618e-07
0.00308524
-6.75751e-07
0.00308555
-7.33729e-07
0.00308588
-7.88756e-07
0.00308623
-8.47287e-07
0.0030866
-8.97027e-07
0.003087
-9.45714e-07
0.00308742
-9.91532e-07
0.00308786
-1.05012e-06
0.00308832
-1.09118e-06
0.00308879
-1.13249e-06
0.00308929
-1.17036e-06
0.0030898
-1.22144e-06
0.00309034
-1.25551e-06
0.00309089
-1.29123e-06
0.00309145
-1.32328e-06
0.00309204
-1.38228e-06
0.00309264
-1.41052e-06
0.00309325
-1.44149e-06
0.00309388
-1.46751e-06
0.00309453
-1.51711e-06
0.00309519
-1.54002e-06
0.00309586
-1.56706e-06
0.00309655
-1.589e-06
0.00309725
-1.65063e-06
0.00309797
-1.669e-06
0.0030987
-1.69209e-06
0.00309944
-1.70839e-06
0.00310019
-1.75641e-06
0.00310096
-1.76948e-06
0.00310173
-1.78836e-06
0.00310252
-1.80054e-06
0.00310332
-1.85879e-06
0.00310412
-1.8671e-06
0.00310494
-1.88108e-06
0.00310576
-1.88687e-06
0.00310659
-1.92456e-06
0.00310743
-1.92722e-06
0.00310828
-1.93606e-06
0.00310913
-1.93813e-06
0.00310998
-1.97352e-06
0.00311084
-1.97338e-06
0.00311171
-1.97795e-06
0.00311257
-1.97607e-06
0.00311344
-1.98447e-06
0.0031143
-1.95374e-06
0.00311515
-1.95286e-06
-1.00689e-06
0.00509521
0.00469384
0.00472975
0.00105283
0.00454516
0.000489829
0.00443475
0.000296042
0.00435841
0.000208121
0.00430083
0.000158888
0.00425496
0.000127545
0.00421713
0.000105762
0.00418516
8.97069e-05
0.00415766
7.74016e-05
0.00413366
6.76832e-05
0.00411249
5.98231e-05
0.00409364
5.33381e-05
0.00407673
4.79013e-05
0.00406146
4.32796e-05
0.00404761
3.93086e-05
0.00403498
3.5861e-05
0.00402342
3.28421e-05
0.00401281
3.01748e-05
0.00400303
2.78086e-05
0.00399399
2.56935e-05
0.00398563
2.37933e-05
0.00397788
2.20747e-05
0.00397067
2.05185e-05
0.00396396
1.9101e-05
0.00395771
1.78056e-05
0.00395188
1.66126e-05
0.00394643
1.55196e-05
0.00394134
1.45107e-05
0.00393657
1.35776e-05
0.00393211
1.27087e-05
0.00392794
1.19042e-05
0.00392402
1.11541e-05
0.00392035
1.04541e-05
0.00391691
9.79386e-06
0.00391369
9.18035e-06
0.00391067
8.60396e-06
0.00390784
8.06246e-06
0.00390519
7.54889e-06
0.00390271
7.06804e-06
0.00390039
6.61341e-06
0.00389821
6.18386e-06
0.00389619
5.77215e-06
0.00389429
5.38659e-06
0.00389253
5.02017e-06
0.00389088
4.6723e-06
0.00388936
4.33839e-06
0.00388794
4.02301e-06
0.00388663
3.72179e-06
0.00388542
3.43439e-06
0.00388431
3.15636e-06
0.00388329
2.89344e-06
0.00388235
2.64137e-06
0.0038815
2.39987e-06
0.00388073
2.16693e-06
0.00388004
1.94461e-06
0.00387943
1.7311e-06
0.00387888
1.52604e-06
0.00387841
1.32812e-06
0.003878
1.13903e-06
0.00387765
9.57586e-07
0.00387736
7.83168e-07
0.00387713
6.16051e-07
0.00387696
4.55698e-07
0.00387684
3.02295e-07
0.00387677
1.55028e-07
0.00387675
1.30936e-08
0.00387677
-1.21964e-07
0.00387684
-2.51012e-07
0.00387696
-3.74637e-07
0.00387711
-4.93988e-07
0.00387731
-6.06617e-07
0.00387754
-7.14356e-07
0.00387781
-8.17488e-07
0.00387812
-9.21967e-07
0.00387846
-1.01556e-06
0.00387883
-1.10584e-06
0.00387923
-1.19196e-06
0.00387967
-1.28153e-06
0.00388013
-1.35997e-06
0.00388062
-1.43657e-06
0.00388114
-1.5093e-06
0.00388168
-1.5967e-06
0.00388225
-1.66262e-06
0.00388285
-1.72843e-06
0.00388347
-1.78981e-06
0.00388411
-1.86648e-06
0.00388478
-1.92244e-06
0.00388547
-1.98002e-06
0.00388618
-2.03301e-06
0.00388691
-2.11778e-06
0.00388766
-2.16539e-06
0.00388844
-2.21601e-06
0.00388923
-2.2605e-06
0.00389005
-2.33275e-06
0.00389088
-2.3728e-06
0.00389173
-2.41748e-06
0.0038926
-2.45587e-06
0.00389349
-2.54128e-06
0.00389439
-2.57459e-06
0.00389531
-2.61324e-06
0.00389625
-2.64348e-06
0.0038972
-2.71115e-06
0.00389817
-2.73666e-06
0.00389915
-2.76868e-06
0.00390015
-2.79231e-06
0.00390116
-2.87047e-06
0.00390218
-2.8884e-06
0.00390321
-2.91261e-06
0.00390425
-2.92648e-06
0.0039053
-2.97784e-06
0.00390637
-2.98674e-06
0.00390743
-3.00239e-06
0.00390851
-3.00925e-06
0.00390959
-3.05537e-06
0.00391068
-3.05821e-06
0.00391177
-3.06594e-06
0.00391286
-3.06491e-06
0.00391396
-3.07581e-06
0.00391503
-3.02814e-06
0.00391611
-3.0265e-06
-1.55686e-06
0.00634387
0.00561
0.00590982
0.00148687
0.00566913
0.000730514
0.00552327
0.000441903
0.00542325
0.000308147
0.0053485
0.000233633
0.00528942
0.000186627
0.00524096
0.000154219
0.00520019
0.000130481
0.00516522
0.00011237
0.00513478
9.81185e-05
0.00510798
8.66234e-05
0.00508416
7.71606e-05
0.00506282
6.92421e-05
0.00504358
6.25216e-05
0.00502613
5.67543e-05
0.00501024
5.17526e-05
0.0049957
4.73772e-05
0.00498236
4.35156e-05
0.00497008
4.00914e-05
0.00495874
3.70327e-05
0.00494825
3.42862e-05
0.00493852
3.18042e-05
0.00492948
2.95572e-05
0.00492107
2.75112e-05
0.00491323
2.56422e-05
0.00490592
2.3923e-05
0.00489909
2.2347e-05
0.00489271
2.08927e-05
0.00488674
1.95481e-05
0.00488115
1.82972e-05
0.00487592
1.71383e-05
0.00487102
1.6058e-05
0.00486642
1.50502e-05
0.00486211
1.41014e-05
0.00485807
1.32182e-05
0.00485429
1.23887e-05
0.00485074
1.16095e-05
0.00484742
1.08717e-05
0.00484431
1.01798e-05
0.00484139
9.5259e-06
0.00483867
8.90806e-06
0.00483612
8.31749e-06
0.00483375
7.76302e-06
0.00483153
7.23618e-06
0.00482947
6.73601e-06
0.00482755
6.25684e-06
0.00482577
5.80351e-06
0.00482412
5.37066e-06
0.0048226
4.95774e-06
0.00482119
4.5594e-06
0.00481991
4.18188e-06
0.00481873
3.82008e-06
0.00481765
3.47358e-06
0.00481668
3.13988e-06
0.0048158
2.82117e-06
0.00481502
2.5152e-06
0.00481432
2.22147e-06
0.00481371
1.93837e-06
0.00481318
1.66771e-06
0.00481273
1.40797e-06
0.00481236
1.15842e-06
0.00481206
9.1924e-07
0.00481182
6.8978e-07
0.00481165
4.70079e-07
0.00481155
2.59176e-07
0.00481151
5.6073e-08
0.00481152
-1.37628e-07
0.00481159
-3.23072e-07
0.00481172
-5.00756e-07
0.0048119
-6.72119e-07
0.00481212
-8.34415e-07
0.0048124
-9.89988e-07
0.00481272
-1.13909e-06
0.00481309
-1.28848e-06
0.0048135
-1.42441e-06
0.00481394
-1.55576e-06
0.00481443
-1.68134e-06
0.00481496
-1.8099e-06
0.00481553
-1.92492e-06
0.00481613
-2.03732e-06
0.00481676
-2.14446e-06
0.00481743
-2.26724e-06
0.00481813
-2.36512e-06
0.00481887
-2.46259e-06
0.00481963
-2.55423e-06
0.00482043
-2.66253e-06
0.00482125
-2.74681e-06
0.0048221
-2.83286e-06
0.00482298
-2.91291e-06
0.00482389
-3.02801e-06
0.00482483
-3.10084e-06
0.00482579
-3.17715e-06
0.00482677
-3.24567e-06
0.00482778
-3.34504e-06
0.00482882
-3.4075e-06
0.00482988
-3.47535e-06
0.00483096
-3.53515e-06
0.00483206
-3.64708e-06
0.00483319
-3.69998e-06
0.00483433
-3.75912e-06
0.0048355
-3.80762e-06
0.00483668
-3.89778e-06
0.00483789
-3.93967e-06
0.00483911
-3.98904e-06
0.00484035
-4.02762e-06
0.0048416
-4.12659e-06
0.00484287
-4.15723e-06
0.00484415
-4.19491e-06
0.00484545
-4.21944e-06
0.00484675
-4.28543e-06
0.00484807
-4.3026e-06
0.0048494
-4.32711e-06
0.00485073
-4.34014e-06
0.00485207
-4.39613e-06
0.00485342
-4.4027e-06
0.00485477
-4.41428e-06
0.00485612
-4.41401e-06
0.00485747
-4.4264e-06
0.00485881
-4.35699e-06
0.00486014
-4.35937e-06
-2.24338e-06
0.00782498
0.00642447
0.00732969
0.00198217
0.00702383
0.00103637
0.00683327
0.000632458
0.00670272
0.000438695
0.00660586
0.000330496
0.00652983
0.000262657
0.00646783
0.000216223
0.00641588
0.000182422
0.00637149
0.00015676
0.00633297
0.000136645
0.00629912
0.000120471
0.00626909
0.000107192
0.00624223
9.61026e-05
0.00621804
8.67089e-05
0.00619614
7.86592e-05
0.0061762
7.16874e-05
0.00615798
6.55954e-05
0.00614127
6.02252e-05
0.0061259
5.54664e-05
0.00611171
5.1219e-05
0.00609859
4.74077e-05
0.00608643
4.39665e-05
0.00607513
4.08519e-05
0.00606463
3.80176e-05
0.00605484
3.54295e-05
0.00604571
3.30514e-05
0.00603719
3.08708e-05
0.00602922
2.88594e-05
0.00602177
2.70001e-05
0.00601479
2.5272e-05
0.00600826
2.36705e-05
0.00600214
2.21782e-05
0.0059964
2.07862e-05
0.00599103
1.94775e-05
0.00598599
1.82583e-05
0.00598126
1.71134e-05
0.00597683
1.6038e-05
0.00597268
1.50209e-05
0.0059688
1.40664e-05
0.00596516
1.31645e-05
0.00596175
1.23124e-05
0.00595857
1.14993e-05
0.0059556
1.07348e-05
0.00595283
1.00086e-05
0.00595025
9.31909e-06
0.00594784
8.65946e-06
0.00594561
8.03476e-06
0.00594354
7.43851e-06
0.00594163
6.86977e-06
0.00593987
6.32217e-06
0.00593825
5.80247e-06
0.00593676
5.30464e-06
0.00593541
4.82799e-06
0.00593418
4.36945e-06
0.00593307
3.93131e-06
0.00593207
3.51084e-06
0.00593119
3.10729e-06
0.00593041
2.71872e-06
0.00592973
2.34702e-06
0.00592915
1.99032e-06
0.00592866
1.64766e-06
0.00592826
1.31917e-06
0.00592794
1.00397e-06
0.00592771
7.02009e-07
0.00592756
4.12043e-07
0.00592748
1.32954e-07
0.00592748
-1.33735e-07
0.00592754
-3.89433e-07
0.00592767
-6.34617e-07
0.00592787
-8.70906e-07
0.00592813
-1.09536e-06
0.00592845
-1.31074e-06
0.00592883
-1.51746e-06
0.00592927
-1.72312e-06
0.00592975
-1.91227e-06
0.00593029
-2.09512e-06
0.00593088
-2.27037e-06
0.00593152
-2.44787e-06
0.0059322
-2.60904e-06
0.00593293
-2.76635e-06
0.0059337
-2.91684e-06
0.00593452
-3.08409e-06
0.00593538
-3.22233e-06
0.00593627
-3.35947e-06
0.00593721
-3.48926e-06
0.00593818
-3.63714e-06
0.00593919
-3.75715e-06
0.00594024
-3.87863e-06
0.00594132
-3.99269e-06
0.00594243
-4.14567e-06
0.00594358
-4.25021e-06
0.00594476
-4.35831e-06
0.00594597
-4.45691e-06
0.00594722
-4.58978e-06
0.00594849
-4.68028e-06
0.00594979
-4.77648e-06
0.00595112
-4.86286e-06
0.00595248
-5.00751e-06
0.00595386
-5.08474e-06
0.00595527
-5.16865e-06
0.00595671
-5.23969e-06
0.00595816
-5.35708e-06
0.00595964
-5.41914e-06
0.00596114
-5.48912e-06
0.00596267
-5.54586e-06
0.00596421
-5.67e-06
0.00596576
-5.71599e-06
0.00596734
-5.76929e-06
0.00596893
-5.80646e-06
0.00597053
-5.88954e-06
0.00597215
-5.91632e-06
0.00597377
-5.95052e-06
0.00597541
-5.97029e-06
0.00597705
-6.03764e-06
0.0059787
-6.04783e-06
0.00598035
-6.06258e-06
0.005982
-6.06204e-06
0.00598365
-6.07515e-06
0.00598527
-5.97777e-06
0.0059869
-5.97903e-06
-3.07418e-06
0.00958315
0.0071223
0.00904307
0.00252225
0.0086654
0.00141405
0.00841974
0.000878118
0.00825013
0.000608297
0.00812471
0.000455921
0.00802681
0.000360554
0.0079474
0.000295637
0.00788117
0.00024865
0.00782478
0.000213152
0.00777598
0.000185441
0.00773322
0.000163235
0.00769536
0.000145054
0.00766155
0.000129909
0.00763115
0.000117106
0.00760366
0.000106153
0.00757866
9.66816e-05
0.00755584
8.84161e-05
0.00753493
8.11394e-05
0.0075157
7.46968e-05
0.00749796
6.89517e-05
0.00748157
6.38007e-05
0.00746638
5.91542e-05
0.00745229
5.49507e-05
0.00743917
5.11277e-05
0.00742697
4.76389e-05
0.00741558
4.44362e-05
0.00740495
4.14994e-05
0.00739502
3.87916e-05
0.00738573
3.62897e-05
0.00737704
3.39661e-05
0.00736889
3.18125e-05
0.00736127
2.98064e-05
0.00735412
2.79356e-05
0.00734741
2.61791e-05
0.00734113
2.45414e-05
0.00733524
2.3004e-05
0.00732972
2.15601e-05
0.00732454
2.01959e-05
0.00731969
1.8915e-05
0.00731515
1.77048e-05
0.0073109
1.65617e-05
0.00730693
1.54727e-05
0.00730322
1.44474e-05
0.00729975
1.34737e-05
0.00729652
1.25494e-05
0.00729352
1.16661e-05
0.00729072
1.08289e-05
0.00728813
1.00301e-05
0.00728573
9.26833e-06
0.00728352
8.53608e-06
0.00728148
7.84036e-06
0.00727961
7.17413e-06
0.0072779
6.53643e-06
0.00727635
5.92354e-06
0.00727494
5.33771e-06
0.00727368
4.77561e-06
0.00727255
4.2363e-06
0.00727155
3.71736e-06
0.00727068
3.22072e-06
0.00726992
2.74406e-06
0.00726928
2.28623e-06
0.00726875
1.84715e-06
0.00726833
1.42579e-06
0.00726801
1.02183e-06
0.00726779
6.33839e-07
0.00726766
2.60488e-07
0.00726763
-9.67936e-08
0.00726768
-4.399e-07
0.00726781
-7.69111e-07
0.00726803
-1.08629e-06
0.00726832
-1.38825e-06
0.00726869
-1.67839e-06
0.00726912
-1.95706e-06
0.00726963
-2.23265e-06
0.00727021
-2.4884e-06
0.00727085
-2.73585e-06
0.00727155
-2.97327e-06
0.00727232
-3.21167e-06
0.00727314
-3.43068e-06
0.00727402
-3.64447e-06
0.00727495
-3.84931e-06
0.00727593
-4.07103e-06
0.00727697
-4.25992e-06
0.00727806
-4.44699e-06
0.00727919
-4.6246e-06
0.00728038
-4.82099e-06
0.0072816
-4.98579e-06
0.00728288
-5.15189e-06
0.00728419
-5.30849e-06
0.00728555
-5.50636e-06
0.00728695
-5.65061e-06
0.00728839
-5.79865e-06
0.00728987
-5.93481e-06
0.00729139
-6.10764e-06
0.00729294
-6.23313e-06
0.00729453
-6.36489e-06
0.00729615
-6.48431e-06
0.00729781
-6.66605e-06
0.0072995
-6.77356e-06
0.00730122
-6.88842e-06
0.00730296
-6.98735e-06
0.00730474
-7.13602e-06
0.00730655
-7.22303e-06
0.00730838
-7.31866e-06
0.00731023
-7.3977e-06
0.00731211
-7.54871e-06
0.00731401
-7.61354e-06
0.00731592
-7.68607e-06
0.00731786
-7.7386e-06
0.00731981
-7.83997e-06
0.00732177
-7.8783e-06
0.00732375
-7.9241e-06
0.00732573
-7.95166e-06
0.00732772
-8.02922e-06
0.00732972
-8.04321e-06
0.00733172
-8.06117e-06
0.00733372
-8.05941e-06
0.00733572
-8.07125e-06
0.00733768
-7.93884e-06
0.00733965
-7.94329e-06
-4.08792e-06
0.0116649
0.00769174
0.0111083
0.00307885
0.0106583
0.00186413
0.0103471
0.00118928
0.0101283
0.000827097
0.00996616
0.000618056
0.00984002
0.000486698
0.00973813
0.000397521
0.00965352
0.000333266
0.00958173
0.00028494
0.0095198
0.000247366
0.00946568
0.000217362
0.00941786
0.000192872
0.00937524
0.000172523
0.00933699
0.00015536
0.00930244
0.000140706
0.00927106
0.000128055
0.00924245
0.000117031
0.00921625
0.00010734
0.00919217
9.87692e-05
0.00916999
9.11342e-05
0.0091495
8.4295e-05
0.00913052
7.81317e-05
0.00911291
7.25596e-05
0.00909654
6.74956e-05
0.0090813
6.2877e-05
0.0090671
5.86412e-05
0.00905384
5.47579e-05
0.00904145
5.11793e-05
0.00902987
4.78742e-05
0.00901903
4.4807e-05
0.00900887
4.19643e-05
0.00899936
3.93175e-05
0.00899045
3.68499e-05
0.00898209
3.45355e-05
0.00897426
3.23767e-05
0.00896691
3.03509e-05
0.00896002
2.84487e-05
0.00895356
2.6653e-05
0.00894751
2.49663e-05
0.00894184
2.33733e-05
0.00893654
2.18688e-05
0.00893157
2.04373e-05
0.00892693
1.90884e-05
0.0089226
1.78077e-05
0.00891855
1.65922e-05
0.00891479
1.54317e-05
0.00891129
1.43313e-05
0.00890804
1.32816e-05
0.00890502
1.22808e-05
0.00890224
1.132e-05
0.00889967
1.04064e-05
0.00889731
9.53193e-06
0.00889516
8.69507e-06
0.00889319
7.89134e-06
0.0088914
7.12292e-06
0.00888979
6.38579e-06
0.00888835
5.67865e-06
0.00888707
4.99859e-06
0.00888594
4.34746e-06
0.00888496
3.72248e-06
0.00888413
3.12216e-06
0.00888343
2.54626e-06
0.00888286
1.99343e-06
0.00888242
1.46315e-06
0.0088821
9.53653e-07
0.0088819
4.63424e-07
0.00888181
-6.24185e-09
0.00888182
-4.57821e-07
0.00888195
-8.91569e-07
0.00888217
-1.30938e-06
0.00888249
-1.7079e-06
0.0088829
-2.09108e-06
0.0088834
-2.45941e-06
0.00888399
-2.82219e-06
0.00888466
-3.16101e-06
0.00888542
-3.48889e-06
0.00888625
-3.80384e-06
0.00888715
-4.11814e-06
0.00888813
-4.4093e-06
0.00888918
-4.69326e-06
0.0088903
-4.96575e-06
0.00889148
-5.2554e-06
0.00889273
-5.50734e-06
0.00889403
-5.75617e-06
0.0088954
-5.99314e-06
0.00889683
-6.24966e-06
0.00889831
-6.46999e-06
0.00889985
-6.69089e-06
0.00890145
-6.89995e-06
0.00890309
-7.15351e-06
0.00890479
-7.34667e-06
0.00890653
-7.54339e-06
0.00890832
-7.72561e-06
0.00891016
-7.94739e-06
0.00891204
-8.11568e-06
0.00891397
-8.29031e-06
0.00891594
-8.44985e-06
0.00891794
-8.6772e-06
0.00891999
-8.82136e-06
0.00892207
-8.97312e-06
0.00892419
-9.10561e-06
0.00892635
-9.29201e-06
0.00892854
-9.40889e-06
0.00893075
-9.53457e-06
0.008933
-9.64e-06
0.00893527
-9.82363e-06
0.00893757
-9.91054e-06
0.00893989
-1.00051e-05
0.00894223
-1.00753e-05
0.00894458
-1.01981e-05
0.00894696
-1.02493e-05
0.00894934
-1.03076e-05
0.00895174
-1.03433e-05
0.00895414
-1.04327e-05
0.00895655
-1.04498e-05
0.00895896
-1.04697e-05
0.00896137
-1.04648e-05
0.00896377
-1.04739e-05
0.00896613
-1.02976e-05
0.00896849
-1.02985e-05
-5.29831e-06
0.0141222
0.00812849
0.0135876
0.00361341
0.013076
0.00237579
0.0126916
0.00157367
0.0124125
0.00110615
0.0122038
0.000826791
0.0120413
0.000649179
0.0119104
0.000528422
0.0118021
0.000441624
0.0117104
0.00037657
0.0116316
0.000326172
0.0115629
0.000286063
0.0115024
0.000253424
0.0114485
0.000226379
0.0114002
0.000203623
0.0113567
0.000184233
0.0113172
0.000167525
0.0112813
0.00015299
0.0112484
0.000140233
0.0112182
0.000128963
0.0111904
0.000118936
0.0111647
0.000109964
0.011141
0.000101887
0.0111189
9.45905e-05
0.0110985
8.79649e-05
0.0110794
8.19264e-05
0.0110617
7.63939e-05
0.0110451
7.13233e-05
0.0110296
6.66534e-05
0.0110152
6.23426e-05
0.0110016
5.83453e-05
0.0109889
5.46412e-05
0.0109771
5.1194e-05
0.0109659
4.79815e-05
0.0109555
4.49713e-05
0.0109457
4.21628e-05
0.0109365
3.95283e-05
0.0109279
3.70553e-05
0.0109199
3.47227e-05
0.0109123
3.25311e-05
0.0109052
3.04619e-05
0.0108986
2.8508e-05
0.0108924
2.66513e-05
0.0108865
2.49004e-05
0.0108811
2.32386e-05
0.010876
2.16617e-05
0.0108713
2.01575e-05
0.0108669
1.87305e-05
0.0108628
1.73699e-05
0.010859
1.60728e-05
0.0108555
1.48291e-05
0.0108523
1.36459e-05
0.0108493
1.25135e-05
0.0108466
1.14302e-05
0.0108441
1.03904e-05
0.0108418
9.39614e-06
0.0108397
8.44251e-06
0.0108379
7.52782e-06
0.0108362
6.64853e-06
0.0108348
5.80634e-06
0.0108335
4.99785e-06
0.0108324
4.22123e-06
0.0108315
3.47595e-06
0.0108307
2.76036e-06
0.0108301
2.07355e-06
0.0108296
1.41348e-06
0.0108293
7.78319e-07
0.0108292
1.69379e-07
0.0108291
-4.16782e-07
0.0108292
-9.80418e-07
0.0108294
-1.52334e-06
0.0108297
-2.04198e-06
0.0108302
-2.54107e-06
0.0108308
-3.02098e-06
0.0108314
-3.49194e-06
0.0108322
-3.93426e-06
0.0108331
-4.36242e-06
0.010834
-4.77393e-06
0.0108351
-5.18234e-06
0.0108363
-5.56336e-06
0.0108375
-5.93484e-06
0.0108388
-6.29151e-06
0.0108402
-6.6644e-06
0.0108417
-6.99479e-06
0.0108433
-7.32059e-06
0.0108449
-7.63127e-06
0.0108466
-7.96134e-06
0.0108484
-8.25057e-06
0.0108503
-8.53962e-06
0.0108522
-8.81364e-06
0.0108542
-9.13364e-06
0.0108562
-9.38733e-06
0.0108583
-9.64437e-06
0.0108605
-9.88339e-06
0.0108627
-1.01637e-05
0.0108649
-1.03848e-05
0.0108673
-1.06123e-05
0.0108696
-1.08211e-05
0.0108721
-1.1101e-05
0.0108745
-1.12901e-05
0.010877
-1.14872e-05
0.0108796
-1.16608e-05
0.0108822
-1.18909e-05
0.0108848
-1.20442e-05
0.0108875
-1.22067e-05
0.0108902
-1.23442e-05
0.0108929
-1.25634e-05
0.0108957
-1.26771e-05
0.0108985
-1.27983e-05
0.0109013
-1.28898e-05
0.0109042
-1.30359e-05
0.010907
-1.31025e-05
0.0109099
-1.31756e-05
0.0109128
-1.32207e-05
0.0109157
-1.33207e-05
0.0109185
-1.33409e-05
0.0109214
-1.33625e-05
0.0109243
-1.33531e-05
0.0109272
-1.33566e-05
0.01093
-1.31269e-05
0.0109329
-1.31275e-05
-6.76063e-06
0.0170157
0.00843801
0.0165448
0.00408431
0.0160001
0.0029205
0.0155424
0.00203133
0.0151931
0.00145546
0.0149266
0.00109326
0.0147179
0.00085787
0.0145497
0.000696629
0.0144107
0.000580624
0.0142935
0.000493825
0.0141929
0.000426758
0.0141054
0.000373537
0.0140285
0.000330352
0.0139602
0.000294662
0.0138991
0.000264706
0.0138441
0.000239237
0.0137943
0.000217333
0.013749
0.000198312
0.0137076
0.000181645
0.0136696
0.000166942
0.0136347
0.000153877
0.0136024
0.000142201
0.0135726
0.000131702
0.013545
0.000122226
0.0135193
0.000113629
0.0134954
0.000105801
0.0134732
9.86354e-05
0.0134524
9.20715e-05
0.0134331
8.60304e-05
0.013415
8.0457e-05
0.013398
7.52932e-05
0.0133821
7.05096e-05
0.0133673
6.60602e-05
0.0133533
6.19155e-05
0.0133403
5.80354e-05
0.013328
5.44151e-05
0.0133165
5.10205e-05
0.0133057
4.78351e-05
0.0132956
4.48327e-05
0.0132862
4.20117e-05
0.0132773
3.93493e-05
0.0132689
3.68359e-05
0.0132611
3.44498e-05
0.0132538
3.21988e-05
0.013247
3.00631e-05
0.0132406
2.80369e-05
0.0132347
2.61056e-05
0.0132292
2.42731e-05
0.013224
2.25265e-05
0.0132192
2.08618e-05
0.0132148
1.92671e-05
0.0132107
1.77494e-05
0.0132069
1.62975e-05
0.0132034
1.49088e-05
0.0132002
1.35766e-05
0.0131973
1.23026e-05
0.0131947
1.10808e-05
0.0131923
9.90915e-06
0.0131902
8.78318e-06
0.0131883
7.70439e-06
0.0131866
6.66866e-06
0.0131851
5.67368e-06
0.0131839
4.71858e-06
0.0131829
3.80125e-06
0.013182
2.92043e-06
0.0131813
2.07363e-06
0.0131809
1.25867e-06
0.0131806
4.76945e-07
0.0131804
-2.76076e-07
0.0131804
-1.00106e-06
0.0131806
-1.69954e-06
0.0131809
-2.36767e-06
0.0131814
-3.01087e-06
0.013182
-3.62963e-06
0.0131828
-4.23527e-06
0.0131836
-4.80641e-06
0.0131846
-5.35924e-06
0.0131857
-5.89086e-06
0.013187
-6.41632e-06
0.0131883
-6.90909e-06
0.0131898
-7.38909e-06
0.0131913
-7.85024e-06
0.013193
-8.32672e-06
0.0131948
-8.75441e-06
0.0131966
-9.17525e-06
0.0131986
-9.57714e-06
0.0132006
-9.99824e-06
0.0132027
-1.03726e-05
0.0132049
-1.07452e-05
0.0132072
-1.10992e-05
0.0132096
-1.15015e-05
0.013212
-1.18295e-05
0.0132145
-1.21601e-05
0.0132171
-1.24686e-05
0.0132198
-1.28207e-05
0.0132225
-1.31061e-05
0.0132253
-1.33976e-05
0.0132281
-1.36662e-05
0.013231
-1.40108e-05
0.013234
-1.42544e-05
0.013237
-1.45058e-05
0.0132401
-1.47287e-05
0.0132432
-1.50119e-05
0.0132464
-1.5209e-05
0.0132496
-1.5415e-05
0.0132528
-1.55906e-05
0.0132561
-1.58536e-05
0.0132594
-1.59989e-05
0.0132628
-1.61511e-05
0.0132662
-1.62674e-05
0.0132696
-1.64413e-05
0.013273
-1.65255e-05
0.0132764
-1.6615e-05
0.0132799
-1.66703e-05
0.0132834
-1.67832e-05
0.0132868
-1.68059e-05
0.0132903
-1.68279e-05
0.0132937
-1.68115e-05
0.0132972
-1.68076e-05
0.0133006
-1.65129e-05
0.013304
-1.65046e-05
-8.50027e-06
0.0204181
0.00863699
0.020045
0.00445733
0.0195159
0.00344959
0.0190009
0.0025464
0.0185768
0.00187952
0.018242
0.00142811
0.0179759
0.00112394
0.0177603
0.000912205
0.017582
0.000758944
0.0174317
0.000644116
0.017303
0.00055547
0.0171913
0.000485256
0.0170932
0.000428411
0.0170063
0.000381543
0.0169288
0.000342294
0.016859
0.000308995
0.0167959
0.000280414
0.0167386
0.00025564
0.0166863
0.00023397
0.0166383
0.000214882
0.0165943
0.000197944
0.0165536
0.000182826
0.0165161
0.000169249
0.0164813
0.000157008
0.016449
0.000145913
0.016419
0.00013582
0.016391
0.000126591
0.016365
0.000118142
0.0163406
0.000110372
0.0163179
0.000103208
0.0162966
9.65768e-05
0.0162767
9.0436e-05
0.016258
8.47275e-05
0.0162405
7.94127e-05
0.0162241
7.44419e-05
0.0162087
6.98041e-05
0.0161943
6.54576e-05
0.0161807
6.13805e-05
0.016168
5.75406e-05
0.0161561
5.39327e-05
0.0161449
5.05291e-05
0.0161344
4.7317e-05
0.0161246
4.42705e-05
0.0161154
4.13957e-05
0.0161068
3.86691e-05
0.0160988
3.6083e-05
0.0160912
3.36199e-05
0.0160842
3.12827e-05
0.0160777
2.90556e-05
0.0160716
2.69338e-05
0.016066
2.49029e-05
0.0160608
2.29696e-05
0.016056
2.11206e-05
0.0160515
1.93526e-05
0.0160474
1.76575e-05
0.0160437
1.60363e-05
0.0160403
1.44819e-05
0.0160372
1.29914e-05
0.0160344
1.15595e-05
0.016032
1.01873e-05
0.0160298
8.86966e-06