/*--------------------------------*- C++ -*----------------------------------*\
  =========                 |
  \\      /  F ield         | OpenFOAM: The Open Source CFD Toolbox
   \\    /   O peration     | Website:  https://openfoam.org
    \\  /    A nd           | Version:  8
     \\/     M anipulation  |
\*---------------------------------------------------------------------------*/
FoamFile
{
    version     2.0;
    format      ascii;
    class       volVectorField;
    location    "750";
    object      U;
}
// * * * * * * * * * * * * * * * * * * * * * * * * * * * * * * * * * * * * * //

dimensions      [0 1 -1 0 0 0 0];

internalField   nonuniform List<vector> 
7320
(
(22.6429 -0.848127 0)
(20.2991 -0.0156863 0)
(19.4729 0.000192374 0)
(18.9932 0.000303705 0)
(18.6577 0.000223808 0)
(18.4025 0.000174261 0)
(18.1985 0.000141567 0)
(18.0298 0.000118305 0)
(17.8872 0.000100888 0)
(17.7644 8.73949e-05 0)
(17.6573 7.66371e-05 0)
(17.5629 6.78969e-05 0)
(17.4788 6.06501e-05 0)
(17.4034 5.45542e-05 0)
(17.3353 4.93405e-05 0)
(17.2736 4.48646e-05 0)
(17.2174 4.09685e-05 0)
(17.1659 3.75542e-05 0)
(17.1186 3.4499e-05 0)
(17.0751 3.18165e-05 0)
(17.035 2.94149e-05 0)
(16.9978 2.72594e-05 0)
(16.9633 2.52798e-05 0)
(16.9313 2.35134e-05 0)
(16.9015 2.1901e-05 0)
(16.8737 2.04313e-05 0)
(16.8478 1.90263e-05 0)
(16.8236 1.77863e-05 0)
(16.801 1.66393e-05 0)
(16.7798 1.55841e-05 0)
(16.76 1.4562e-05 0)
(16.7415 1.36532e-05 0)
(16.7241 1.2802e-05 0)
(16.7078 1.20135e-05 0)
(16.6926 1.12074e-05 0)
(16.6783 1.05167e-05 0)
(16.6649 9.86439e-06 0)
(16.6523 9.25863e-06 0)
(16.6406 8.63842e-06 0)
(16.6296 8.10139e-06 0)
(16.6193 7.58814e-06 0)
(16.6096 7.10996e-06 0)
(16.6006 6.58842e-06 0)
(16.5923 6.15915e-06 0)
(16.5844 5.74637e-06 0)
(16.5771 5.36174e-06 0)
(16.5704 4.95113e-06 0)
(16.5641 4.60216e-06 0)
(16.5583 4.26252e-06 0)
(16.5529 3.94395e-06 0)
(16.548 3.59055e-06 0)
(16.5435 3.29679e-06 0)
(16.5393 3.00962e-06 0)
(16.5356 2.73811e-06 0)
(16.5322 2.45441e-06 0)
(16.5291 2.20097e-06 0)
(16.5264 1.95296e-06 0)
(16.524 1.71524e-06 0)
(16.5219 1.47933e-06 0)
(16.5201 1.2559e-06 0)
(16.5186 1.0391e-06 0)
(16.5173 8.2772e-07 0)
(16.5164 6.36862e-07 0)
(16.5156 4.39608e-07 0)
(16.5151 2.52505e-07 0)
(16.5149 6.84851e-08 0)
(16.5149 -7.57924e-08 0)
(16.515 -2.45131e-07 0)
(16.5154 -4.03791e-07 0)
(16.516 -5.62529e-07 0)
(16.5168 -6.83924e-07 0)
(16.5177 -8.27238e-07 0)
(16.5188 -9.57988e-07 0)
(16.5201 -1.08746e-06 0)
(16.5215 -1.18323e-06 0)
(16.5231 -1.29665e-06 0)
(16.5248 -1.40131e-06 0)
(16.5266 -1.504e-06 0)
(16.5286 -1.59784e-06 0)
(16.5307 -1.68573e-06 0)
(16.5329 -1.76733e-06 0)
(16.5352 -1.84156e-06 0)
(16.5376 -1.96054e-06 0)
(16.5401 -2.02095e-06 0)
(16.5427 -2.08061e-06 0)
(16.5455 -2.12486e-06 0)
(16.5483 -2.24356e-06 0)
(16.5512 -2.27541e-06 0)
(16.5541 -2.31567e-06 0)
(16.5572 -2.33162e-06 0)
(16.5604 -2.53802e-06 0)
(16.5636 -2.54554e-06 0)
(16.5669 -2.56579e-06 0)
(16.5703 -2.54593e-06 0)
(16.5737 -2.72768e-06 0)
(16.5772 -2.70003e-06 0)
(16.5808 -2.70269e-06 0)
(16.5845 -2.65484e-06 0)
(16.5882 -2.99671e-06 0)
(16.592 -2.94884e-06 0)
(16.5959 -2.93183e-06 0)
(16.5998 -2.83834e-06 0)
(16.6037 -3.11249e-06 0)
(16.6078 -3.0166e-06 0)
(16.6118 -2.97961e-06 0)
(16.616 -2.85553e-06 0)
(16.6202 -3.34382e-06 0)
(16.6244 -3.2303e-06 0)
(16.6286 -3.17148e-06 0)
(16.633 -2.99292e-06 0)
(16.6373 -3.33425e-06 0)
(16.6417 -3.16411e-06 0)
(16.6461 -3.08929e-06 0)
(16.6505 -2.89456e-06 0)
(16.655 -3.40515e-06 0)
(16.6595 -3.23774e-06 0)
(16.664 -3.16517e-06 0)
(16.6685 -2.94633e-06 0)
(16.673 -3.1465e-06 0)
(16.6776 -2.94008e-06 0)
(16.682 -2.91076e-06 0)
(16.6865 -1.37465e-06 0)
(26.6037 0.16714 0)
(23.9491 0.007431 0)
(22.9106 0.00132355 0)
(22.324 0.000761362 0)
(21.922 0.000547522 0)
(21.6197 0.000424665 0)
(21.3794 0.000344297 0)
(21.1815 0.000287371 0)
(21.0145 0.000244868 0)
(20.8711 0.000211996 0)
(20.7461 0.000185843 0)
(20.636 0.000164596 0)
(20.5381 0.000146993 0)
(20.4503 0.000132189 0)
(20.3712 0.000119554 0)
(20.2994 0.00010869 0)
(20.2341 9.92381e-05 0)
(20.1743 9.09515e-05 0)
(20.1194 8.35837e-05 0)
(20.0688 7.70736e-05 0)
(20.0222 7.12465e-05 0)
(19.979 6.60108e-05 0)
(19.939 6.12412e-05 0)
(19.9018 5.69491e-05 0)
(19.8672 5.30338e-05 0)
(19.835 4.94585e-05 0)
(19.8049 4.61101e-05 0)
(19.7769 4.30928e-05 0)
(19.7506 4.03034e-05 0)
(19.7261 3.77287e-05 0)
(19.7031 3.52885e-05 0)
(19.6816 3.30696e-05 0)
(19.6615 3.09952e-05 0)
(19.6426 2.90653e-05 0)
(19.6249 2.71786e-05 0)
(19.6083 2.54884e-05 0)
(19.5927 2.38951e-05 0)
(19.5782 2.24055e-05 0)
(19.5645 2.09442e-05 0)
(19.5518 1.96231e-05 0)
(19.5398 1.83669e-05 0)
(19.5286 1.7187e-05 0)
(19.5182 1.59899e-05 0)
(19.5084 1.49321e-05 0)
(19.4994 1.39202e-05 0)
(19.4909 1.2967e-05 0)
(19.483 1.20089e-05 0)
(19.4757 1.11452e-05 0)
(19.469 1.03124e-05 0)
(19.4627 9.52334e-06 0)
(19.457 8.71417e-06 0)
(19.4517 7.99035e-06 0)
(19.4469 7.28922e-06 0)
(19.4425 6.62063e-06 0)
(19.4386 5.9545e-06 0)
(19.435 5.33482e-06 0)
(19.4318 4.73415e-06 0)
(19.429 4.15694e-06 0)
(19.4265 3.59719e-06 0)
(19.4244 3.05961e-06 0)
(19.4226 2.54115e-06 0)
(19.4212 2.03868e-06 0)
(19.42 1.57344e-06 0)
(19.4191 1.10762e-06 0)
(19.4185 6.64744e-07 0)
(19.4181 2.34336e-07 0)
(19.418 -1.39863e-07 0)
(19.4182 -5.35878e-07 0)
(19.4186 -9.08782e-07 0)
(19.4192 -1.27366e-06 0)
(19.42 -1.5882e-06 0)
(19.421 -1.91937e-06 0)
(19.4222 -2.22684e-06 0)
(19.4236 -2.52567e-06 0)
(19.4252 -2.78855e-06 0)
(19.4269 -3.05567e-06 0)
(19.4288 -3.30522e-06 0)
(19.4309 -3.54587e-06 0)
(19.4331 -3.78284e-06 0)
(19.4354 -3.99538e-06 0)
(19.4379 -4.19606e-06 0)
(19.4406 -4.3824e-06 0)
(19.4433 -4.64657e-06 0)
(19.4462 -4.80758e-06 0)
(19.4492 -4.9657e-06 0)
(19.4523 -5.09943e-06 0)
(19.4555 -5.34523e-06 0)
(19.4588 -5.45657e-06 0)
(19.4623 -5.57926e-06 0)
(19.4658 -5.66761e-06 0)
(19.4694 -6.02949e-06 0)
(19.4732 -6.09938e-06 0)
(19.477 -6.18855e-06 0)
(19.4809 -6.22305e-06 0)
(19.485 -6.53541e-06 0)
(19.4891 -6.55292e-06 0)
(19.4933 -6.61342e-06 0)
(19.4975 -6.60779e-06 0)
(19.5019 -7.12722e-06 0)
(19.5063 -7.11e-06 0)
(19.5109 -7.13977e-06 0)
(19.5155 -7.07085e-06 0)
(19.5201 -7.48366e-06 0)
(19.5249 -7.40084e-06 0)
(19.5297 -7.39959e-06 0)
(19.5346 -7.28814e-06 0)
(19.5395 -7.96507e-06 0)
(19.5445 -7.84845e-06 0)
(19.5496 -7.8122e-06 0)
(19.5547 -7.62588e-06 0)
(19.5598 -8.09308e-06 0)
(19.565 -7.90173e-06 0)
(19.5703 -7.83762e-06 0)
(19.5756 -7.62562e-06 0)
(19.5809 -8.27948e-06 0)
(19.5862 -8.08083e-06 0)
(19.5916 -8.0103e-06 0)
(19.597 -7.7628e-06 0)
(19.6024 -8.00932e-06 0)
(19.6078 -7.70341e-06 0)
(19.613 -7.66377e-06 0)
(19.6184 -3.77842e-06 0)
(28.9497 0.0984766 0)
(26.1304 0.00639105 0)
(24.9213 0.00233809 0)
(24.2467 0.00142134 0)
(23.7932 0.00101461 0)
(23.4561 0.000782719 0)
(23.1903 0.000632579 0)
(22.9724 0.000526929 0)
(22.7892 0.000448379 0)
(22.6322 0.000387799 0)
(22.4957 0.000339715 0)
(22.3756 0.000300701 0)
(22.2689 0.000268416 0)
(22.1734 0.000241291 0)
(22.0873 0.00021817 0)
(22.0093 0.000198291 0)
(21.9383 0.000181005 0)
(21.8733 0.000165855 0)
(21.8137 0.000152418 0)
(21.7589 0.000140523 0)
(21.7083 0.000129881 0)
(21.6615 0.000120318 0)
(21.6181 0.000111631 0)
(21.5778 0.000103793 0)
(21.5403 9.66461e-05 0)
(21.5054 9.01177e-05 0)
(21.4728 8.40446e-05 0)
(21.4424 7.85351e-05 0)
(21.414 7.34437e-05 0)
(21.3874 6.87408e-05 0)
(21.3625 6.43142e-05 0)
(21.3392 6.02601e-05 0)
(21.3174 5.64734e-05 0)
(21.2969 5.29463e-05 0)
(21.2777 4.95466e-05 0)
(21.2598 4.6457e-05 0)
(21.2429 4.35474e-05 0)
(21.2271 4.08223e-05 0)
(21.2124 3.81838e-05 0)
(21.1985 3.57659e-05 0)
(21.1856 3.34711e-05 0)
(21.1734 3.13111e-05 0)
(21.1621 2.91673e-05 0)
(21.1516 2.72304e-05 0)
(21.1417 2.53812e-05 0)
(21.1325 2.36343e-05 0)
(21.124 2.19091e-05 0)
(21.1161 2.03261e-05 0)
(21.1087 1.88046e-05 0)
(21.102 1.73596e-05 0)
(21.0957 1.59101e-05 0)
(21.09 1.45863e-05 0)
(21.0847 1.33084e-05 0)
(21.08 1.20881e-05 0)
(21.0756 1.08868e-05 0)
(21.0717 9.75896e-06 0)
(21.0683 8.66938e-06 0)
(21.0652 7.62308e-06 0)
(21.0625 6.60996e-06 0)
(21.0601 5.63929e-06 0)
(21.0581 4.70512e-06 0)
(21.0565 3.80299e-06 0)
(21.0552 2.95664e-06 0)
(21.0541 2.12288e-06 0)
(21.0534 1.32872e-06 0)
(21.053 5.60742e-07 0)
(21.0528 -1.3316e-07 0)
(21.0529 -8.39697e-07 0)
(21.0532 -1.50782e-06 0)
(21.0538 -2.15647e-06 0)
(21.0546 -2.73927e-06 0)
(21.0556 -3.32966e-06 0)
(21.0569 -3.88323e-06 0)
(21.0583 -4.41862e-06 0)
(21.06 -4.91287e-06 0)
(21.0618 -5.39574e-06 0)
(21.0638 -5.85131e-06 0)
(21.0659 -6.28951e-06 0)
(21.0682 -6.7266e-06 0)
(21.0707 -7.11965e-06 0)
(21.0734 -7.49489e-06 0)
(21.0761 -7.84744e-06 0)
(21.0791 -8.30739e-06 0)
(21.0821 -8.61989e-06 0)
(21.0853 -8.92782e-06 0)
(21.0887 -9.20088e-06 0)
(21.0921 -9.62179e-06 0)
(21.0957 -9.86028e-06 0)
(21.0994 -1.01138e-05 0)
(21.1032 -1.0321e-05 0)
(21.1071 -1.08824e-05 0)
(21.1112 -1.10593e-05 0)
(21.1153 -1.1263e-05 0)
(21.1195 -1.13947e-05 0)
(21.1239 -1.18812e-05 0)
(21.1284 -1.19853e-05 0)
(21.1329 -1.21465e-05 0)
(21.1376 -1.22219e-05 0)
(21.1423 -1.29605e-05 0)
(21.1472 -1.3012e-05 0)
(21.1521 -1.31278e-05 0)
(21.1571 -1.31169e-05 0)
(21.1622 -1.37086e-05 0)
(21.1674 -1.36713e-05 0)
(21.1727 -1.37402e-05 0)
(21.178 -1.36682e-05 0)
(21.1834 -1.45738e-05 0)
(21.1889 -1.44812e-05 0)
(21.1944 -1.44955e-05 0)
(21.2 -1.43194e-05 0)
(21.2057 -1.49468e-05 0)
(21.2114 -1.47514e-05 0)
(21.2171 -1.47175e-05 0)
(21.2229 -1.44962e-05 0)
(21.2287 -1.53288e-05 0)
(21.2346 -1.51073e-05 0)
(21.2405 -1.5049e-05 0)
(21.2464 -1.47671e-05 0)
(21.2523 -1.50786e-05 0)
(21.2582 -1.46348e-05 0)
(21.264 -1.45998e-05 0)
(21.2699 -7.31047e-06 0)
(30.6449 0.0459572 0)
(27.8131 0.00831862 0)
(26.4561 0.00392314 0)
(25.6943 0.00237909 0)
(25.1892 0.0016808 0)
(24.8184 0.00128803 0)
(24.5284 0.00103662 0)
(24.2922 0.000861109 0)
(24.0944 0.000731327 0)
(23.9254 0.000631615 0)
(23.7788 0.000552707 0)
(23.6501 0.00048881 0)
(23.5359 0.000436028 0)
(23.4338 0.00039174 0)
(23.3419 0.000354046 0)
(23.2586 0.000321656 0)
(23.1829 0.000293515 0)
(23.1137 0.000268868 0)
(23.0503 0.000247044 0)
(22.9919 0.000227712 0)
(22.9381 0.000210425 0)
(22.8883 0.000194895 0)
(22.8421 0.000180812 0)
(22.7993 0.000168091 0)
(22.7594 0.000156497 0)
(22.7223 0.000145905 0)
(22.6877 0.000136091 0)
(22.6554 0.000127156 0)
(22.6252 0.000118901 0)
(22.597 0.000111275 0)
(22.5705 0.000104125 0)
(22.5458 9.75507e-05 0)
(22.5226 9.1414e-05 0)
(22.5009 8.56951e-05 0)
(22.4805 8.02272e-05 0)
(22.4614 7.52174e-05 0)
(22.4435 7.05029e-05 0)
(22.4268 6.60833e-05 0)
(22.4111 6.18359e-05 0)
(22.3964 5.7914e-05 0)
(22.3826 5.4196e-05 0)
(22.3697 5.06926e-05 0)
(22.3577 4.72587e-05 0)
(22.3464 4.41165e-05 0)
(22.3359 4.11205e-05 0)
(22.3262 3.82862e-05 0)
(22.3171 3.55145e-05 0)
(22.3087 3.2946e-05 0)
(22.3008 3.04821e-05 0)
(22.2936 2.81391e-05 0)
(22.287 2.58189e-05 0)
(22.2808 2.36741e-05 0)
(22.2752 2.16083e-05 0)
(22.2701 1.96345e-05 0)
(22.2655 1.77049e-05 0)
(22.2613 1.58839e-05 0)
(22.2576 1.41282e-05 0)
(22.2543 1.2443e-05 0)
(22.2513 1.08143e-05 0)
(22.2488 9.25472e-06 0)
(22.2466 7.75535e-06 0)
(22.2448 6.31025e-06 0)
(22.2433 4.94576e-06 0)
(22.2422 3.61237e-06 0)
(22.2413 2.34051e-06 0)
(22.2408 1.11344e-06 0)
(22.2405 -1.57017e-08 0)
(22.2405 -1.14494e-06 0)
(22.2408 -2.21638e-06 0)
(22.2414 -3.25272e-06 0)
(22.2421 -4.20239e-06 0)
(22.2432 -5.14788e-06 0)
(22.2444 -6.0401e-06 0)
(22.2458 -6.90171e-06 0)
(22.2475 -7.71084e-06 0)
(22.2493 -8.49271e-06 0)
(22.2514 -9.23514e-06 0)
(22.2536 -9.94961e-06 0)
(22.256 -1.06602e-05 0)
(22.2586 -1.13077e-05 0)
(22.2613 -1.19294e-05 0)
(22.2642 -1.25186e-05 0)
(22.2673 -1.32366e-05 0)
(22.2705 -1.37673e-05 0)
(22.2738 -1.42901e-05 0)
(22.2773 -1.47666e-05 0)
(22.2809 -1.54198e-05 0)
(22.2847 -1.58467e-05 0)
(22.2886 -1.62908e-05 0)
(22.2926 -1.66757e-05 0)
(22.2967 -1.74843e-05 0)
(22.301 -1.7825e-05 0)
(22.3054 -1.81985e-05 0)
(22.3099 -1.84819e-05 0)
(22.3145 -1.91879e-05 0)
(22.3192 -1.94312e-05 0)
(22.324 -1.97438e-05 0)
(22.329 -1.995e-05 0)
(22.334 -2.09428e-05 0)
(22.3391 -2.11115e-05 0)
(22.3444 -2.13592e-05 0)
(22.3497 -2.14508e-05 0)
(22.3551 -2.22547e-05 0)
(22.3606 -2.23054e-05 0)
(22.3662 -2.2484e-05 0)
(22.3719 -2.24891e-05 0)
(22.3777 -2.36445e-05 0)
(22.3835 -2.3612e-05 0)
(22.3894 -2.37088e-05 0)
(22.3953 -2.3572e-05 0)
(22.4013 -2.43775e-05 0)
(22.4074 -2.4204e-05 0)
(22.4135 -2.42225e-05 0)
(22.4197 -2.40101e-05 0)
(22.4259 -2.50269e-05 0)
(22.4321 -2.47981e-05 0)
(22.4383 -2.47622e-05 0)
(22.4446 -2.44508e-05 0)
(22.4509 -2.48275e-05 0)
(22.4571 -2.42045e-05 0)
(22.4632 -2.41815e-05 0)
(22.4695 -1.21983e-05 0)
(31.9342 0.0469921 0)
(29.2283 0.0125097 0)
(27.7543 0.00606045 0)
(26.9065 0.00365717 0)
(26.348 0.00255942 0)
(25.9421 0.00194751 0)
(25.6273 0.00155991 0)
(25.3724 0.00129158 0)
(25.1601 0.00109436 0)
(24.9793 0.000943499 0)
(24.8229 0.000824527 0)
(24.6858 0.00072843 0)
(24.5645 0.000649218 0)
(24.4562 0.000582863 0)
(24.3587 0.000526479 0)
(24.2706 0.000478074 0)
(24.1905 0.000436065 0)
(24.1174 0.000399301 0)
(24.0504 0.000366795 0)
(23.9888 0.000338 0)
(23.9319 0.000312266 0)
(23.8794 0.000289156 0)
(23.8308 0.00026823 0)
(23.7856 0.000249316 0)
(23.7436 0.000232085 0)
(23.7045 0.000216349 0)
(23.6681 0.000201805 0)
(23.634 0.000188534 0)
(23.6022 0.000176281 0)
(23.5725 0.000164958 0)
(23.5447 0.000154371 0)
(23.5186 0.000144614 0)
(23.4942 0.00013551 0)
(23.4713 0.000127025 0)
(23.4499 0.000118953 0)
(23.4298 0.00011152 0)
(23.411 0.00010453 0)
(23.3933 9.79734e-05 0)
(23.3768 9.17017e-05 0)
(23.3613 8.58838e-05 0)
(23.3468 8.03727e-05 0)
(23.3332 7.51765e-05 0)
(23.3205 7.01232e-05 0)
(23.3086 6.54625e-05 0)
(23.2976 6.10226e-05 0)
(23.2873 5.68191e-05 0)
(23.2777 5.27335e-05 0)
(23.2688 4.89246e-05 0)
(23.2605 4.52752e-05 0)
(23.2529 4.18029e-05 0)
(23.2458 3.83919e-05 0)
(23.2393 3.52155e-05 0)
(23.2334 3.21603e-05 0)
(23.228 2.92405e-05 0)
(23.223 2.63991e-05 0)
(23.2186 2.3709e-05 0)
(23.2146 2.11184e-05 0)
(23.211 1.86329e-05 0)
(23.2079 1.62344e-05 0)
(23.2052 1.39376e-05 0)
(23.2028 1.17307e-05 0)
(23.2008 9.60599e-06 0)
(23.1992 7.59235e-06 0)
(23.1979 5.63349e-06 0)
(23.1969 3.76274e-06 0)
(23.1963 1.95988e-06 0)
(23.1959 2.83876e-07 0)
(23.1958 -1.37619e-06 0)
(23.1961 -2.95595e-06 0)
(23.1965 -4.48108e-06 0)
(23.1973 -5.89444e-06 0)
(23.1983 -7.28874e-06 0)
(23.1995 -8.61049e-06 0)
(23.2009 -9.88636e-06 0)
(23.2026 -1.10937e-05 0)
(23.2044 -1.22568e-05 0)
(23.2065 -1.33662e-05 0)
(23.2088 -1.44347e-05 0)
(23.2112 -1.54925e-05 0)
(23.2139 -1.64676e-05 0)
(23.2167 -1.74073e-05 0)
(23.2196 -1.83027e-05 0)
(23.2228 -1.93419e-05 0)
(23.2261 -2.01566e-05 0)
(23.2296 -2.0959e-05 0)
(23.2332 -2.17017e-05 0)
(23.2369 -2.26443e-05 0)
(23.2408 -2.33197e-05 0)
(23.2449 -2.40132e-05 0)
(23.2491 -2.4633e-05 0)
(23.2534 -2.57356e-05 0)
(23.2578 -2.62949e-05 0)
(23.2624 -2.6892e-05 0)
(23.2671 -2.73789e-05 0)
(23.2719 -2.8348e-05 0)
(23.2768 -2.87802e-05 0)
(23.2819 -2.92927e-05 0)
(23.287 -2.96762e-05 0)
(23.2923 -3.09551e-05 0)
(23.2977 -3.12856e-05 0)
(23.3031 -3.17082e-05 0)
(23.3087 -3.19429e-05 0)
(23.3144 -3.2988e-05 0)
(23.3201 -3.31651e-05 0)
(23.326 -3.34898e-05 0)
(23.3319 -3.36049e-05 0)
(23.3379 -3.5025e-05 0)
(23.344 -3.50838e-05 0)
(23.3501 -3.52912e-05 0)
(23.3564 -3.52181e-05 0)
(23.3626 -3.62129e-05 0)
(23.369 -3.60826e-05 0)
(23.3753 -3.6171e-05 0)
(23.3818 -3.59809e-05 0)
(23.3882 -3.71784e-05 0)
(23.3947 -3.69524e-05 0)
(23.4012 -3.69443e-05 0)
(23.4077 -3.66035e-05 0)
(23.4142 -3.70377e-05 0)
(23.4208 -3.6192e-05 0)
(23.4271 -3.6187e-05 0)
(23.4336 -1.83336e-05 0)
(32.9266 0.0603716 0)
(30.4695 0.0174492 0)
(28.9196 0.00880606 0)
(27.99 0.00533474 0)
(27.3757 0.00370683 0)
(26.9322 0.00280125 0)
(26.5909 0.00223225 0)
(26.3162 0.00184146 0)
(26.0885 0.00155606 0)
(25.8954 0.00133881 0)
(25.7288 0.00116814 0)
(25.5832 0.00103069 0)
(25.4546 0.000917659 0)
(25.3399 0.000823169 0)
(25.2369 0.00074302 0)
(25.1439 0.000674302 0)
(25.0594 0.000614737 0)
(24.9824 0.000562661 0)
(24.9118 0.000516682 0)
(24.847 0.000475963 0)
(24.7873 0.000439599 0)
(24.7321 0.000406963 0)
(24.6809 0.000377445 0)
(24.6335 0.000350761 0)
(24.5894 0.000326466 0)
(24.5484 0.000304284 0)
(24.5101 0.000283822 0)
(24.4744 0.000265129 0)
(24.4411 0.000247875 0)
(24.4099 0.000231934 0)
(24.3807 0.000217056 0)
(24.3534 0.000203325 0)
(24.3278 0.000190519 0)
(24.3038 0.000178583 0)
(24.2813 0.000167268 0)
(24.2602 0.000156815 0)
(24.2404 0.000146988 0)
(24.2219 0.00013777 0)
(24.2046 0.00012898 0)
(24.1883 0.000120802 0)
(24.1731 0.000113058 0)
(24.1588 0.000105756 0)
(24.1455 9.8692e-05 0)
(24.133 9.21424e-05 0)
(24.1214 8.59069e-05 0)
(24.1106 8.00007e-05 0)
(24.1005 7.42848e-05 0)
(24.0911 6.89344e-05 0)
(24.0824 6.38124e-05 0)
(24.0744 5.89377e-05 0)
(24.0669 5.41759e-05 0)
(24.0601 4.97194e-05 0)
(24.0538 4.54372e-05 0)
(24.048 4.13446e-05 0)
(24.0428 3.73746e-05 0)
(24.0381 3.36078e-05 0)
(24.0338 2.99834e-05 0)
(24.03 2.6507e-05 0)
(24.0266 2.31563e-05 0)
(24.0237 1.99473e-05 0)
(24.0211 1.68645e-05 0)
(24.019 1.38985e-05 0)
(24.0172 1.10805e-05 0)
(24.0157 8.34686e-06 0)
(24.0146 5.73339e-06 0)
(24.0138 3.21612e-06 0)
(24.0134 8.60142e-07 0)
(24.0132 -1.45939e-06 0)
(24.0133 -3.67254e-06 0)
(24.0138 -5.80714e-06 0)
(24.0144 -7.80022e-06 0)
(24.0154 -9.75534e-06 0)
(24.0165 -1.16151e-05 0)
(24.018 -1.34101e-05 0)
(24.0196 -1.51164e-05 0)
(24.0215 -1.67587e-05 0)
(24.0236 -1.83305e-05 0)
(24.0258 -1.98454e-05 0)
(24.0283 -2.1339e-05 0)
(24.031 -2.27283e-05 0)
(24.0339 -2.40705e-05 0)
(24.0369 -2.53539e-05 0)
(24.0401 -2.67912e-05 0)
(24.0435 -2.79672e-05 0)
(24.0471 -2.91246e-05 0)
(24.0508 -3.02065e-05 0)
(24.0546 -3.15072e-05 0)
(24.0587 -3.25e-05 0)
(24.0628 -3.35106e-05 0)
(24.0671 -3.44303e-05 0)
(24.0716 -3.58852e-05 0)
(24.0762 -3.67253e-05 0)
(24.0809 -3.76065e-05 0)
(24.0857 -3.83547e-05 0)
(24.0907 -3.96391e-05 0)
(24.0958 -4.03152e-05 0)
(24.101 -4.10814e-05 0)
(24.1064 -4.16924e-05 0)
(24.1118 -4.32982e-05 0)
(24.1174 -4.38389e-05 0)
(24.123 -4.44828e-05 0)
(24.1288 -4.49032e-05 0)
(24.1346 -4.62246e-05 0)
(24.1406 -4.65679e-05 0)
(24.1466 -4.70766e-05 0)
(24.1527 -4.73352e-05 0)
(24.159 -4.90406e-05 0)
(24.1652 -4.92216e-05 0)
(24.1716 -4.95676e-05 0)
(24.178 -4.9581e-05 0)
(24.1845 -5.07782e-05 0)
(24.191 -5.07099e-05 0)
(24.1975 -5.08837e-05 0)
(24.2042 -5.0726e-05 0)
(24.2108 -5.21009e-05 0)
(24.2175 -5.18835e-05 0)
(24.2241 -5.19046e-05 0)
(24.2308 -5.15292e-05 0)
(24.2375 -5.20093e-05 0)
(24.2442 -5.08876e-05 0)
(24.2507 -5.0899e-05 0)
(24.2574 -2.58631e-05 0)
(33.6709 0.0694784 0)
(31.5724 0.022704 0)
(30.0008 0.0122433 0)
(28.9993 0.00751389 0)
(28.3282 0.00520145 0)
(27.8445 0.00390704 0)
(27.4742 0.00309739 0)
(27.1779 0.00254502 0)
(26.9335 0.00214412 0)
(26.727 0.00184048 0)
(26.5495 0.00160291 0)
(26.3948 0.00141221 0)
(26.2583 0.00125583 0)
(26.137 0.0011254 0)
(26.0282 0.00101498 0)
(25.93 0.000920459 0)
(25.841 0.000838643 0)
(25.7598 0.0007672 0)
(25.6856 0.000704211 0)
(25.6174 0.00064846 0)
(25.5547 0.000598715 0)
(25.4967 0.000554102 0)
(25.443 0.000513796 0)
(25.3933 0.000477365 0)
(25.347 0.000444214 0)
(25.304 0.000413961 0)
(25.2639 0.000386099 0)
(25.2265 0.000360625 0)
(25.1916 0.000337123 0)
(25.1589 0.000315415 0)
(25.1283 0.000295185 0)
(25.0997 0.000276497 0)
(25.0729 0.000259074 0)
(25.0477 0.000242837 0)
(25.0242 0.000227488 0)
(25.0021 0.000213275 0)
(24.9814 0.000199918 0)
(24.962 0.000187388 0)
(24.9438 0.000175469 0)
(24.9268 0.000164355 0)
(24.9108 0.000153838 0)
(24.8958 0.000143917 0)
(24.8819 0.00013436 0)
(24.8688 0.000125465 0)
(24.8566 0.000117 0)
(24.8452 0.000108981 0)
(24.8346 0.000101245 0)
(24.8247 9.39819e-05 0)
(24.8156 8.70342e-05 0)
(24.8071 8.04209e-05 0)
(24.7992 7.39884e-05 0)
(24.792 6.79463e-05 0)
(24.7854 6.21449e-05 0)
(24.7793 5.66006e-05 0)
(24.7737 5.12354e-05 0)
(24.7687 4.61366e-05 0)
(24.7642 4.12337e-05 0)
(24.7601 3.65319e-05 0)
(24.7565 3.20043e-05 0)
(24.7533 2.76676e-05 0)
(24.7505 2.35014e-05 0)
(24.7482 1.94948e-05 0)
(24.7462 1.56806e-05 0)
(24.7446 1.1988e-05 0)
(24.7433 8.45408e-06 0)
(24.7424 5.05115e-06 0)
(24.7418 1.85041e-06 0)
(24.7415 -1.28746e-06 0)
(24.7415 -4.28845e-06 0)
(24.7419 -7.18191e-06 0)
(24.7424 -9.89854e-06 0)
(24.7433 -1.25531e-05 0)
(24.7444 -1.50849e-05 0)
(24.7458 -1.75287e-05 0)
(24.7474 -1.98587e-05 0)
(24.7493 -2.21009e-05 0)
(24.7514 -2.42523e-05 0)
(24.7536 -2.6327e-05 0)
(24.7561 -2.83656e-05 0)
(24.7588 -3.02752e-05 0)
(24.7617 -3.21231e-05 0)
(24.7648 -3.3894e-05 0)
(24.7681 -3.58242e-05 0)
(24.7715 -3.7455e-05 0)
(24.7751 -3.90587e-05 0)
(24.7789 -4.05673e-05 0)
(24.7829 -4.23099e-05 0)
(24.787 -4.37027e-05 0)
(24.7912 -4.51112e-05 0)
(24.7956 -4.6408e-05 0)
(24.8002 -4.82866e-05 0)
(24.8049 -4.94806e-05 0)
(24.8097 -5.07175e-05 0)
(24.8147 -5.17945e-05 0)
(24.8198 -5.34571e-05 0)
(24.825 -5.44409e-05 0)
(24.8304 -5.55228e-05 0)
(24.8358 -5.64195e-05 0)
(24.8414 -5.84022e-05 0)
(24.8471 -5.92082e-05 0)
(24.8529 -6.01264e-05 0)
(24.8588 -6.07805e-05 0)
(24.8648 -6.24199e-05 0)
(24.8709 -6.29735e-05 0)
(24.8771 -6.37083e-05 0)
(24.8834 -6.41471e-05 0)
(24.8897 -6.61639e-05 0)
(24.8962 -6.65002e-05 0)
(24.9027 -6.70146e-05 0)
(24.9092 -6.7138e-05 0)
(24.9158 -6.85529e-05 0)
(24.9225 -6.85647e-05 0)
(24.9292 -6.88389e-05 0)
(24.9359 -6.87216e-05 0)
(24.9427 -7.02706e-05 0)
(24.9495 -7.00647e-05 0)
(24.9563 -7.0113e-05 0)
(24.9631 -6.96934e-05 0)
(24.9699 -7.02033e-05 0)
(24.9767 -6.87401e-05 0)
(24.9833 -6.87626e-05 0)
(24.9901 -3.50244e-05 0)
(34.1947 0.0755308 0)
(32.5411 0.0282332 0)
(31.0182 0.016421 0)
(29.9639 0.010304 0)
(29.2379 0.00713876 0)
(28.712 0.00533864 0)
(28.3102 0.00421208 0)
(27.9902 0.00344699 0)
(27.7273 0.00289468 0)
(27.5061 0.00247839 0)
(27.3165 0.00215405 0)
(27.1518 0.0018946 0)
(27.0068 0.00168248 0)
(26.8782 0.001506 0)
(26.763 0.00135694 0)
(26.6593 0.00122956 0)
(26.5653 0.00111948 0)
(26.4798 0.00102349 0)
(26.4016 0.000938988 0)
(26.3299 0.000864257 0)
(26.2639 0.000797643 0)
(26.203 0.000737952 0)
(26.1466 0.000684083 0)
(26.0944 0.000635412 0)
(26.0459 0.000591153 0)
(26.0007 0.000550784 0)
(25.9587 0.000513661 0)
(25.9194 0.000479703 0)
(25.8828 0.00044839 0)
(25.8486 0.000419478 0)
(25.8165 0.000392569 0)
(25.7865 0.000367696 0)
(25.7584 0.000344519 0)
(25.7321 0.000322922 0)
(25.7074 0.000302551 0)
(25.6843 0.000283656 0)
(25.6626 0.000265907 0)
(25.6423 0.000249257 0)
(25.6232 0.000233452 0)
(25.6053 0.000218689 0)
(25.5886 0.000204725 0)
(25.5729 0.000191553 0)
(25.5582 0.000178905 0)
(25.5445 0.000167098 0)
(25.5317 0.000155868 0)
(25.5197 0.000145228 0)
(25.5085 0.000134989 0)
(25.4981 0.000125356 0)
(25.4885 0.000116146 0)
(25.4795 0.000107379 0)
(25.4713 9.88808e-05 0)
(25.4636 9.08762e-05 0)
(25.4566 8.31953e-05 0)
(25.4501 7.58553e-05 0)
(25.4442 6.87657e-05 0)
(25.4389 6.20203e-05 0)
(25.434 5.5537e-05 0)
(25.4296 4.93207e-05 0)
(25.4258 4.33385e-05 0)
(25.4223 3.76078e-05 0)
(25.4193 3.21022e-05 0)
(25.4167 2.68086e-05 0)
(25.4145 2.17614e-05 0)
(25.4127 1.68819e-05 0)
(25.4113 1.22079e-05 0)
(25.4102 7.70761e-06 0)
(25.4094 3.458e-06 0)
(25.409 -6.94304e-07 0)
(25.4089 -4.67384e-06 0)
(25.4091 -8.51106e-06 0)
(25.4096 -1.21294e-05 0)
(25.4104 -1.56548e-05 0)
(25.4114 -1.90245e-05 0)
(25.4128 -2.2277e-05 0)
(25.4143 -2.53849e-05 0)
(25.4161 -2.83761e-05 0)
(25.4182 -3.12516e-05 0)
(25.4204 -3.40253e-05 0)
(25.4229 -3.67433e-05 0)
(25.4256 -3.93031e-05 0)
(25.4285 -4.17828e-05 0)
(25.4316 -4.41628e-05 0)
(25.4349 -4.67023e-05 0)
(25.4384 -4.89017e-05 0)
(25.442 -5.10623e-05 0)
(25.4459 -5.31039e-05 0)
(25.4499 -5.53902e-05 0)
(25.454 -5.72825e-05 0)
(25.4584 -5.9186e-05 0)
(25.4628 -6.09523e-05 0)
(25.4675 -6.33414e-05 0)
(25.4723 -6.49767e-05 0)
(25.4772 -6.66542e-05 0)
(25.4822 -6.81401e-05 0)
(25.4874 -7.02565e-05 0)
(25.4927 -7.16228e-05 0)
(25.4982 -7.30937e-05 0)
(25.5038 -7.43439e-05 0)
(25.5095 -7.67643e-05 0)
(25.5153 -7.78994e-05 0)
(25.5212 -7.91535e-05 0)
(25.5272 -8.00965e-05 0)
(25.5333 -8.21036e-05 0)
(25.5395 -8.2918e-05 0)
(25.5458 -8.39271e-05 0)
(25.5522 -8.45874e-05 0)
(25.5587 -8.69474e-05 0)
(25.5652 -8.74757e-05 0)
(25.5718 -8.8192e-05 0)
(25.5785 -8.84505e-05 0)
(25.5852 -9.01011e-05 0)
(25.5919 -9.02118e-05 0)
(25.5988 -9.06016e-05 0)
(25.6056 -9.05318e-05 0)
(25.6125 -9.22514e-05 0)
(25.6193 -9.20574e-05 0)
(25.6262 -9.21286e-05 0)
(25.6331 -9.16503e-05 0)
(25.64 -9.21704e-05 0)
(25.6469 -9.02872e-05 0)
(25.6535 -9.03101e-05 0)
(25.6604 -4.60891e-05 0)
(34.5334 0.0801402 0)
(33.3602 0.0337828 0)
(31.9723 0.0212954 0)
(30.8975 0.0138032 0)
(30.1241 0.00962829 0)
(29.5557 0.00718745 0)
(29.1205 0.00564899 0)
(28.7745 0.00460535 0)
(28.4912 0.00385484 0)
(28.2535 0.00329155 0)
(28.0506 0.00285441 0)
(27.8746 0.00250596 0)
(27.7203 0.00222197 0)
(27.5835 0.00198631 0)
(27.4613 0.00178775 0)
(27.3515 0.00161841 0)
(27.2521 0.00147233 0)
(27.1617 0.00134514 0)
(27.0792 0.00123336 0)
(27.0035 0.00113461 0)
(26.934 0.00104668 0)
(26.8699 0.000967963 0)
(26.8106 0.000897011 0)
(26.7556 0.000832939 0)
(26.7047 0.000774721 0)
(26.6572 0.000721655 0)
(26.6131 0.000672919 0)
(26.5719 0.000628333 0)
(26.5334 0.000587245 0)
(26.4975 0.000549322 0)
(26.4638 0.000514068 0)
(26.4324 0.000481471 0)
(26.4029 0.000451111 0)
(26.3753 0.00042283 0)
(26.3494 0.000396204 0)
(26.3251 0.000371476 0)
(26.3023 0.000348258 0)
(26.281 0.00032648 0)
(26.2609 0.000305842 0)
(26.2422 0.000286541 0)
(26.2246 0.000268295 0)
(26.2081 0.000251084 0)
(26.1927 0.0002346 0)
(26.1782 0.000219178 0)
(26.1647 0.000204517 0)
(26.1521 0.000190625 0)
(26.1403 0.000177285 0)
(26.1294 0.000164713 0)
(26.1192 0.000152701 0)
(26.1097 0.000141267 0)
(26.1009 0.000130213 0)
(26.0928 0.000119779 0)
(26.0854 0.000109773 0)
(26.0785 0.000100211 0)
(26.0722 9.099e-05 0)
(26.0665 8.22089e-05 0)
(26.0613 7.37719e-05 0)
(26.0566 6.56832e-05 0)
(26.0524 5.7903e-05 0)
(26.0487 5.04493e-05 0)
(26.0454 4.32874e-05 0)
(26.0425 3.64023e-05 0)
(26.0401 2.98287e-05 0)
(26.0381 2.34807e-05 0)
(26.0364 1.73947e-05 0)
(26.0351 1.15351e-05 0)
(26.0342 5.98368e-06 0)
(26.0336 5.74761e-07 0)
(26.0334 -4.61861e-06 0)
(26.0334 -9.62849e-06 0)
(26.0338 -1.43692e-05 0)
(26.0344 -1.89777e-05 0)
(26.0354 -2.33905e-05 0)
(26.0366 -2.76496e-05 0)
(26.0381 -3.17262e-05 0)
(26.0398 -3.56501e-05 0)
(26.0418 -3.94279e-05 0)
(26.044 -4.30723e-05 0)
(26.0465 -4.66352e-05 0)
(26.0491 -5.00052e-05 0)
(26.052 -5.32717e-05 0)
(26.0551 -5.64097e-05 0)
(26.0584 -5.97017e-05 0)
(26.0619 -6.26088e-05 0)
(26.0655 -6.54615e-05 0)
(26.0694 -6.81655e-05 0)
(26.0734 -7.11199e-05 0)
(26.0776 -7.36326e-05 0)
(26.082 -7.61486e-05 0)
(26.0865 -7.84967e-05 0)
(26.0912 -8.15024e-05 0)
(26.096 -8.36842e-05 0)
(26.101 -8.59044e-05 0)
(26.1061 -8.78954e-05 0)
(26.1114 -9.05569e-05 0)
(26.1168 -9.23956e-05 0)
(26.1223 -9.43425e-05 0)
(26.1279 -9.60274e-05 0)
(26.1337 -9.89594e-05 0)
(26.1396 -0.000100499 0)
(26.1456 -0.000102162 0)
(26.1517 -0.00010346 0)
(26.1579 -0.000105894 0)
(26.1641 -0.000107028 0)
(26.1705 -0.000108368 0)
(26.177 -0.000109298 0)
(26.1835 -0.000112041 0)
(26.1902 -0.000112804 0)
(26.1968 -0.00011376 0)
(26.2036 -0.000114183 0)
(26.2104 -0.000116091 0)
(26.2172 -0.000116322 0)
(26.2241 -0.000116844 0)
(26.231 -0.000116829 0)
(26.238 -0.000118717 0)
(26.2449 -0.000118534 0)
(26.2519 -0.000118622 0)
(26.2588 -0.000118067 0)
(26.2658 -0.000118574 0)
(26.2727 -0.000116179 0)
(26.2794 -0.000116182 0)
(26.2863 -5.9392e-05 0)
(34.7383 0.0835127 0)
(34.0044 0.0389142 0)
(32.8456 0.0266757 0)
(31.8006 0.0180607 0)
(30.9964 0.0127823 0)
(30.3892 0.00956163 0)
(29.9198 0.00749909 0)
(29.546 0.00609462 0)
(29.2402 0.00508588 0)
(28.9844 0.00433095 0)
(28.7664 0.00374706 0)
(28.578 0.00328314 0)
(28.413 0.00290618 0)
(28.2672 0.00259424 0)
(28.1371 0.00233206 0)
(28.0204 0.00210894 0)
(27.9149 0.00191684 0)
(27.8191 0.00174988 0)
(27.7318 0.00160338 0)
(27.6518 0.00147412 0)
(27.5783 0.00135917 0)
(27.5106 0.00125638 0)
(27.4481 0.00116385 0)
(27.3901 0.00108034 0)
(27.3364 0.00100454 0)
(27.2864 0.000935489 0)
(27.2399 0.000872159 0)
(27.1966 0.000814225 0)
(27.1561 0.000760872 0)
(27.1183 0.000711653 0)
(27.0829 0.000665951 0)
(27.0498 0.000623688 0)
(27.0188 0.000584347 0)
(26.9897 0.000547712 0)
(26.9625 0.000513278 0)
(26.937 0.00048127 0)
(26.913 0.00045123 0)
(26.8905 0.000423061 0)
(26.8695 0.000396403 0)
(26.8497 0.000371452 0)
(26.8311 0.000347875 0)
(26.8138 0.000325639 0)
(26.7975 0.000304389 0)
(26.7823 0.000284474 0)
(26.768 0.000265549 0)
(26.7547 0.000247618 0)
(26.7423 0.000230431 0)
(26.7307 0.000214213 0)
(26.7199 0.000198725 0)
(26.7098 0.000183984 0)
(26.7005 0.000169763 0)
(26.6919 0.00015632 0)
(26.6839 0.000143433 0)
(26.6766 0.000131121 0)
(26.6699 0.000119262 0)
(26.6637 0.000107962 0)
(26.6581 9.71071e-05 0)
(26.6531 8.67022e-05 0)
(26.6485 7.66973e-05 0)
(26.6444 6.71121e-05 0)
(26.6408 5.79006e-05 0)
(26.6377 4.90462e-05 0)
(26.635 4.05822e-05 0)
(26.6327 3.2416e-05 0)
(26.6308 2.45807e-05 0)
(26.6292 1.70368e-05 0)
(26.6281 9.86969e-06 0)
(26.6273 2.90397e-06 0)
(26.6269 -3.79434e-06 0)
(26.6267 -1.02603e-05 0)
(26.6269 -1.63975e-05 0)
(26.6274 -2.23525e-05 0)
(26.6283 -2.8063e-05 0)
(26.6293 -3.35739e-05 0)
(26.6307 -3.88561e-05 0)
(26.6323 -4.39405e-05 0)
(26.6342 -4.88413e-05 0)
(26.6364 -5.3569e-05 0)
(26.6387 -5.8182e-05 0)
(26.6414 -6.25596e-05 0)
(26.6442 -6.68045e-05 0)
(26.6472 -7.08847e-05 0)
(26.6505 -7.51058e-05 0)
(26.6539 -7.8892e-05 0)
(26.6576 -8.26033e-05 0)
(26.6614 -8.61289e-05 0)
(26.6655 -8.99045e-05 0)
(26.6697 -9.31862e-05 0)
(26.674 -9.6459e-05 0)
(26.6786 -9.95261e-05 0)
(26.6833 -0.000103279 0)
(26.6881 -0.000106135 0)
(26.6931 -0.000109023 0)
(26.6983 -0.000111637 0)
(26.7036 -0.000114955 0)
(26.709 -0.000117375 0)
(26.7146 -0.000119904 0)
(26.7203 -0.000122123 0)
(26.7261 -0.000125656 0)
(26.732 -0.000127693 0)
(26.7381 -0.000129852 0)
(26.7442 -0.000131584 0)
(26.7505 -0.000134518 0)
(26.7568 -0.000136044 0)
(26.7632 -0.000137783 0)
(26.7698 -0.000139043 0)
(26.7764 -0.000142216 0)
(26.7831 -0.000143265 0)
(26.7898 -0.000144508 0)
(26.7966 -0.000145132 0)
(26.8035 -0.000147324 0)
(26.8104 -0.000147701 0)
(26.8173 -0.000148376 0)
(26.8243 -0.000148427 0)
(26.8312 -0.000150481 0)
(26.8382 -0.00015031 0)
(26.8453 -0.000150407 0)