/*--------------------------------*- C++ -*----------------------------------*\
  =========                 |
  \\      /  F ield         | OpenFOAM: The Open Source CFD Toolbox
   \\    /   O peration     | Website:  https://openfoam.org
    \\  /    A nd           | Version:  7
     \\/     M anipulation  |
\*---------------------------------------------------------------------------*/
FoamFile
{
    version     2.0;
    format      ascii;
    class       volScalarField;
    location    "4.2";
    object      T;
}
// * * * * * * * * * * * * * * * * * * * * * * * * * * * * * * * * * * * * * //

dimensions      [0 0 0 1 0 0 0];

internalField   nonuniform List<scalar> 
32100
(
2.77169e+123
1.43182e+122
-4.13808e+121
2.80934e+120
5.57165e+118
-6.26445e+118
3.0032e+114
6.68953e+116
-3.81675e+115
-1.42822e+114
6.3568e+113
-8.97855e+111
-6.80176e+109
-1.14281e+110
-3.62875e+109
1.75431e+122
-4.53158e+121
2.94029e+120
6.78447e+118
-6.46453e+118
-6.72609e+115
6.87582e+116
-3.86744e+115
-1.03915e+114
1.29088e+114
2.34249e+113
-6.11047e+111
-9.07303e+110
-1.10108e+110
-3.03932e+109
-5.02365e+121
3.14542e+120
8.47429e+118
-6.749e+118
-1.47453e+116
7.10541e+116
-4.09262e+115
-1.39137e+114
1.14357e+114
2.84829e+112
4.22945e+112
-5.17045e+111
-1.43925e+111
-7.23771e+109
-2.57093e+109
3.44417e+120
1.29501e+119
-7.12156e+118
-5.65794e+116
7.45944e+116
-4.20988e+115
-2.9146e+114
9.96507e+113
-2.10523e+112
-1.33692e+112
3.30042e+111
-4.5031e+111
-1.34347e+111
-3.35737e+109
-1.8913e+109
2.7854e+119
-5.84082e+118
-9.3244e+116
4.83277e+116
-3.87035e+115
-3.03677e+114
-2.95394e+113
-1.56589e+113
-8.952e+111
-1.19238e+111
-3.1804e+111
-3.03705e+111
-8.92496e+110
-5.52392e+108
-1.14468e+109
3.559e+118
1.63025e+118
4.53815e+116
-3.35846e+116
-1.09847e+114
5.62349e+112
-1.42022e+114
-1.50195e+113
9.71499e+111
-5.04236e+110
-1.76282e+111
-1.51378e+111
-4.42642e+110
9.45012e+108
-5.52858e+108
1.07744e+119
1.76326e+118
-2.96003e+116
-2.90448e+116
-3.07724e+113
-8.41438e+113
-1.34762e+114
-1.3958e+113
8.49781e+111
7.57745e+110
-6.13719e+110
-5.39931e+110
-1.56149e+110
1.2905e+109
-2.27818e+108
1.01883e+119
1.63216e+118
-1.26492e+116
-2.80288e+116
-3.91732e+114
-5.37753e+113
-1.25818e+114
-1.47868e+113
7.26779e+111
1.3535e+111
-1.00101e+110
-9.96053e+109
-3.03494e+109
9.22446e+108
-1.13612e+108
9.27649e+118
1.59339e+118
5.6204e+114
-2.72815e+116
-6.34927e+114
-2.53314e+113
-1.18076e+114
-1.54206e+113
5.65927e+111
1.50465e+111
3.61002e+109
1.9116e+109
3.28721e+108
3.90174e+108
-8.8727e+107
8.50397e+118
1.54615e+118
1.30981e+116
-2.62248e+116
-8.79703e+114
-2.80215e+112
-1.097e+114
-1.59075e+113
3.85278e+111
1.51518e+111
4.6724e+109
2.47559e+109
5.36452e+108
4.02626e+107
-7.37679e+107
7.7854e+118
1.49804e+118
2.53205e+116
-2.50428e+116
-1.12563e+115
1.5187e+113
-1.00974e+114
-1.62368e+113
2.02242e+111
1.48835e+111
4.67732e+109
1.84103e+109
2.97104e+108
-7.61518e+107
-4.97742e+107
7.12265e+118
1.45461e+118
3.61512e+116
-2.36667e+116
-1.35877e+115
2.81144e+113
-9.21444e+113
-1.64023e+113
2.34666e+110
1.4319e+111
4.89161e+109
1.39849e+109
2.2558e+108
-5.99377e+107
-2.5042e+107
6.52191e+118
1.39059e+118
4.21764e+116
-2.20899e+116
-1.5681e+115
3.54884e+113
-8.36227e+113
-1.64108e+113
-1.44838e+111
1.34893e+111
5.13425e+109
1.08676e+109
2.08549e+108
-2.24331e+107
-8.53985e+106
5.77067e+118
1.15699e+118
4.07182e+116
-1.80015e+116
-1.61216e+115
3.17284e+113
-7.55615e+113
-1.6194e+113
-2.95881e+111
1.24957e+111
5.58762e+109
8.72291e+108
1.62187e+108
-1.03399e+107
-3.76313e+106
4.00087e+118
8.72196e+117
3.97025e+116
-1.38384e+116
-1.4811e+115
1.95297e+113
-6.2426e+113
-1.4984e+113
-4.31197e+111
1.17091e+111
6.58928e+109
8.80062e+108
1.78331e+108
-7.10851e+106
-2.83212e+106
2.87377e+118
7.25812e+117
4.12422e+116
-1.13969e+116
-1.38212e+115
1.78441e+113
-4.98923e+113
-1.3897e+113
-5.79784e+111
1.11464e+111
7.87943e+109
9.29067e+108
2.32682e+108
-4.53216e+106
-3.00375e+106
2.46603e+118
6.64076e+117
4.33534e+116
-9.97916e+115
-1.38075e+115
1.96263e+113
-4.20851e+113
-1.3526e+113
-7.39614e+111
1.04494e+111
9.10313e+109
8.87726e+108
2.61842e+108
-8.78731e+105
-3.49499e+106
2.17299e+118
6.27616e+117
4.64891e+116
-9.01071e+115
-1.43589e+115
1.49229e+113
-3.63497e+113
-1.33453e+113
-9.06835e+111
9.5232e+110
1.03336e+110
8.21172e+108
2.6769e+108
3.47273e+106
-3.8581e+106
1.92949e+118
5.93364e+117
4.92327e+116
-8.0579e+115
-1.49831e+115
5.34076e+112
-3.12077e+113
-1.31952e+113
-1.08064e+112
8.33841e+110
1.15711e+110
7.60632e+108
2.59933e+108
8.07499e+106
-3.94937e+106
1.71892e+118
5.59288e+117
5.17101e+116
-7.02358e+115
-1.55706e+115
-7.94813e+112
-2.62751e+113
-1.29691e+113
-1.2572e+112
6.87041e+110
1.28001e+110
7.38468e+108
2.53174e+108
1.30364e+107
-3.84266e+106
1.52389e+118
5.22965e+117
5.37153e+116
-5.92231e+115
-1.60608e+115
-2.48057e+113
-2.15691e+113
-1.26305e+113
-1.4351e+112
5.1112e+110
1.39531e+110
7.4059e+108
2.40338e+108
1.78768e+107
-3.51314e+106
1.33711e+118
4.83372e+117
5.5309e+116
-4.78504e+115
-1.64122e+115
-4.5299e+113
-1.72162e+113
-1.21936e+113
-1.61629e+112
3.03567e+110
1.50123e+110
7.63884e+108
2.17573e+108
2.16039e+107
-2.95962e+106
1.16119e+118
4.42576e+117
5.65281e+116
-3.62e+115
-1.6602e+115
-6.95102e+113
-1.33757e+113
-1.1665e+113
-1.80307e+112
5.81201e+109
1.60151e+110
8.29943e+108
1.96944e+108
2.4556e+107
-2.32163e+106
9.98752e+117
4.0206e+117
5.7315e+116
-2.42865e+115
-1.65855e+115
-9.70553e+113
-1.02139e+113
-1.10498e+113
-1.99561e+112
-2.3529e+110
1.69672e+110
9.48862e+108
1.81171e+108
2.72385e+107
-1.70152e+106
8.52534e+117
3.63778e+117
5.77367e+116
-1.22219e+115
-1.63425e+115
-1.27367e+114
-7.8938e+112
-1.0336e+113
-2.19212e+112
-5.86794e+110
1.7761e+110
1.12795e+109
1.6895e+108
2.9915e+107
-1.12737e+106
7.2247e+117
3.27776e+117
5.76655e+116
-9.70318e+112
-1.58511e+115
-1.59927e+114
-6.60245e+112
-9.50711e+112
-2.38938e+112
-1.00713e+111
1.82328e+110
1.38877e+109
1.60456e+108
3.2971e+107
-5.61528e+105
6.10026e+117
2.9398e+117
5.71532e+116
1.20404e+115
-1.50886e+115
-1.94153e+114
-6.552e+112
-8.56884e+112
-2.58142e+112
-1.50911e+111
1.81045e+110
1.73529e+109
1.53795e+108
3.60561e+107
7.60559e+104
5.1486e+117
2.63831e+117
5.65598e+116
2.42087e+115
-1.40255e+115
-2.2918e+114
-7.9678e+112
-7.53362e+112
-2.75436e+112
-2.12008e+111
1.70487e+110
2.14194e+109
1.46657e+108
3.80239e+107
7.82722e+105
4.3313e+117
2.37614e+117
5.60673e+116
3.64252e+115
-1.26194e+115
-2.64102e+114
-1.11081e+113
-6.43617e+112
-2.8979e+112
-2.85059e+111
1.46848e+110
2.62723e+109
1.44315e+108
3.92326e+107
1.52287e+106
3.61001e+117
2.13243e+117
5.53484e+116
4.84678e+115
-1.08177e+115
-2.9754e+114
-1.62765e+113
-5.33006e+112
-3.01029e+112
-3.70449e+111
1.05382e+110
3.20423e+109
1.50949e+108
3.99497e+107
2.30037e+106
2.96527e+117
1.87857e+117
5.36181e+116
5.98723e+115
-8.60001e+114
-3.27502e+114
-2.38058e+113
-4.28696e+112
-3.08184e+112
-4.71367e+111
3.91819e+109
3.81192e+109
1.65888e+108
3.91418e+107
3.0273e+106
2.40613e+117
1.61582e+117
5.04936e+116
7.03485e+115
-5.96164e+114
-3.51649e+114
-3.40199e+113
-3.41909e+112
-3.09465e+112
-5.88582e+111
-6.26409e+109
4.39394e+109
1.95223e+108
3.75865e+107
3.70475e+106
1.95312e+117
1.3835e+117
4.72844e+116
7.96999e+115
-2.88032e+114
-3.66971e+114
-4.71112e+113
-2.88954e+112
-3.02103e+112
-7.22885e+111
-2.17147e+110
5.07952e+109
2.5859e+108
3.74294e+107
4.59643e+106
1.58744e+117
1.20771e+117
4.52221e+116
8.82997e+115
6.52207e+113
-3.70374e+114
-6.30833e+113
-2.93784e+112
-2.8364e+112
-8.69943e+111
-4.50081e+110
5.92078e+109
3.8591e+108
3.92886e+107
6.03282e+106
1.28038e+117
1.06406e+117
4.36188e+116
9.6469e+115
4.65215e+114
-3.58034e+114
-8.14536e+113
-3.86204e+112
-2.53192e+112
-1.02194e+112
-7.99152e+110
6.46628e+109
6.05472e+108
4.27452e+107
8.21628e+106
1.02309e+117
9.20467e+116
4.13318e+116
1.0424e+116
9.15507e+114
-3.241e+114
-1.00314e+114
-5.95185e+112
-2.12025e+112
-1.16105e+112
-1.30367e+111
6.08465e+109
9.70959e+108
4.92175e+107
1.12471e+107
8.09479e+116
7.8468e+116
3.86949e+116
1.11762e+116
1.42201e+115
-2.62093e+114
-1.17845e+114
-9.47357e+112
-1.65895e+112
-1.26093e+112
-1.98235e+111
3.41235e+109
1.55205e+109
6.41877e+107
1.49181e+107
6.3108e+116
6.6718e+116
3.62906e+116
1.18851e+116
1.98211e+115
-1.67183e+114
-1.32649e+114
-1.46457e+113
-1.25648e+112
-1.29632e+112
-2.80835e+111
-3.41737e+109
2.31511e+109
1.00061e+108
1.83253e+107
4.82889e+116
5.65199e+116
3.40139e+116
1.24757e+116
2.56452e+115
-3.66753e+113
-1.42284e+114
-2.15301e+113
-1.06471e+112
-1.2407e+112
-3.69004e+111
-1.60541e+110
3.14198e+109
1.79918e+108
2.03434e+107
3.60759e+116
4.75386e+116
3.17626e+116
1.29067e+116
3.09715e+115
1.26388e+114
-1.43421e+114
-2.98784e+113
-1.26161e+112
-1.07964e+112
-4.49106e+111
-3.57827e+110
3.81819e+109
3.45268e+108
2.02872e+107
2.61628e+116
3.92301e+116
2.92103e+116
1.30393e+116
3.54573e+115
3.13517e+114
-1.32869e+114
-3.86302e+113
-2.00189e+112
-8.3408e+111
-5.0728e+111
-6.30046e+110
3.68402e+109
6.53826e+108
1.92453e+107
1.84021e+116
3.13601e+116
2.61627e+116
1.2753e+116
3.93128e+115
5.14369e+114
-1.09426e+114
-4.68702e+113
-3.39689e+112
-5.55477e+111
-5.29096e+111
-9.39332e+110
1.90727e+109
1.02333e+109
2.28527e+107
1.27145e+116
2.43141e+116
2.26817e+116
1.21672e+116
4.2515e+115
7.1943e+114
-7.34778e+113
-5.26982e+113
-5.56411e+112
-3.04347e+111
-4.95497e+111
-1.17302e+111
-1.2549e+109
1.36708e+109
3.88532e+107
8.73203e+115
1.85762e+116
1.92263e+116
1.14926e+116
4.50113e+115
9.21103e+114
-2.73623e+113
-5.56804e+113
-7.93956e+112
-1.50587e+111
-4.28784e+111
-1.3316e+111
-5.22718e+109
1.65091e+109
7.16716e+107
6.00352e+115
1.42042e+116
1.62712e+116
1.08168e+116
4.69151e+115
1.1163e+115
2.63151e+113
-5.5464e+113
-1.01244e+113
-1.29431e+111
-3.56167e+111
-1.39872e+111
-8.33207e+109
2.00624e+109
1.94273e+108
4.13478e+115
1.09376e+116
1.38312e+116
1.01376e+116
4.84028e+115
1.30648e+115
8.57981e+113
-5.27156e+113
-1.21811e+113
-1.9665e+111
-2.57979e+111
-1.27481e+111
-9.52928e+109
1.37441e+109
1.56936e+108
2.82638e+115
8.44963e+115
1.18351e+116
9.50574e+115
4.95632e+115
1.49475e+115
1.50594e+114
-4.88643e+113
-1.40069e+113
-3.24032e+111
-1.70319e+111
-1.1164e+111
-9.55254e+109
8.11237e+108
8.61994e+107
1.9071e+115
6.50365e+115
1.01345e+116
8.91352e+115
5.03258e+115
1.67483e+115
2.20859e+114
-4.35204e+113
-1.60463e+113
-5.09478e+111
-1.08083e+111
-1.03891e+111
-9.86835e+109
5.78053e+108
6.46882e+107
1.24943e+115
4.93539e+115
8.57671e+115
8.28462e+115
5.04216e+115
1.8323e+115
2.94093e+114
-3.57711e+113
-1.82207e+113
-7.75454e+111
-5.99857e+110
-1.00787e+111
-1.07018e+110
4.81024e+108
6.34832e+107
7.92936e+114
3.68229e+115
7.17108e+115
7.63559e+115
4.99491e+115
1.97113e+115
3.69929e+114
-2.50613e+113
-2.01918e+113
-1.12427e+112
-1.74166e+110
-9.90489e+110
-1.17222e+110
4.21517e+108
6.94923e+107
4.81782e+114
2.70533e+115
5.97115e+115
7.01398e+115
4.92347e+115
2.10845e+115
4.53727e+114
-1.12203e+113
-2.19802e+113
-1.55075e+112
2.1049e+110
-9.63378e+110
-1.24964e+110
3.32174e+108
6.65877e+107
2.75408e+114
1.94758e+115
4.92676e+115
6.35216e+115
4.83309e+115
2.24614e+115
5.48733e+114
6.42248e+112
-2.35775e+113
-2.0528e+112
5.45643e+110
-9.02309e+110
-1.25892e+110
1.77507e+108
3.5491e+107
1.47625e+114
1.36098e+115
3.9502e+115
5.64793e+115
4.71588e+115
2.38566e+115
6.5355e+114
2.89422e+113
-2.4801e+113
-2.62396e+112
8.03864e+110
-8.09347e+110
-1.19306e+110
-2.11141e+107
-2.91911e+107
7.09158e+113
9.22202e+114
3.07662e+115
4.96266e+115
4.60074e+115
2.5298e+115
7.69893e+114
5.73015e+113
-2.53891e+113
-3.23853e+112
9.59074e+110
-6.98237e+110
-1.06495e+110
-2.33899e+108
-1.43899e+108
2.52039e+113
6.04796e+114
2.35882e+115
4.3251e+115
4.46593e+115
2.66706e+115
8.98137e+114
9.23949e+113
-2.50789e+113
-3.85161e+112
9.81243e+110
-5.76902e+110
-8.85027e+109
-4.25898e+108
-3.17542e+108
2.38007e+111
3.74893e+114
1.75801e+115
3.70462e+115
4.25807e+115
2.78716e+115
1.03936e+115
1.35273e+114
-2.35903e+113
-4.39459e+112
8.29309e+110
-4.44836e+110
-6.69524e+109
-4.20925e+108
-3.89181e+108
-1.07971e+113
2.11974e+114
1.25382e+115
3.07596e+115
3.97777e+115
2.88334e+115
1.1962e+115
1.88199e+114
-2.06371e+113
-4.64084e+112
4.98383e+110
-2.8741e+110
-3.84732e+109
-2.83617e+108
-3.7173e+108
-1.29221e+113
1.04451e+114
8.44574e+114
2.46403e+115
3.62438e+115
2.93866e+115
1.36002e+115
2.519e+114
-1.60839e+113
-4.53574e+112
1.30433e+110
-1.23622e+110
-2.4633e+109
-3.52752e+108
-3.73272e+108
-1.04645e+113
4.01459e+113
5.24814e+114
1.88413e+115
3.19551e+115
2.93825e+115
1.52683e+115
3.23524e+114
-9.7946e+112
-4.38276e+112
-1.46885e+110
-3.22538e+107
-3.59094e+109
-5.26997e+108
-4.82375e+108
-6.58565e+112
7.47245e+112
2.88936e+114
1.35379e+115
2.71316e+115
2.87777e+115
1.69666e+115
3.95649e+114
-1.50253e+112
-5.59409e+112
1.59375e+110
-1.34646e+109
-4.54155e+109
-2.34565e+109
-1.53255e+109
-2.9579e+112
-4.54096e+112
1.27678e+114
8.89049e+114
2.20357e+115
2.75408e+115
1.86406e+115
4.58998e+114
1.02563e+113
-9.69967e+112
-5.07463e+110
-2.93979e+110
-6.46879e+109
-5.85522e+109
-3.50708e+109
-3.88139e+111
-4.24932e+112
3.24377e+113
4.99442e+114
1.68505e+115
2.56134e+115
2.02061e+115
5.17821e+114
2.80427e+113
-8.65547e+112
-4.42953e+111
-1.23871e+111
-7.43803e+110
-4.38434e+110
-1.72168e+110
5.73341e+111
8.76498e+111
-6.80876e+112
1.95434e+114
1.1686e+115
2.28937e+115
2.15247e+115
6.03069e+114
5.40446e+113
-6.44682e+111
-3.33993e+112
-1.53491e+112
-1.39539e+112
-1.06026e+112
-4.21771e+111
8.40086e+111
2.66822e+112
-6.42482e+112
-5.55333e+112
6.71545e+114
1.93565e+115
2.23576e+115
7.07168e+114
8.15155e+113
2.06464e+113
6.90141e+112
8.31464e+112
1.36922e+113
1.72949e+113
9.42066e+112
2.38473e+112
4.33966e+112
-3.44015e+112
-8.02099e+113
2.35157e+114
1.51977e+115
2.24377e+115
7.9243e+114
9.34252e+113
2.49085e+113
3.98164e+113
3.68533e+113
4.68022e+113
3.46243e+113
1.90235e+113
1.19048e+113
3.83725e+112
-1.18155e+113
-7.18261e+113
-3.65847e+113
1.08548e+115
2.1389e+115
8.48659e+114
1.06061e+114
-2.79947e+112
7.3523e+112
1.62103e+113
1.23985e+113
1.08054e+113
1.83687e+113
-2.10994e+114
-1.01346e+114
-4.83375e+113
-8.70159e+113
-2.74067e+113
7.08968e+114
1.90385e+115
8.7052e+114
1.3792e+114
6.47374e+111
-8.81553e+111
9.85163e+111
1.44561e+112
2.64556e+112
1.53956e+113
-6.31242e+114
-1.51247e+114
-1.80555e+114
-1.61676e+114
1.85719e+114
9.15004e+114
1.67725e+115
8.42059e+114
2.03695e+114
6.9136e+113
2.45635e+113
1.03199e+113
6.2948e+112
4.05459e+112
1.25214e+113
3.69118e+116
1.17424e+116
4.63499e+115
2.5131e+115
1.54663e+115
1.91556e+115
2.30023e+115
8.62038e+114
2.93253e+114
1.17406e+114
4.68698e+113
2.01317e+113
1.02829e+113
5.20104e+112
1.07525e+113
7.73816e+116
2.7931e+116
3.12494e+116
2.22508e+116
1.51134e+116
9.74461e+115
5.23247e+115
2.40437e+115
8.62734e+114
2.94868e+114
1.04255e+114
4.01374e+113
1.73881e+113
7.61068e+112
8.77642e+112
-4.70034e+118
-8.68307e+117
-1.81758e+117
-3.74478e+116
3.45938e+115
1.26585e+116
9.6886e+115
4.45302e+115
1.74564e+115
6.22615e+114
2.23616e+114
8.64491e+113
3.69087e+113
1.70283e+113
2.54226e+113
3.47514e+119
1.39981e+118
-1.31474e+118
-5.91803e+117
-2.25375e+117
-5.61573e+116
-1.49145e+115
3.54066e+115
1.85292e+115
7.13173e+114
2.45844e+114
7.86766e+113
2.39673e+113
1.00795e+113
1.82068e+113
3.85845e+120
6.1455e+119
1.01394e+119
1.03421e+118
-1.35483e+117
-9.50652e+116
-9.61236e+115
2.92633e+115
2.10371e+115
1.19886e+115
7.1878e+114
4.48232e+114
2.64652e+114
1.39673e+114
9.99674e+113
-7.95756e+121
1.01807e+120
8.81272e+119
6.54079e+118
6.98757e+117
4.5908e+116
-6.88246e+115
8.95523e+115
7.04933e+115
4.26612e+115
2.6534e+115
1.68154e+115
1.03031e+115
5.85119e+114
4.03369e+114
-4.02305e+122
-8.34044e+121
1.46384e+120
5.62759e+119
-7.55316e+118
1.7129e+117
-2.25818e+117
-3.24238e+117
-2.89417e+117
-2.47613e+117
-1.98785e+117
-1.44621e+117
-9.00031e+116
-4.4097e+116
-1.62833e+116
6.99757e+123
-4.42157e+122
-7.67817e+121
5.09379e+120
2.19908e+119
-1.323e+119
-4.23149e+118
-3.71775e+118
-3.00389e+118
-2.26608e+118
-1.65288e+118
-1.14546e+118
-7.16946e+117
-3.80486e+117
-1.40119e+117
-4.46955e+124
6.24454e+123
-4.41237e+122
-6.9224e+121
4.39716e+120
4.2478e+118
-2.10536e+119
-7.47618e+118
-4.00441e+118
-1.63693e+118
-2.45571e+117
2.2992e+117
1.35299e+117
-1.29661e+117
-9.98765e+116
-5.90277e+124
-3.82568e+124
5.70365e+123
-4.33446e+122
-6.6744e+121
4.46778e+120
1.46942e+119
-2.19836e+119
-1.81407e+119
-2.04082e+119
-1.93434e+119
-1.54437e+119
-1.01763e+119
-5.31684e+118
-2.08537e+118
3.65942e+126
-7.3911e+124
-3.38315e+124
5.35684e+123
-4.31859e+122
-6.881e+121
1.55164e+120
-1.85174e+120
-1.49944e+120
-8.58324e+119
-4.69092e+119
-2.45583e+119
-1.30806e+119
-8.5218e+118
-4.02545e+118
-2.0265e+126
3.35487e+126
-8.08077e+124
-3.10721e+124
5.17057e+123
-3.36354e+122
2.69303e+121
9.87872e+121
9.30225e+121
8.52642e+121
7.36852e+121
5.91745e+121
4.25594e+121
2.63706e+121
1.29523e+121
-4.49948e+128
-7.20263e+126
9.42225e+126
-1.80065e+125
-9.16861e+124
1.96425e+124
2.28966e+123
2.48025e+123
2.11563e+123
1.57489e+123
1.11619e+123
7.90855e+122
5.47343e+122
3.75645e+122
2.85289e+122
3.30807e+129
-4.21274e+128
-9.48056e+126
9.27916e+126
-9.60312e+124
-9.00629e+124
2.44096e+124
5.0024e+123
3.93729e+123
3.17861e+123
2.19804e+123
1.37419e+123
8.67053e+122
6.14405e+122
3.80341e+122
1.67937e+130
2.84379e+129
-4.03925e+128
-7.88548e+126
9.30818e+126
9.15034e+123
-1.13097e+125
5.64529e+123
-8.0363e+123
-5.96472e+123
-3.74396e+123
-2.03601e+123
-8.49911e+122
-2.45614e+122
-1.11223e+122
-5.93224e+131
1.7184e+130
2.55056e+129
-3.87902e+128
-3.03124e+127
8.97433e+126
7.55931e+125
-4.97723e+125
-2.11202e+125
-1.20079e+125
-7.30554e+124
-3.868e+124
-1.76713e+124
-6.54008e+123
-3.03596e+123
-3.09753e+130
-5.44058e+131
1.70665e+130
2.27476e+129
-3.53029e+128
-8.16387e+126
4.93485e+126
-6.82664e+125
-3.92758e+125
-2.00861e+125
-1.33633e+125
-8.81238e+124
-5.43163e+124
-2.78298e+124
-1.42529e+124
-5.96998e+131
1.83766e+130
2.57509e+129
-4.35996e+128
-1.8919e+127
5.49105e+126
-1.51008e+126
-8.9691e+125
-4.25493e+125
-2.36195e+125
-1.30981e+125
-8.67048e+124
-6.90968e+124
-4.67381e+124
-2.79474e+124
1.65569e+130
3.31561e+129
-3.61167e+128
-4.33711e+127
-2.72101e+126
-2.65469e+126
-1.70933e+126
-9.78304e+125
-5.60049e+125
-3.11242e+125
-1.62563e+125
-9.50363e+124
-7.23451e+124
-5.103e+124
-3.09133e+124
2.4267e+129
4.73432e+127
-3.97231e+127
-1.69348e+127
-8.02842e+126
-4.08365e+126
-2.12101e+126
-1.13781e+126
-6.26234e+125
-3.46293e+125
-1.93969e+125
-1.26612e+125
-6.96774e+124
-3.3555e+124
-1.28985e+124
-1.67896e+128
-3.52625e+127
-1.42307e+127
-6.45666e+126
-2.89136e+126
-1.36138e+126
-6.70782e+125
-3.40454e+125
-1.72071e+125
-9.1996e+124
-5.46484e+124
-4.81724e+124
1.64571e+124
8.9585e+123
3.61601e+123
-9.29504e+126
-2.47625e+126
-1.10997e+125
2.1769e+125
2.2675e+125
1.88583e+125
1.47526e+125
1.17187e+125
1.31132e+125
2.06264e+125
2.34252e+124
-1.55648e+124
-2.09317e+123
-3.04628e+122
-1.77878e+122
1.72235e+126
5.61462e+125
2.79258e+125
1.68346e+125
1.06985e+125
7.13323e+124
5.14131e+124
3.92664e+124
6.41167e+124
1.79793e+125
1.3123e+125
6.5523e+124
1.14013e+124
4.86272e+123
2.27972e+123
5.77217e+124
2.78252e+124
4.09083e+123
-3.68939e+123
-6.22339e+123
-5.55835e+123
1.44493e+123
7.45066e+123
7.06805e+123
9.65279e+124
1.17258e+125
8.2062e+124
4.94751e+124
2.96279e+124
1.72844e+124
-2.79243e+124
-1.08504e+124
-4.35488e+123
-2.18782e+123
-1.27733e+123
-6.77542e+122
-3.48945e+122
-1.08474e+122
1.72447e+122
1.50114e+123
1.36247e+124
1.85593e+124
1.55896e+124
1.15418e+124
8.40539e+123
2.91139e+123
1.0837e+123
5.39965e+122
3.52776e+122
2.63273e+122
1.85238e+122
8.09006e+121
-5.7822e+120
-4.43264e+121
-2.2739e+122
3.87298e+122
8.44525e+122
8.55168e+122
7.40826e+122
6.37276e+122
-2.96038e+121
-1.72361e+120
-1.53456e+121
-1.83027e+121
-1.88314e+121
-1.65377e+121
-7.00745e+120
1.21334e+120
5.51206e+120
1.01855e+121
-8.21405e+121
-1.17272e+122
-1.01281e+122
-8.10428e+121
-6.6011e+121
-3.80906e+121
-1.45549e+121
-7.07414e+120
-4.44927e+120
-3.2493e+120
-2.37718e+120
-1.71155e+120
-1.05567e+120
3.19188e+119
2.82436e+120
5.72964e+120
3.77744e+120
1.90826e+120
1.04397e+120
6.6425e+119
1.15254e+120
3.54623e+119
2.99078e+119
2.71846e+119
2.41994e+119
1.62851e+119
-2.34467e+118
-2.06326e+119
-3.59277e+119
-3.8129e+119
7.05865e+119
1.30844e+120
1.25166e+120
1.02694e+120
7.92933e+119
3.2379e+119
1.29384e+119
5.08254e+118
2.46543e+118
1.38805e+118
8.20697e+117
4.72589e+117
-8.48569e+117
-5.59812e+118
-1.69453e+119
-3.30611e+119
-3.24059e+119
-2.56912e+119
-1.96513e+119
-1.49319e+119
-4.16944e+118
-1.53226e+118
-7.94143e+117
-5.39973e+117
-4.00005e+117
-2.45712e+117
-4.10392e+116
1.49596e+117
2.31885e+117
-1.29838e+117
-1.19925e+118
-1.60465e+118
-1.43995e+118
-1.16457e+118
-9.22202e+117
-3.27407e+116
-2.00717e+116
1.80906e+116
2.64118e+116
2.57615e+116
1.66048e+116
1.35441e+115
6.60917e+114
3.83159e+116
1.3974e+117
2.72386e+117
2.74764e+117
2.1711e+117
1.52571e+117
8.5199e+116
6.92757e+116
2.56468e+116
1.27234e+116
8.46981e+115
6.38233e+115
4.47726e+115
2.11002e+115
-1.52732e+115
-6.85129e+115
-1.11013e+116
-1.15567e+116
-9.40933e+115
-1.08105e+116
-1.91002e+116
-3.91478e+116
-8.5404e+114
-1.24025e+114
-4.80328e+114
-5.77376e+114
-5.20171e+114
-2.56262e+114
2.11996e+114
5.90081e+114
4.93567e+114
-6.15041e+114
-2.31468e+115
-3.43951e+115
-5.82746e+115
-1.27468e+116
-2.88113e+116
-1.08979e+115
-4.35758e+114
-1.66388e+114
-7.57894e+113
-3.97576e+113
-2.16946e+113
-4.22229e+112
5.34642e+113
2.02528e+114
4.35231e+114
5.528e+114
5.46726e+113
-1.62803e+115
-6.62619e+115
-1.86581e+116
1.47976e+114
5.70886e+113
2.6731e+113
1.62214e+113
1.09224e+113
6.09215e+112
4.85191e+111
-4.94032e+112
-7.18916e+112
1.09295e+112
2.07431e+113
1.2596e+113
-3.00703e+114
-2.49336e+115
-9.45106e+115
-6.8314e+112
-2.50267e+112
-1.88468e+112
-1.54758e+112
-1.27403e+112
-8.75236e+111
-3.72996e+111
-2.42779e+111
-1.48892e+112
-6.12531e+112
-1.13449e+113
-1.30762e+113
-1.98279e+113
-1.04898e+114
-4.71153e+114
-1.27909e+112
-5.07921e+111
-2.40729e+111
-1.48922e+111
-1.09479e+111
-8.76557e+110
-7.09281e+110
-8.92422e+110
-5.73119e+111
-3.42484e+112
-5.77509e+112
-7.177e+112
-7.2525e+112
-6.34192e+112
-9.27944e+112
6.16242e+110
2.1554e+110
1.78492e+110
1.5837e+110
1.32623e+110
8.07225e+109
-4.87059e+109
-8.81335e+110
-7.70532e+111
-4.52852e+112
-7.35488e+112
-9.05071e+112
-9.85484e+112
-9.3303e+112
-6.58632e+112
1.53639e+110
6.62294e+109
2.78652e+109
1.37406e+109
8.16912e+108
4.75606e+108
-3.86968e+109
-8.47795e+110
-8.55498e+111
-5.42171e+112
-8.70796e+112
-1.07368e+113
-1.19184e+113
-1.20485e+113
-1.05476e+113
-1.90713e+109
-7.86751e+108
-4.00149e+108
-2.53178e+108
-1.67319e+108
-1.83781e+108
-4.36515e+109
-9.48984e+110
-9.67261e+111
-6.04706e+112
-9.74227e+112
-1.2466e+113
-1.43145e+113
-1.50831e+113
-1.42097e+113
5.49228e+107
1.79769e+107
2.04397e+107
2.24353e+107
3.29131e+107
-3.35389e+107
-4.44532e+109
-1.08301e+111
-1.15314e+112
-5.96967e+112
-9.81448e+112
-1.32602e+113
-1.61951e+113
-1.82831e+113
-1.88776e+113
2.25763e+107
1.00615e+107
5.74393e+106
6.57979e+106
2.00051e+107
-8.95225e+106
-4.32478e+109
-1.24141e+111
-9.36422e+111
-5.13185e+112
-8.99083e+112
-1.27207e+113
-1.62822e+113
-1.95041e+113
-2.18063e+113
-1.58945e+106
-3.0275e+105
7.80487e+105
3.95479e+106
2.00574e+107
3.27527e+107
-3.78329e+109
-1.45904e+111
-8.29688e+111
-3.79716e+112
-7.101e+112
-1.04094e+113
-1.37252e+113
-1.70928e+113
-2.02516e+113
-3.66966e+105
1.88428e+105
1.39272e+106
4.94108e+106
2.22436e+107
6.83641e+107
-2.88412e+109
-1.69395e+111
-8.14097e+111
-2.36449e+112
-4.38708e+112
-6.72019e+112
-9.24297e+112
-1.1918e+113
-1.46898e+113
-5.36974e+104
4.05011e+105
1.73349e+106
5.69235e+106
2.40074e+107
9.11462e+107
-1.98284e+109
-2.01088e+111
-6.64263e+111
-1.36111e+112
-2.33818e+112
-3.60274e+112
-5.09306e+112
-6.77078e+112
-8.65387e+112
-1.0021e+105
4.82284e+105
2.10969e+106
6.70855e+106
2.63088e+107
1.08257e+108
-1.75519e+109
-1.32271e+111
-4.06543e+111
-7.39032e+111
-1.16711e+112
-1.71427e+112
-2.39434e+112
-3.2207e+112
-4.20257e+112
-1.14754e+105
6.02665e+105
2.62797e+106
8.12666e+106
2.92277e+107
1.25876e+108
-1.64243e+109
-6.56391e+110
-1.92744e+111
-3.33424e+111
-5.02272e+111
-7.05367e+111
-9.5481e+111
-1.26436e+112
-1.64154e+112
-1.32305e+105
7.29373e+105
3.19202e+106
9.71834e+106
3.22399e+107
1.38416e+108
-1.74024e+109
-2.93177e+110
-7.08965e+110
-1.16586e+111
-1.68922e+111
-2.29754e+111
-3.03442e+111
-3.94257e+111
-5.04827e+111
-1.49991e+105
8.63951e+105
3.78528e+106
1.14081e+107
3.55852e+107
1.46387e+108
-3.0532e+108
-7.18233e+109
-1.73794e+110
-2.85933e+110
-4.0906e+110
-5.51087e+110
-7.22144e+110
-9.28595e+110
-1.17504e+111
-1.68011e+105
1.02507e+106
4.48804e+106
1.34247e+107
3.98928e+107
1.46673e+108
7.60125e+108
6.87555e+108
-9.73171e+108
-2.86463e+109
-4.90058e+109
-7.21424e+109
-9.98253e+109
-1.32751e+110
-1.7147e+110
-1.88627e+105
1.20966e+106
5.31937e+106
1.59221e+107
4.61675e+107
1.48345e+108
7.58736e+108
1.47919e+109
1.64089e+109
1.62513e+109
1.54659e+109
1.45503e+109
1.34394e+109
1.19759e+109
9.95437e+108
-2.11083e+105
1.41047e+106
6.24312e+106
1.88057e+107
5.49683e+107
1.74457e+108
4.78726e+108
7.91675e+108
9.69049e+108
1.08887e+109
1.18601e+109
1.28886e+109
1.40061e+109
1.51556e+109
1.62734e+109
-2.75116e+105
1.51418e+106
7.06701e+106
2.1239e+107
5.41448e+107
1.15278e+108
1.96856e+108
2.69295e+108
3.22473e+108
3.64737e+108
4.01784e+108
4.39556e+108
4.79185e+108
5.1973e+108
5.60041e+108
-5.50764e+105
5.13646e+105
3.85097e+106
1.08086e+107
2.26745e+107
3.91505e+107
5.60184e+107
6.869e+107
7.77033e+107
8.52306e+107
9.20463e+107
9.88043e+107
1.05598e+108
1.12234e+108
1.18597e+108
-7.75602e+105
-6.54389e+105
2.62983e+105
2.07386e+106
4.61915e+106
7.5013e+106
1.01607e+107
1.21613e+107
1.3549e+107
1.46458e+107
1.55961e+107
1.64234e+107
1.7131e+107
1.77161e+107
1.81841e+107
-6.27769e+105
-8.80759e+105
-9.37098e+105
-7.953e+105
-4.92533e+105
-1.07698e+105
2.94345e+105
6.60349e+105
9.63234e+105
1.20813e+106
1.40766e+106
1.56845e+106
1.69337e+106
1.78548e+106
1.84659e+106
-2.86949e+105
-4.52359e+105
-5.62175e+105
-6.13573e+105
-6.07734e+105
-5.64938e+105
-5.01694e+105
-4.3024e+105
-3.60139e+105
-2.96755e+105
-2.41141e+105
-1.92402e+105
-1.49581e+105
-1.12113e+105
-8.00341e+104
-5.89025e+104
-1.05942e+105
-1.41168e+105
-1.61582e+105
-1.6798e+105
-1.65572e+105
-1.57812e+105
-1.47274e+105
-1.36127e+105
-1.25445e+105
-1.1534e+105
-1.05664e+105
-9.634e+104
-8.73905e+104
-7.89042e+104
2.9882e+102
-5.8171e+103
-1.14133e+104
-1.53915e+104
-1.77885e+104
-1.89712e+104
-1.92337e+104
-1.88892e+104
-1.82813e+104
-1.75943e+104
-1.68361e+104
-1.59913e+104
-1.50702e+104
-1.40975e+104
-1.30944e+104
3.09927e+103
2.84383e+103
2.20725e+103
1.59741e+103
1.06845e+103
6.40689e+102
3.10377e+102
6.33876e+101
-1.18938e+102
-2.54014e+102
-3.5228e+102
-4.21035e+102
-4.66049e+102
-4.92103e+102
-5.01389e+102
9.35642e+102
8.85667e+102
7.6497e+102
6.5717e+102
5.59813e+102
4.74489e+102
4.00891e+102
3.3808e+102
2.87289e+102
2.47414e+102
2.14455e+102
1.85979e+102
1.61022e+102
1.39056e+102
1.2002e+102
2.27191e+102
1.91895e+102
1.49067e+102
1.1894e+102
9.64317e+101
7.90495e+101
6.53051e+101
5.45891e+101
4.65247e+101
4.03525e+101
3.52979e+101
3.09426e+101
2.71091e+101
2.37073e+101
2.07262e+101
4.77585e+101
4.02451e+101
2.95704e+101
2.20033e+101
1.66198e+101
1.27676e+101
9.95988e+100
7.92937e+100
6.47979e+100
5.40418e+100
4.55371e+100
3.85284e+100
3.26453e+100
2.76727e+100
2.35128e+100
5.65028e+100
5.52431e+100
4.34236e+100
3.3299e+100
2.54445e+100
1.96102e+100
1.52966e+100
1.21785e+100
9.92561e+99
8.20638e+99
6.82133e+99
5.67658e+99
4.72253e+99
3.92728e+99
3.26867e+99
-1.70664e+99
8.74066e+98
1.71399e+99
1.8013e+99
1.62603e+99
1.38952e+99
1.17016e+99
9.94074e+98
8.51107e+98
7.2788e+98
6.19316e+98
5.24108e+98
4.41418e+98
3.70412e+98
3.09759e+98
-1.66492e+99
-1.078e+99
-6.18628e+98
-3.66496e+98
-2.23671e+98
-1.40238e+98
-9.00696e+97
-5.92706e+97
-3.9764e+97
-2.68913e+97
-1.81161e+97
-1.20447e+97
-7.83564e+96
-4.9326e+96
-3.01572e+96
-2.07656e+98
-1.6885e+98
-1.12994e+98
-7.68759e+97
-5.33893e+97
-3.81336e+97
-2.81819e+97
-2.15839e+97
-1.69133e+97
-1.33893e+97
-1.06424e+97
-8.47568e+96
-6.75773e+96
-5.39505e+96
-4.31568e+96
1.46929e+97
2.06589e+96
-1.68287e+96
-2.43358e+96
-2.27136e+96
-1.93338e+96
-1.62624e+96
-1.37064e+96
-1.14657e+96
-9.49165e+95
-7.79823e+95
-6.37663e+95
-5.19744e+95
-4.23141e+95
-3.43118e+95
1.03054e+97
5.85029e+96
2.97718e+96
1.61081e+96
9.21453e+95
5.55642e+95
3.52971e+95
2.35136e+95
1.62494e+95
1.1512e+95
8.29222e+94
6.04558e+94
4.45053e+94
3.30066e+94
2.49441e+94
1.94598e+96
1.23385e+96
6.97334e+95
4.14341e+95
2.59265e+95
1.70887e+95
1.18431e+95
8.53861e+94
6.29932e+94
4.70284e+94
3.53618e+94
2.67294e+94
2.02927e+94
1.54702e+94
1.18761e+94
2.19606e+95
1.24229e+95
7.17977e+94
4.48718e+94
2.97552e+94
2.07464e+94
1.51244e+94
1.13593e+94
8.65523e+93
6.63441e+93
5.10027e+93
3.92814e+93
3.02969e+93
2.34083e+93
1.81388e+93
8.79965e+93
5.24819e+93
2.59896e+93
1.71951e+93
1.18832e+93
8.56191e+92
6.44056e+92
4.96248e+92
3.86372e+92
3.01821e+92
2.35831e+92
1.8421e+92
1.43809e+92
1.12287e+92
8.77066e+91
-6.23816e+93
-1.19051e+93
-2.61463e+92
-5.81063e+91
-2.15208e+91
-1.24192e+91
-9.32962e+90
-7.89782e+90
-6.88157e+90
-5.91039e+90
-4.94684e+90
-4.05197e+90
-3.26918e+90
-2.6091e+90
-2.08693e+90
-1.07264e+93
-3.90618e+92
-9.68646e+91
-3.56651e+91
-1.54078e+91
-7.119e+90
-3.64998e+90
-2.12703e+90
-1.38956e+90
-9.82107e+89
-7.31442e+89
-5.64384e+89
-4.43728e+89
-3.51829e+89
-2.83489e+89
4.01021e+92
5.87727e+91
2.18876e+90
-6.6711e+90
-5.63932e+90
-3.83542e+90
-2.48882e+90
-1.59243e+90
-1.01204e+90
-6.44524e+89
-4.1562e+89
-2.72973e+89
-1.82864e+89
-1.25097e+89
-8.69784e+88
1.1529e+92
4.10478e+91
1.07174e+91
3.10711e+90
8.00338e+89
4.36287e+88
-1.79472e+89
-2.16306e+89
-1.92424e+89
-1.53827e+89
-1.1651e+89
-8.54589e+88
-6.15672e+88
-4.3968e+88
-3.12094e+88
-1.42015e+91
-6.93877e+89
8.42381e+89
8.43414e+89
5.85667e+89
3.74723e+89
2.33479e+89
1.43023e+89
8.59458e+88
5.0741e+88
2.9594e+88
1.71432e+88
9.88893e+87
5.69074e+87
3.21119e+87
-7.64416e+90
-2.86772e+90
-8.90245e+89
-2.92569e+89
-9.13773e+88
-1.95071e+88
5.36697e+87
1.24817e+88
1.29248e+88
1.11007e+88
8.77635e+87
6.6357e+87
4.89688e+87
3.5762e+87
2.59331e+87
-2.84497e+89
-2.91457e+89
-1.58981e+89