/*--------------------------------*- C++ -*----------------------------------*\
  =========                 |
  \\      /  F ield         | OpenFOAM: The Open Source CFD Toolbox
   \\    /   O peration     | Website:  https://openfoam.org
    \\  /    A nd           | Version:  7
     \\/     M anipulation  |
\*---------------------------------------------------------------------------*/
FoamFile
{
    version     2.0;
    format      ascii;
    class       volScalarField;
    location    "100";
    object      epsilon;
}
// * * * * * * * * * * * * * * * * * * * * * * * * * * * * * * * * * * * * * //

dimensions      [0 2 -3 0 0 0 0];

internalField   nonuniform List<scalar> 
32100
(
0.0114746
0.0114746
0.0114746
0.0114746
0.0114746
0.0114746
0.0114746
0.0114746
0.0114746
0.0114747
0.0114746
0.0114733
0.0115614
0.0141724
0.220523
0.011444
0.011444
0.011444
0.0114441
0.0114441
0.0114441
0.011444
0.0114441
0.0114441
0.0114441
0.0114444
0.0114618
0.0117392
0.0185915
0.235266
0.0114136
0.0114136
0.0114136
0.0114136
0.0114136
0.0114136
0.0114136
0.0114136
0.0114136
0.0114137
0.0114161
0.0114713
0.0121037
0.0223518
0.250554
0.0113832
0.0113832
0.0113832
0.0113832
0.0113832
0.0113832
0.0113832
0.0113832
0.0113833
0.0113838
0.0113901
0.0114982
0.0125475
0.0256244
0.266369
0.011353
0.011353
0.011353
0.011353
0.011353
0.011353
0.011353
0.011353
0.0113531
0.0113544
0.0113678
0.0115474
0.0130482
0.0286852
0.282677
0.0113229
0.0113229
0.0113229
0.0113229
0.0113229
0.0113229
0.0113229
0.0113229
0.0113232
0.0113256
0.0113497
0.0116116
0.0135752
0.031441
0.299526
0.0112929
0.0112929
0.0112929
0.0112929
0.0112929
0.0112929
0.0112929
0.011293
0.0112934
0.0112976
0.0113364
0.0116896
0.0141222
0.0342684
0.316888
0.0112631
0.011263
0.011263
0.011263
0.011263
0.0112631
0.0112631
0.0112632
0.0112638
0.0112706
0.0113272
0.0117807
0.014684
0.0371382
0.334722
0.0112333
0.0112333
0.0112333
0.0112333
0.0112333
0.0112333
0.0112334
0.0112335
0.0112346
0.0112446
0.0113237
0.0118839
0.0152575
0.0400309
0.353063
0.0112037
0.0112037
0.0112037
0.0112037
0.0112037
0.0112037
0.0112038
0.011204
0.0112057
0.0112198
0.0113249
0.0119982
0.0158399
0.0429291
0.371858
0.0111742
0.0111742
0.0111742
0.0111742
0.0111742
0.0111742
0.0111743
0.0111746
0.0111771
0.0111964
0.0113297
0.0121227
0.01643
0.045833
0.391138
0.0111449
0.0111449
0.0111449
0.0111449
0.0111449
0.0111449
0.011145
0.0111454
0.0111489
0.0111743
0.0113388
0.0122564
0.0170258
0.048734
0.410843
0.0111156
0.0111156
0.0111156
0.0111156
0.0111156
0.0111157
0.0111158
0.0111164
0.0111212
0.0111538
0.0113531
0.0123983
0.0176269
0.0516399
0.431002
0.0110865
0.0110865
0.0110865
0.0110865
0.0110865
0.0110866
0.0110867
0.0110876
0.011094
0.0111349
0.0113718
0.0125477
0.0182318
0.0545418
0.451545
0.0110575
0.0110575
0.0110575
0.0110575
0.0110576
0.0110576
0.0110578
0.011059
0.0110673
0.0111177
0.0113946
0.0127039
0.0188409
0.0574537
0.472507
0.0110287
0.0110287
0.0110287
0.0110287
0.0110287
0.0110288
0.0110291
0.0110306
0.0110412
0.0111023
0.0114215
0.0128659
0.0194526
0.0603626
0.493802
0.0109999
0.0109999
0.0109999
0.011
0.011
0.0110001
0.0110004
0.0110025
0.0110156
0.0110887
0.0114523
0.0130334
0.0200681
0.0632895
0.515473
0.0109713
0.0109713
0.0109713
0.0109714
0.0109714
0.0109715
0.010972
0.0109746
0.0109908
0.0110769
0.0114867
0.0132056
0.0206851
0.0662138
0.53742
0.0109429
0.0109429
0.0109429
0.0109429
0.0109429
0.010943
0.0109436
0.010947
0.0109666
0.0110668
0.0115246
0.0133821
0.0213059
0.069165
0.559694
0.0109145
0.0109145
0.0109145
0.0109145
0.0109146
0.0109147
0.0109155
0.0109196
0.0109432
0.0110587
0.0115659
0.0135623
0.0219271
0.0721118
0.58218
0.0108863
0.0108863
0.0108863
0.0108863
0.0108864
0.0108865
0.0108875
0.0108926
0.0109205
0.0110523
0.0116103
0.0137461
0.0225524
0.0750946
0.604942
0.0108582
0.0108582
0.0108582
0.0108582
0.0108583
0.0108585
0.0108597
0.0108659
0.0108986
0.0110479
0.0116577
0.0139326
0.0231769
0.0780685
0.627847
0.0108302
0.0108302
0.0108302
0.0108302
0.0108303
0.0108306
0.010832
0.0108395
0.0108775
0.0110449
0.0117078
0.0141221
0.023806
0.0810872
0.650971
0.0108023
0.0108023
0.0108023
0.0108024
0.0108024
0.0108028
0.0108045
0.0108135
0.0108573
0.0110444
0.0117605
0.0143136
0.0244332
0.08409
0.674167
0.0107746
0.0107746
0.0107746
0.0107746
0.0107747
0.0107751
0.0107773
0.0107878
0.0108379
0.0110451
0.0118156
0.0145076
0.0250653
0.0871464
0.697523
0.0107469
0.0107469
0.0107469
0.010747
0.0107471
0.0107476
0.0107502
0.0107626
0.0108193
0.0110471
0.011873
0.014703
0.0256941
0.0901776
0.720878
0.0107194
0.0107194
0.0107194
0.0107195
0.0107196
0.0107202
0.0107233
0.0107377
0.0108017
0.0110511
0.0119324
0.0149004
0.0263286
0.0932704
0.744332
0.010692
0.010692
0.0106921
0.0106921
0.0106923
0.010693
0.0106966
0.0107133
0.0107849
0.0110566
0.0119938
0.0150986
0.0269581
0.0963271
0.767712
0.0106648
0.0106648
0.0106648
0.0106648
0.010665
0.0106659
0.0106701
0.0106892
0.0107689
0.0110637
0.012057
0.0152986
0.0275941
0.0994529
0.791129
0.0106376
0.0106376
0.0106376
0.0106377
0.0106379
0.010639
0.0106439
0.0106656
0.0107539
0.0110722
0.0121218
0.0154989
0.0282231
0.10253
0.8144
0.0106106
0.0106106
0.0106106
0.0106107
0.0106109
0.0106122
0.0106179
0.0106425
0.0107397
0.0110821
0.0121882
0.0157007
0.0288596
0.105683
0.837646
0.0105836
0.0105836
0.0105837
0.0105837
0.0105841
0.0105855
0.0105921
0.0106198
0.0107264
0.0110934
0.0122559
0.0159023
0.029487
0.108773
0.860678
0.0105568
0.0105568
0.0105568
0.0105569
0.0105573
0.010559
0.0105666
0.0105975
0.010714
0.0111059
0.012325
0.0161053
0.0301229
0.111947
0.883624
0.0105301
0.0105301
0.0105301
0.0105303
0.0105307
0.0105327
0.0105413
0.0105758
0.0107025
0.0111197
0.0123951
0.0163075
0.0307472
0.115042
0.90629
0.0105035
0.0105035
0.0105036
0.0105037
0.0105042
0.0105065
0.0105162
0.0105545
0.0106917
0.0111346
0.0124664
0.016511
0.0313814
0.118227
0.928812
0.0104771
0.0104771
0.0104771
0.0104772
0.0104779
0.0104805
0.0104915
0.0105337
0.0106818
0.0111507
0.0125385
0.0167133
0.0320012
0.121318
0.950994
0.0104507
0.0104507
0.0104507
0.0104509
0.0104516
0.0104546
0.010467
0.0105134
0.0106728
0.0111678
0.0126116
0.0169169
0.0326324
0.124507
0.972976
0.0104244
0.0104244
0.0104245
0.0104247
0.0104255
0.0104289
0.0104427
0.0104936
0.0106645
0.0111859
0.0126853
0.0171186
0.0332461
0.127583
0.994561
0.0103983
0.0103983
0.0103983
0.0103986
0.0103995
0.0104034
0.0104188
0.0104742
0.010657
0.011205
0.0127599
0.0173217
0.0338731
0.130766
1.0159
0.0103723
0.0103723
0.0103723
0.0103726
0.0103737
0.0103781
0.0103951
0.0104554
0.0106502
0.0112249
0.0128348
0.0175224
0.034479
0.133817
1.03679
0.0103463
0.0103463
0.0103464
0.0103467
0.0103479
0.0103529
0.0103717
0.010437
0.0106443
0.0112457
0.0129104
0.0177244
0.0351006
0.136985
1.05738
0.0103205
0.0103205
0.0103206
0.0103209
0.0103224
0.0103279
0.0103486
0.0104192
0.010639
0.0112673
0.0129862
0.0179235
0.0356968
0.14
1.07748
0.0102948
0.0102948
0.0102949
0.0102953
0.0102969
0.0103031
0.0103258
0.0104018
0.0106344
0.0112896
0.0130626
0.0181241
0.0363118
0.143144
1.09725
0.0102692
0.0102692
0.0102693
0.0102698
0.0102716
0.0102785
0.0103033
0.0103849
0.0106305
0.0113126
0.0131389
0.018321
0.0368965
0.146112
1.11649
0.0102437
0.0102437
0.0102438
0.0102443
0.0102464
0.0102541
0.0102811
0.0103685
0.0106273
0.0113363
0.0132158
0.0185198
0.0375037
0.149224
1.13536
0.0102183
0.0102183
0.0102184
0.010219
0.0102213
0.0102298
0.0102592
0.0103525
0.0106247
0.0113605
0.0132924
0.018714
0.0380752
0.152137
1.15367
0.010193
0.010193
0.0101932
0.0101938
0.0101964
0.0102058
0.0102376
0.0103371
0.0106227
0.0113853
0.0133695
0.0189106
0.0386735
0.155209
1.17159
0.0101678
0.0101678
0.010168
0.0101688
0.0101716
0.0101819
0.0102163
0.0103221
0.0106214
0.0114106
0.013446
0.0191016
0.0392301
0.158058
1.18891
0.0101427
0.0101427
0.0101429
0.0101438
0.010147
0.0101583
0.0101953
0.0103075
0.0106204
0.0114364
0.0135231
0.0192956
0.0398182
0.161083
1.20583
0.0101177
0.0101177
0.010118
0.010119
0.0101225
0.0101348
0.0101746
0.0102934
0.0106203
0.0114625
0.0135994
0.019483
0.0403587
0.16386
1.22213
0.0100928
0.0100929
0.0100931
0.0100942
0.0100982
0.0101115
0.0101542
0.0102798
0.0106206
0.0114891
0.0136762
0.019674
0.0409353
0.166833
1.23802
0.010068
0.0100681
0.0100684
0.0100696
0.010074
0.0100885
0.0101342
0.0102665
0.0106212
0.011516
0.013752
0.0198573
0.0414583
0.169531
1.25327
0.0100433
0.0100434
0.0100438
0.0100451
0.0100499
0.0100656
0.0101144
0.0102537
0.0106224
0.0115433
0.0138283
0.0200451
0.0420225
0.172448
1.2681
0.0100188
0.0100188
0.0100192
0.0100208
0.010026
0.010043
0.010095
0.0102414
0.0106241
0.0115707
0.0139033
0.0202239
0.0425268
0.175061
1.28228
0.00999429
0.0099944
0.00999485
0.00999653
0.0100022
0.0100206
0.0100758
0.0102294
0.0106262
0.0115985
0.0139791
0.0204081
0.0430777
0.177918
1.29605
0.00996989
0.00996998
0.00997047
0.00997234
0.00997857
0.00999836
0.010057
0.0102178
0.0106287
0.0116263
0.0140531
0.0205819
0.0435622
0.180442
1.30915
0.00994562
0.00994578
0.00994637
0.00994841
0.00995516
0.00997632
0.0100384
0.0102067
0.0106317
0.0116545
0.014128
0.0207623
0.0440992
0.183238
1.32186
0.00992143
0.00992154
0.00992211
0.00992437
0.00993175
0.00995453
0.0100202
0.0101959
0.0106349
0.0116825
0.0142008
0.0209308
0.0445631
0.18567
1.33389
0.0098973
0.00989752
0.0098983
0.00990076
0.00990869
0.00993294
0.0100022
0.0101855
0.0106386
0.0117111
0.0142749
0.0211072
0.0450854
0.188404
1.34556
0.0098734
0.00987354
0.00987422
0.00987696
0.00988557
0.00991154
0.00998452
0.0101754
0.0106425
0.0117392
0.0143462
0.02127
0.0455284
0.190742
1.35651
0.00984928
0.00984954
0.00985053
0.00985344
0.00986276
0.00989039
0.00996717
0.0101657
0.0106468
0.0117679
0.0144193
0.0214422
0.046035
0.193413
1.36715
0.00982585
0.00982606
0.00982688
0.00983019
0.0098401
0.00986939
0.00994999
0.0101562
0.0106513
0.011796
0.0144889
0.021599
0.0464574
0.195657
1.37707
0.00980138
0.00980171
0.00980297
0.0098064
0.00981733
0.00984866
0.00993336
0.0101473
0.0106563
0.0118249
0.0145609
0.0217669
0.0469469
0.198266
1.3867
0.0097788
0.00977903
0.00977994
0.00978388
0.0097952
0.00982803
0.00991651
0.0101384
0.0106611
0.0118527
0.0146287
0.0219174
0.0473496
0.200418
1.3956
0.00975334
0.00975384
0.00975564
0.00975973
0.00977241
0.00980777
0.00990064
0.0101302
0.0106667
0.0118817
0.0146995
0.0220807
0.0478208
0.202965
1.40426
0.00973179
0.00973213
0.00973309
0.0097377
0.00975068
0.00978722
0.00988407
0.0101218
0.0106719
0.0119091
0.0147652
0.022225
0.0482052
0.205029
1.41218
0.00970535
0.00970587
0.00970785
0.00971291
0.00972772
0.00976763
0.00986883
0.0101141
0.0106779
0.0119381
0.0148348
0.0223832
0.0486563
0.207516
1.41989
0.00968358
0.009684
0.00968551
0.00969093
0.00970577
0.00974641
0.00985221
0.0101062
0.0106833
0.011965
0.0148983
0.0225216
0.0490252
0.209499
1.42688
0.00965477
0.00965577
0.00965964
0.00966603
0.00968333
0.00972776
0.00983774
0.0100989
0.0106898
0.0119941
0.0149666
0.022674
0.0494536
0.21193
1.43368
0.00962811
0.0096288
0.00963041
0.00963937
0.00965742
0.00970494
0.00982048
0.010091
0.0106952
0.0120201
0.0150278
0.0228072
0.0498109
0.213841
1.43978
0.00960212
0.00960298
0.00960568
0.0096167
0.00963684
0.00968512
0.00980597
0.0100838
0.010702
0.0120493
0.0150947
0.022953
0.0502142
0.216224
1.44572
0.00956562
0.0095673
0.00957935
0.00958427
0.00960643
0.00966217
0.0097879
0.0100761
0.0107073
0.0120744
0.0151537
0.023082
0.0505645
0.21808
1.45098
0.00954627
0.00954912
0.0095509
0.00956186
0.00958528
0.00963864
0.00977317
0.010069
0.0107148
0.012104
0.0152189
0.02322
0.0509405
0.220428
1.45611
0.00952086
0.00951612
0.00951643
0.00953547
0.0095545
0.00961785
0.00975547
0.0100613
0.0107204
0.0121284
0.0152764
0.0233464
0.0512895
0.222257
1.46055
0.0095701
0.00951411
0.00950877
0.00950348
0.00953739
0.00959867
0.00973793
0.0100542
0.0107295
0.0121589
0.0153397
0.0234761
0.0516383
0.224596
1.46498
0.00956053
0.00952268
0.00951079
0.00949088
0.00950773
0.00957692
0.00972488
0.0100454
0.0107359
0.0121837
0.0153971
0.0236015
0.0519918
0.226444
1.46852
0.00970973
0.00966676
0.00962211
0.00949869
0.00950268
0.00955094
0.00970897
0.0100412
0.0107482
0.0122164
0.0154587
0.0237234
0.0523169
0.228825
1.47249
0.00970581
0.0096594
0.00961505
0.00951393
0.0095041
0.00954242
0.00969207
0.0100353
0.0107573
0.0122438
0.0155186
0.0238506
0.0526855
0.23087
1.47521
0.00999365
0.00990303
0.00977874
0.00964935
0.00958916
0.00958169
0.00970488
0.0100436
0.0107762
0.0122806
0.0155799
0.023967
0.0529848
0.232964
1.4775
0.0101165
0.0100331
0.00989505
0.00973737
0.00962697
0.00959793
0.00971094
0.0100506
0.0107917
0.0123153
0.0156465
0.0241006
0.0534205
0.237472
1.48331
0.010096
0.0101656
0.00987868
0.00972226
0.00971044
0.00963784
0.00971606
0.0100544
0.0108161
0.0123821
0.0157857
0.0243868
0.0540169
0.239845
2.0248
0.0103049
0.0103715
0.00988849
0.00975331
0.00993922
0.00976983
0.00978225
0.0101
0.0108902
0.0125326
0.0160689
0.0249281
0.0564575
0.313229
3.43847
0.0104515
0.0101734
0.00988574
0.00978369
0.00981483
0.00986343
0.0098922
0.0101827
0.0109664
0.0126369
0.0162293
0.025223
0.0587693
0.374726
3.79557
0.0105611
0.0101383
0.00988287
0.00978534
0.00980431
0.00996804
0.0100415
0.010316
0.0110853
0.0127797
0.0164509
0.0257851
0.0647708
0.513635
4.27828
0.0105612
0.0104942
0.0101534
0.0100316
0.0100448
0.0100211
0.0101943
0.0104755
0.0112266
0.0129114
0.0166064
0.0263162
0.072921
0.671722
4.43357
0.0107346
0.0104369
0.0104011
0.010246
0.010015
0.0101132
0.0103882
0.0106646
0.0113908
0.0130707
0.0168511
0.0274108
0.0887731
0.884455
4.4021
0.0105365
0.0104083
0.0103168
0.0101373
0.0100103
0.0101639
0.0105857
0.010889
0.0115941
0.0132552
0.0170967
0.0288553
0.114182
1.12456
4.26292
0.0108128
0.0106886
0.0103497
0.0103242
0.0103048
0.0103871
0.0108019
0.0111203
0.0118013
0.0134424
0.0174897
0.0317356
0.154028
1.35618
3.9884
0.0107963
0.0108343
0.0103783
0.010361
0.0105948
0.0107731
0.0110889
0.0113978
0.0120708
0.0137168
0.018027
0.0357488
0.210484
1.57987
3.68694
0.0108377
0.0109937
0.0106886
0.0107021
0.0108938
0.0111373
0.0114005
0.0116912
0.0123454
0.0140057
0.0188107
0.0426357
0.290276
1.76876
3.3959
0.0113028
0.0109352
0.0108106
0.0111197
0.0112864
0.0115112
0.0117449
0.0120323
0.0126976
0.0144554
0.0200615
0.0527684
0.390136
1.90686
3.13869
0.0111911
0.011213
0.0111661
0.0114549
0.0116667
0.0118827
0.0121039
0.0123909
0.0130638
0.014949
0.0218262
0.0690986
0.510739
1.9881
2.91984
0.0112299
0.0114341
0.0117063
0.0118863
0.0120892
0.0122895
0.0125037
0.0128022
0.0135259
0.0157098
0.0247506
0.0933404
0.640315
2.0138
2.73241
0.0116063
0.0117873
0.0121707
0.012365
0.0125579
0.0127349
0.012934
0.0132405
0.014029
0.0166247
0.0288617
0.127955
0.772075
2.00433
2.57062
0.0122558
0.0123977
0.012689
0.0129014
0.0130909
0.0132468
0.013428
0.0137509
0.0146669
0.0179788
0.0353411
0.175538
0.898466
1.97481
2.42964
0.0128109
0.0129803
0.0132343
0.0134637
0.0136516
0.0137885
0.0139502
0.0142946
0.0153895
0.0197261
0.0446496
0.236304
1.00915
1.92446
2.30197
0.0133826
0.0135646
0.0138198
0.0140654
0.0142562
0.014385
0.0145407
0.0149368
0.0163299
0.0222909
0.0586265
0.309207
1.09768
1.87085
2.18663
0.0139866
0.0141622
0.0144219
0.0146754
0.0148648
0.0149866
0.0151433
0.0156183
0.0174409
0.025775
0.0782235
0.390404
1.16355
1.81684
2.08187
0.0146121
0.0147789
0.0150447
0.0153081
0.0155035
0.0156327
0.0158188
0.0164417
0.0189377
0.030858
0.105231
0.474698
1.20868
1.76444
1.98744
0.0152349
0.015396
0.0156669
0.015938
0.0161385
0.0162774
0.0165085
0.0173442
0.020805
0.0379071
0.140392
0.55844
1.23592
1.71351
1.90218
0.0158734
0.0160309
0.0163054
0.0165843
0.016796
0.0169619
0.0172835
0.0184624
0.0233732
0.0479826
0.184136
0.636692
1.25092
1.66426
1.82491
0.0165387
0.0166901
0.0169599
0.0172387
0.0174591
0.0176603
0.0181108
0.0197775
0.0267706
0.0618319
0.235351
0.706088
1.25637
1.61682
1.75451
0.0172463
0.0173868
0.017642
0.0179127
0.018143
0.0184008
0.0190538
0.021452
0.0314786
0.0805493
0.291895
0.765429
1.25648
1.57128
1.69007
0.0179895
0.0181151
0.018348
0.018605
0.0188493
0.0191917
0.0201392
0.0235788
0.0378808
0.104851
0.35148
0.814163
1.25184
1.52802
1.6308
0.018763
0.0188711
0.0190771
0.0193178
0.0195844
0.0200502
0.0214219
0.0263544
0.0466458
0.135251
0.411683
0.853834
1.24601
1.48769
1.57639
0.019549
0.0196403
0.0198211
0.0200522
0.020363
0.0210174
0.0230062
0.0300653
0.058484
0.171556
0.469877
0.885408
1.23624
1.44929
1.52596
0.020345
0.0204217
0.0205823
0.0208149
0.0212001
0.0221279
0.0249855
0.0350016
0.0740222
0.21271
0.524202
0.91048
1.22457
1.41273
1.47893
0.0211369
0.0212035
0.0213544
0.0216099
0.022118
0.0234443
0.0275311
0.0416374
0.0939441
0.257554
0.573469
0.930113
1.21148
1.37794
1.43494
0.0219313
0.0219929
0.0221473
0.022454
0.0231516
0.025048
0.0308486
0.0504543
0.118503
0.304495
0.61728
0.945224
1.19732
1.34456
1.39326
0.0227214
0.0227862
0.0229646
0.0233653
0.0243475
0.0270474
0.0352024
0.0619967
0.147643
0.351735
0.655411
0.955698
1.18163
1.31187
1.35308
0.023519
0.0235953
0.0238204
0.0243668
0.0257552
0.0295691
0.0409151
0.0767633
0.180737
0.39774
0.688571
0.963095
1.16518
1.27993
1.31419
0.0243271
0.0244284
0.0247368
0.0255083
0.0274796
0.0328305
0.0484091
0.0951385
0.21698
0.441141
0.716386
0.965517
1.14711
1.24832
1.27628
0.0251621
0.025303
0.0257351
0.0268236
0.0295926
0.0370056
0.0580293
0.117171
0.255105
0.481115
0.739218
0.965208
1.12774
1.21675
1.23892
0.0260423
0.0262458
0.0268641
0.0284072
0.0322765
0.0424365
0.0702432
0.142701
0.293801
0.517233
0.757864
0.963358
1.10781
1.18537
1.20205
0.0269874
0.0272791
0.0281545
0.0303125
0.0356434
0.0493455
0.0852354
0.171143
0.331829
0.549395
0.772613
0.958812
1.08713
1.15415
1.16555
0.0280454
0.0284654
0.0297055
0.0327077
0.0399794
0.0581525
0.103229
0.201792
0.368261
0.577364
0.783294
0.951309
1.06518
1.12262
1.12905
0.0292371
0.0298273
0.031547
0.0356482
0.0453979
0.0689878
0.123953
0.233513
0.402238
0.60119
0.790424
0.941595
1.04214
1.09071
1.09243
0.0306487
0.0314772
0.0338551
0.0394183
0.0523168
0.0822517
0.147256
0.265549
0.433442
0.621066
0.794042
0.929827
1.01818
1.05857
1.05586
0.0323294
0.033463
0.0366754
0.0440631
0.0607516
0.0977223
0.172286
0.296777
0.461259
0.636769
0.79411
0.915865
0.993154
1.02604
1.01922
0.0343802
0.0359224
0.0402326
0.0499394
0.0711519
0.115633
0.198718
0.326792
0.48589
0.649254
0.792552
0.900632
0.967465
0.993307
0.982544
0.0369365
0.0389908
0.0446536
0.0571241
0.0833917
0.13536
0.22546
0.354755
0.507098
0.658398
0.788263
0.883947
0.941149
0.960417
0.94591
0.0400957
0.0427989
0.0501418
0.0658988
0.0977037
0.156827
0.252202
0.380577
0.525078
0.664383
0.781356
0.86584
0.914243
0.927422
0.909396
0.0440953
0.0475889
0.0569244
0.0763739
0.113849
0.179308
0.278121
0.403905
0.540014
0.667767
0.772707
0.846694
0.886915
0.894417
0.873117
0.049066
0.0535038
0.065151
0.0886306
0.131694
0.202439
0.30291
0.42464
0.551805
0.66816
0.762101
0.826467
0.859153
0.861422
0.837165
0.0552886
0.0608109
0.075022
0.102668
0.150886
0.22562
0.326121
0.442788
0.56104
0.666958
0.750185
0.805437
0.831084
0.828589
0.801715
0.0629198
0.0696437
0.0865932
0.118358
0.171064
0.24844
0.347553
0.458367
0.567666
0.663486
0.736819
0.783604
0.802751
0.795987
0.766995
0.0721741
0.0801595
0.0998751
0.135451
0.191716
0.270341
0.366853
0.471286
0.571737
0.657631
0.721842
0.760843
0.774107
0.763654
0.733176
0.0830715
0.0922762
0.114579
0.153385
0.212101
0.290631
0.383492
0.481068
0.572775
0.649455
0.70514
0.737039
0.745116
0.731663
0.700415
0.0953363
0.105581
0.130065
0.171309
0.231321
0.308617
0.39721
0.488129
0.571331
0.638907
0.686482
0.711925
0.71558
0.699937
0.668723
0.108647
0.119569
0.1456
0.188361
0.248619
0.32392
0.408005
0.491724
0.566232
0.625121
0.66533
0.685184
0.685334
0.668418
0.63807
0.12297
0.133802
0.16019
0.203136
0.262294
0.334488
0.413689
0.489395
0.555297
0.606821
0.640797
0.656194
0.65401
0.636899
0.608323
0.140589
0.149835
0.174113
0.214983
0.271032
0.338336
0.410808
0.479346
0.538087
0.583206
0.612162
0.624367
0.621085
0.604911
0.579
0.168767
0.174254
0.192256
0.227251
0.277647
0.339154
0.402573
0.46291
0.51471
0.554222
0.579342
0.589706
0.586636
0.572579
0.550225
0.223506
0.221435
0.225878
0.247974
0.287041
0.338241
0.392221
0.443045
0.487189
0.521048
0.542867
0.552291
0.550537
0.53981
0.521967
0.334323
0.321412
0.300582
0.297719
0.314599
0.346343
0.387975
0.42818
0.463562
0.490986
0.509219
0.518334
0.518453
0.51121
0.498879
0.514082
0.491917
0.444979
0.411361
0.396052
0.397577
0.412991
0.435371
0.460514
0.482221
0.497175
0.503587
0.50491
0.502019
0.493674
0.742842
0.716684
0.651574
0.5919
0.54786
0.520042
0.505295
0.499768
0.501661
0.507024
0.512313
0.515315
0.515662
0.513437
0.508893
0.972913
0.948534
0.879263
0.807345
0.74503
0.695566
0.658519
0.631982
0.613681
0.601053
0.591656
0.583998
0.577551
0.571683
0.565883
1.15327
1.13377
1.07165
1.00205
0.936164
0.878134
0.829118
0.788781
0.756052
0.729533
0.707808
0.689684
0.67425
0.660787
0.648752
1.24477
1.23097
1.18278
1.12565
1.06774
1.01333
0.963989
0.920068
0.881414
0.847639
0.818145
0.792261
0.769332
0.748755
0.729987
1.25053
1.2401
1.20261
1.15764
1.1132
1.06887
1.02646
0.986881
0.950409
0.916796
0.88585
0.857313
0.830856
0.806088
0.782546
1.20261
1.19602
1.17025
1.13742
1.10169
1.06487
1.02833
0.993203
0.959914
0.928424
0.898665
0.870509
0.843751
0.818093
0.793123
1.09356
1.08953
1.07296
1.05145
1.02808
1.00376
0.978648
0.953036
0.927254
0.901629
0.876274
0.851212
0.826376
0.801571
0.776432
0.95801
0.955675
0.945254
0.931157
0.915329
0.898443
0.880733
0.862324
0.843315
0.823789
0.803783
0.783281
0.762199
0.740341
0.717357
0.815678
0.814422
0.808116
0.799107
0.788738
0.777446
0.765352
0.752482
0.738831
0.72439
0.709131
0.692995
0.675869
0.657548
0.637691
0.679678
0.679083
0.675463
0.66986
0.663234
0.655861
0.647786
0.638974
0.629372
0.618923
0.60756
0.595195
0.581696
0.566854
0.550347
0.557135
0.556937
0.554981
0.551597
0.547462
0.542752
0.537463
0.531535
0.524891
0.517452
0.509134
0.499835
0.489414
0.477674
0.464319
0.450902
0.450927
0.449971
0.448015
0.445516
0.442586
0.439198
0.435279
0.430749
0.425525
0.419516
0.412619
0.404699
0.395574
0.384983
0.361296
0.36144
0.361048
0.359982
0.358552
0.356799
0.354691
0.352157
0.34912
0.3455
0.341211
0.336155
0.330211
0.323215
0.314945
0.287233
0.287442
0.287343
0.286791
0.286043
0.285057
0.283803
0.282215
0.280224
0.277755
0.274733
0.271069
0.266657
0.261356
0.254978
0.226816
0.227044
0.227112
0.22689
0.226564
0.226071
0.225379
0.224434
0.223171
0.221526
0.219431
0.216811
0.213574
0.209602
0.204737
0.178078
0.178306
0.178471
0.178407
0.17829
0.178132
0.177818
0.177315
0.176569
0.175517
0.174103
0.172263
0.16992
0.166978
0.163306
0.139091
0.139306
0.139531
0.1396
0.139616
0.139558
0.139446
0.139269
0.138887
0.138262
0.137347
0.136089
0.134425
0.132276
0.129534
0.108113
0.108309
0.108557
0.108702
0.108812
0.108875
0.108862
0.108788
0.108656
0.108339
0.107787
0.106963
0.10581
0.104266
0.102244
0.0836359
0.0838112
0.0840641
0.0842525
0.0844237
0.0845667
0.0846536
0.0846557
0.0845926
0.0844744
0.0841865
0.0836738
0.0829007
0.081813
0.0803417
0.0643813
0.0645352
0.0647816
0.0649915
0.0651961
0.0653842
0.0655326
0.0656151
0.0656113
0.0655526
0.0654284
0.0651357
0.0646474
0.0639044
0.062853
0.0492962
0.0494288
0.0496626
0.0498797
0.0500999
0.0503119
0.0504963
0.0506327
0.0507013
0.0506875
0.0506175
0.0504791
0.0501805
0.0496917
0.0489543
0.0375225
0.0376347
0.037852
0.038067
0.0382898
0.0385091
0.0387085
0.0388697
0.0389735
0.0389969
0.0389644
0.0389077
0.0387594
0.0384516
0.0379499
0.0283618
0.0284619
0.0286626
0.0288697
0.0290867
0.0293033
0.0295057
0.0296794
0.0298102
0.0298837
0.0298916
0.0298627
0.0297882
0.0296002
0.0292695
0.0212737
0.0213638
0.0215472
0.0217418
0.021947
0.0221535
0.0223501
0.0225256
0.0226691
0.0227702
0.0228192
0.0228088
0.022757
0.0226577
0.0224476
0.0158242
0.0159041
0.0160688
0.0162472
0.0164361
0.0166269
0.0168107
0.0169785
0.0171216
0.017231
0.0172974
0.0173093
0.0172913
0.0172413
0.0171108
0.0116663
0.0117356
0.0118806
0.0120403
0.0122096
0.0123812
0.0125478
0.0127025
0.0128386
0.0129493
0.013028
0.0130673
0.0130627
0.0130278
0.0129565
0.00852204
0.0085806
0.00870482
0.00884369
0.00899127
0.00914134
0.00928808
0.00942606
0.00955009
0.00965496
0.00973508
0.00978395
0.00979327
0.0097799
0.00974199
0.00617348
0.0062212
0.00632449
0.0064415
0.00656639
0.00669383
0.00681931
0.00693864
0.00704791
0.00714324
0.00722052
0.00727534
0.00730259
0.00729907
0.00727394
0.00444361
0.00448027
0.00456182
0.00465606
0.00475756
0.00486208
0.0049659
0.00506588
0.00515896
0.00524223
0.00531256
0.00536642
0.00539946
0.00540553
0.00539402
0.00319777
0.00322406
0.00328486
0.0033568
0.00343554
0.00351774
0.00360047
0.00368127
0.00375775
0.00382768
0.0038886
0.00393766
0.00397105
0.00398302
0.0039773
0.00232554
0.00234269
0.00238473
0.0024359
0.0024933
0.00255449
0.00261729
0.00267979
0.00274013
0.00279652
0.00284703
0.00288955
0.00292142
0.00293949
0.00294083
0.00173186
0.00174175
0.00176859
0.00180254
0.00184175
0.00188474
0.00192989
0.00197576
0.00202078
0.00206362
0.00210273
0.00213635
0.00216249
0.00217864
0.00218199
0.00131581
0.0013207
0.00133766
0.00135933
0.00138488
0.00141338
0.00144384
0.0014752
0.00150631
0.00153583
0.00156238
0.00158442
0.00160015
0.00160756
0.00160621
0.000981935
0.00098455
0.000996147
0.00101071
0.00102767
0.00104631
0.00106571
0.00108486
0.00110319
0.0011198
0.00113359
0.00114334
0.00114767
0.00114602
0.00113765
0.000733741
0.00073439
0.000740022
0.000746973
0.000755064
0.000763957
0.0007732
0.000782258
0.000790565
0.000797486
0.000802334
0.000804377
0.000803239
0.000798588
0.00078916
0.000581898
0.000581742
0.000583634
0.000585928
0.000588696
0.000591826
0.000595123
0.00059832
0.000601125
0.000603211
0.000604238
0.000603995
0.000602343
0.000598737
0.000592862
0.000497056
0.000496703
0.000496827
0.000497
0.000497399
0.000498017
0.000498787
0.000499621
0.000500326
0.00050076
0.000500804
0.000500399
0.000499337
0.000497408
0.00049449
0.000449484
0.00044914
0.000448594
0.000448
0.000447565
0.000447325
0.000447253
0.000447291
0.000447378
0.000447459
0.000447432
0.000447222
0.000446786
0.000446018
0.000444813
0.000420838
0.000420549
0.000419811
0.000419018
0.00041837
0.000417915
0.000417645
0.000417529
0.000417534
0.000417623
0.000417733
0.000417815
0.000417819
0.000417694
0.000417382
0.000401856
0.000401628
0.000400894
0.000400122
0.000399492
0.000399053
0.000398805
0.000398728
0.000398797
0.000398982
0.000399242
0.000399543
0.000399849
0.000400125
0.000400329
0.000388099
0.000387925
0.000387264
0.000386586
0.000386049
0.000385698
0.000385535
0.000385547
0.000385712
0.000386005
0.000386397
0.000386862
0.000387372
0.0003879
0.000388413
0.0003775
0.000377373
0.000376802
0.000376234
0.000375807
0.00037556
0.000375495
0.000375601
0.000375859
0.00037625
0.000376752
0.000377344
0.000378002
0.000378705
0.000379428
0.000369038
0.00036895
0.000368469
0.000368008
0.000367687
0.000367539
0.000367565
0.000367757
0.000368099
0.000368576
0.000369169
0.000369861
0.000370634
0.00037147
0.000372348
0.000362161
0.000362106
0.000361706
0.000361342
0.000361114
0.000361054
0.000361161
0.000361429
0.000361844
0.000362394
0.000363063
0.000363837
0.000364703
0.000365644
0.000366645
0.000356525
0.000356499
0.000356171
0.000355892
0.000355748
0.000355764
0.000355941
0.000356274
0.000356752
0.000357363
0.000358096
0.000358939
0.00035988
0.000360908
0.000362008
0.000351887
0.000351885
0.000351619
0.000351413
0.00035134
0.000351422
0.000351659
0.000352048
0.000352578
0.000353242
0.000354028
0.000354928
0.000355932
0.000357031
0.000358214
0.000348066
0.000348085
0.000347873
0.000347729
0.000347718
0.000347855
0.000348144
0.00034858
0.000349155
0.000349862
0.000350693
0.000351641
0.000352697
0.000353855
0.000355106
0.000344913
0.000344949
0.000344783
0.000344693
0.000344734
0.000344919
0.000345252
0.000345728
0.000346341
0.000347086
0.000347954
0.000348941
0.000350041
0.000351248
0.000352556
0.000342309
0.00034236
0.000342234
0.00034219
0.000342274
0.000342501
0.000342871
0.000343382
0.000344027
0.000344803
0.000345703
0.000346723
0.000347859
0.000349107
0.000350461
0.000340155
0.000340219
0.000340126
0.000340122
0.000340244
0.000340506
0.000340908
0.000341448
0.000342121
0.000342923
0.000343849
0.000344897
0.000346064
0.000347345
0.000348738
0.000338371
0.000338446
0.000338382
0.000338411
0.000338566
0.000338858
0.000339288
0.000339852
0.000340548
0.000341372
0.000342321
0.000343393
0.000344584
0.000345893
0.000347319
0.000336894
0.000336978
0.00033694
0.000336997
0.00033718
0.000337498
0.000337951
0.000338536
0.000339252
0.000340095
0.000341063
0.000342154
0.000343367
0.0003447
0.000346152
0.000335669
0.000335761
0.000335743
0.000335826
0.000336033
0.000336373
0.000336845
0.000337448
0.000338181
0.00033904
0.000340024
0.000341132
0.000342363
0.000343716
0.00034519
0.000334655
0.000334754
0.000334755
0.000334858
0.000335086
0.000335445
0.000335934
0.000336553
0.0003373
0.000338173
0.000339171
0.000340293
0.000341539
0.000342909
0.000344402
0.000333816
0.00033392
0.000333936
0.000334058
0.000334303
0.000334678
0.000335182
0.000335814
0.000336573
0.000337458
0.000338468
0.000339602
0.000340861
0.000342246
0.000343755
0.000333125
0.000333234
0.000333264
0.000333401
0.000333661
0.00033405
0.000334566
0.00033521
0.00033598
0.000336875
0.000337896
0.000339041
0.000340311
0.000341708
0.000343231
0.000332555
0.000332669
0.00033271
0.00033286
0.000333134
0.000333534
0.000334062
0.000334715
0.000335495
0.000336399
0.000337429
0.000338583
0.000339863
0.000341271
0.000342806
0.000332091
0.000332208
0.000332259
0.000332421
0.000332706
0.000333117
0.000333654
0.000334317
0.000335105
0.000336018
0.000337055
0.000338218
0.000339508
0.000340925
0.000342471
0.000331711
0.000331832
0.000331891
0.000332063
0.000332358
0.000332778
0.000333324
0.000333995
0.00033479
0.00033571
0.000336756
0.000337926
0.000339224
0.00034065
0.000342205
0.000331404
0.000331527
0.000331594
0.000331774
0.000332077
0.000332505
0.000333058
0.000333736
0.000334538
0.000335465
0.000336517
0.000337694
0.000338999
0.000340432
0.000341997
0.000331154
0.000331279
0.000331352
0.00033154
0.00033185
0.000332284
0.000332843
0.000333527
0.000334334
0.000335266