/*--------------------------------*- C++ -*----------------------------------*\
  =========                 |
  \\      /  F ield         | OpenFOAM: The Open Source CFD Toolbox
   \\    /   O peration     | Website:  https://openfoam.org
    \\  /    A nd           | Version:  7
     \\/     M anipulation  |
\*---------------------------------------------------------------------------*/
FoamFile
{
    version     2.0;
    format      ascii;
    class       volScalarField;
    location    "100";
    object      k;
}
// * * * * * * * * * * * * * * * * * * * * * * * * * * * * * * * * * * * * * //

dimensions      [0 2 -2 0 0 0 0];

internalField   nonuniform List<scalar> 
32100
(
0.00579596
0.00579596
0.00579596
0.00579596
0.00579596
0.00579596
0.00579596
0.00579596
0.00579596
0.00579597
0.00579598
0.0057959
0.0058002
0.00584998
0.00590068
0.00578791
0.00578791
0.00578791
0.00578791
0.00578791
0.00578791
0.00578791
0.00578791
0.00578791
0.00578792
0.00578798
0.00579005
0.0058088
0.00595213
0.00616084
0.00577988
0.00577988
0.00577988
0.00577988
0.00577988
0.00577988
0.00577988
0.00577988
0.00577989
0.00577994
0.00578047
0.00578982
0.0058205
0.00600937
0.00642491
0.00577187
0.00577187
0.00577187
0.00577187
0.00577187
0.00577187
0.00577187
0.00577187
0.00577189
0.00577206
0.00577344
0.00579043
0.00583647
0.00604149
0.00669251
0.00576388
0.00576388
0.00576388
0.00576388
0.00576388
0.00576388
0.00576388
0.00576389
0.00576393
0.00576432
0.00576702
0.00579166
0.00585204
0.00605974
0.00696295
0.00575591
0.00575591
0.00575591
0.00575591
0.00575591
0.00575591
0.00575592
0.00575593
0.00575602
0.00575672
0.00576111
0.00579172
0.0058649
0.00607032
0.00723697
0.00574797
0.00574797
0.00574797
0.00574797
0.00574797
0.00574797
0.00574798
0.005748
0.00574815
0.00574927
0.00575561
0.0057913
0.0058736
0.00607717
0.00751399
0.00574005
0.00574005
0.00574005
0.00574005
0.00574005
0.00574005
0.00574006
0.0057401
0.00574033
0.00574196
0.00575041
0.00579019
0.00587913
0.0060819
0.00779333
0.00573215
0.00573215
0.00573215
0.00573215
0.00573215
0.00573216
0.00573217
0.00573224
0.00573258
0.00573477
0.00574537
0.00578801
0.00588037
0.00608523
0.00807547
0.00572428
0.00572428
0.00572428
0.00572428
0.00572428
0.00572429
0.00572431
0.0057244
0.00572489
0.00572771
0.00574036
0.00578501
0.00587945
0.00608755
0.00835959
0.00571643
0.00571643
0.00571643
0.00571643
0.00571643
0.00571644
0.00571647
0.0057166
0.00571727
0.00572074
0.00573532
0.00578133
0.00587693
0.0060893
0.0086461
0.00570861
0.00570861
0.00570861
0.00570861
0.00570861
0.00570862
0.00570866
0.00570883
0.00570971
0.00571387
0.00573019
0.00577696
0.00587212
0.00609069
0.00893409
0.00570081
0.00570081
0.00570081
0.00570081
0.00570081
0.00570083
0.00570088
0.0057011
0.00570221
0.00570707
0.00572493
0.00577197
0.00586599
0.006092
0.00922401
0.00569303
0.00569303
0.00569303
0.00569303
0.00569304
0.00569306
0.00569313
0.00569341
0.00569478
0.00570033
0.0057195
0.00576644
0.00585886
0.00609333
0.00951482
0.00568528
0.00568528
0.00568528
0.00568528
0.00568529
0.00568532
0.0056854
0.00568575
0.0056874
0.00569363
0.00571391
0.00576043
0.00585102
0.00609497
0.00980706
0.00567755
0.00567755
0.00567756
0.00567756
0.00567757
0.0056776
0.00567771
0.00567814
0.00568007
0.00568696
0.00570813
0.00575399
0.00584264
0.00609687
0.0100995
0.00566985
0.00566985
0.00566986
0.00566986
0.00566987
0.00566991
0.00567004
0.00567056
0.00567279
0.0056803
0.00570216
0.00574718
0.00583392
0.00609936
0.0103929
0.00566218
0.00566218
0.00566218
0.00566219
0.0056622
0.00566224
0.00566241
0.00566303
0.00566555
0.00567365
0.00569602
0.00574004
0.00582494
0.00610226
0.0106858
0.00565453
0.00565453
0.00565453
0.00565454
0.00565456
0.00565461
0.0056548
0.00565553
0.00565836
0.005667
0.00568969
0.00573261
0.00581583
0.00610598
0.0109791
0.0056469
0.0056469
0.0056469
0.00564691
0.00564694
0.005647
0.00564723
0.00564807
0.0056512
0.00566032
0.0056832
0.00572494
0.00580659
0.00611015
0.0112712
0.0056393
0.0056393
0.0056393
0.00563932
0.00563934
0.00563941
0.00563968
0.00564065
0.00564407
0.00565363
0.00567654
0.00571704
0.00579733
0.00611533
0.0115631
0.00563172
0.00563172
0.00563173
0.00563174
0.00563177
0.00563185
0.00563217
0.00563326
0.00563697
0.00564691
0.00566973
0.00570895
0.00578802
0.00612092
0.0118532
0.00562417
0.00562417
0.00562418
0.00562419
0.00562422
0.00562432
0.00562469
0.00562591
0.0056299
0.00564015
0.00566276
0.00570069
0.00577873
0.00612769
0.0121425
0.00561664
0.00561664
0.00561665
0.00561666
0.0056167
0.00561682
0.00561723
0.00561859
0.00562284
0.00563335
0.00565566
0.00569228
0.00576941
0.00613476
0.0124293
0.00560914
0.00560914
0.00560914
0.00560916
0.00560921
0.00560934
0.00560981
0.00561131
0.0056158
0.00562651
0.00564843
0.00568372
0.00576013
0.00614318
0.0127147
0.00560166
0.00560166
0.00560166
0.00560168
0.00560173
0.00560188
0.00560241
0.00560405
0.00560877
0.00561963
0.00564107
0.00567504
0.0057508
0.00615174
0.012997
0.0055942
0.0055942
0.00559421
0.00559423
0.00559429
0.00559446
0.00559505
0.00559682
0.00560174
0.0056127
0.00563359
0.00566624
0.00574152
0.00616181
0.0132773
0.00558677
0.00558677
0.00558677
0.0055868
0.00558686
0.00558706
0.00558771
0.00558962
0.00559473
0.00560571
0.005626
0.00565733
0.00573216
0.00617183
0.013554
0.00557936
0.00557936
0.00557936
0.00557939
0.00557946
0.00557969
0.0055804
0.00558244
0.00558771
0.00559868
0.00561831
0.00564832
0.00572285
0.00618349
0.0138282
0.00557197
0.00557197
0.00557198
0.00557201
0.00557209
0.00557234
0.00557312
0.00557528
0.0055807
0.0055916
0.00561051
0.00563921
0.00571342
0.00619491
0.014098
0.00556461
0.00556461
0.00556462
0.00556465
0.00556474
0.00556502
0.00556586
0.00556815
0.00557368
0.00558446
0.00560262
0.00563001
0.00570404
0.00620809
0.014365
0.00555726
0.00555727
0.00555728
0.00555731
0.00555741
0.00555772
0.00555863
0.00556103
0.00556665
0.00557728
0.00559464
0.00562071
0.00569448
0.00622082
0.0146272
0.00554995
0.00554995
0.00554996
0.00555
0.00555011
0.00555045
0.00555143
0.00555393
0.00555962
0.00557004
0.00558657
0.00561133
0.00568497
0.00623545
0.014886
0.00554265
0.00554265
0.00554266
0.00554271
0.00554283
0.0055432
0.00554425
0.00554685
0.00555258
0.00556275
0.00557842
0.00560185
0.00567524
0.00624937
0.0151395
0.00553538
0.00553538
0.00553539
0.00553544
0.00553558
0.00553598
0.00553709
0.00553979
0.00554552
0.00555541
0.00557019
0.00559229
0.00566556
0.00626536
0.0153893
0.00552812
0.00552813
0.00552814
0.0055282
0.00552835
0.00552878
0.00552996
0.00553273
0.00553846
0.00554801
0.00556187
0.00558264
0.00565562
0.00628037
0.0156333
0.00552089
0.0055209
0.00552091
0.00552097
0.00552114
0.00552161
0.00552284
0.00552569
0.00553138
0.00554057
0.00555349
0.00557291
0.00564572
0.00629763
0.0158733
0.00551369
0.00551369
0.00551371
0.00551377
0.00551396
0.00551446
0.00551575
0.00551865
0.00552428
0.00553307
0.00554502
0.00556307
0.00563552
0.0063136
0.0161072
0.0055065
0.0055065
0.00550652
0.0055066
0.0055068
0.00550733
0.00550868
0.00551163
0.00551716
0.00552553
0.00553649
0.00555317
0.00562536
0.00633206
0.0163368
0.00549934
0.00549934
0.00549936
0.00549944
0.00549966
0.00550023
0.00550163
0.00550461
0.00551003
0.00551794
0.00552789
0.00554315
0.00561486
0.00634886
0.01656
0.00549219
0.0054922
0.00549222
0.00549231
0.00549254
0.00549315
0.0054946
0.00549759
0.00550288
0.0055103
0.00551921
0.00553306
0.00560441
0.00636844
0.0167785
0.00548507
0.00548508
0.00548511
0.0054852
0.00548545
0.00548609
0.00548758
0.00549058
0.00549571
0.00550261
0.00551047
0.00552286
0.00559359
0.00638594
0.0169905
0.00547797
0.00547798
0.00547801
0.00547811
0.00547838
0.00547905
0.00548058
0.00548358
0.00548852
0.00549488
0.00550166
0.00551259
0.00558283
0.00640658
0.0171977
0.00547089
0.0054709
0.00547094
0.00547105
0.00547133
0.00547204
0.0054736
0.00547657
0.00548131
0.00548709
0.00549278
0.00550219
0.00557163
0.00642466
0.0173981
0.00546384
0.00546385
0.00546388
0.005464
0.00546431
0.00546504
0.00546663
0.00546957
0.00547407
0.00547926
0.00548385
0.00549174
0.00556055
0.0064463
0.0175936
0.0054568
0.00545681
0.00545685
0.00545698
0.0054573
0.00545806
0.00545967
0.00546256
0.00546682
0.00547139
0.00547484
0.00548114
0.00554896
0.00646487
0.0177823
0.00544978
0.00544979
0.00544984
0.00544998
0.00545032
0.0054511
0.00545273
0.00545555
0.00545954
0.00546347
0.00546577
0.00547049
0.00553756
0.00648746
0.0179659
0.00544279
0.0054428
0.00544285
0.005443
0.00544336
0.00544417
0.00544579
0.00544855
0.00545224
0.00545551
0.00545663
0.00545969
0.00552556
0.00650641
0.0181426
0.00543581
0.00543583
0.00543588
0.00543604
0.00543641
0.00543725
0.00543887
0.00544153
0.00544491
0.0054475
0.00544744
0.00544885
0.00551382
0.0065299
0.0183143
0.00542886
0.00542888
0.00542893
0.0054291
0.00542949
0.00543034
0.00543196
0.00543452
0.00543757
0.00543944
0.00543817
0.00543784
0.00550143
0.00654916
0.018479
0.00542193
0.00542194
0.005422
0.00542218
0.00542259
0.00542346
0.00542506
0.0054275
0.00543019
0.00543135
0.00542885
0.0054268
0.00548933
0.00657353
0.0186388
0.00541501
0.00541503
0.0054151
0.00541528
0.00541571
0.00541659
0.00541817
0.00542047
0.0054228
0.00542321
0.00541946
0.00541559
0.00547655
0.00659301
0.0187915
0.00540812
0.00540814
0.00540821
0.00540841
0.00540885
0.00540973
0.00541129
0.00541344
0.00541538
0.00541503
0.00541001
0.00540435
0.0054641
0.00661824
0.0189395
0.00540125
0.00540127
0.00540134
0.00540155
0.005402
0.0054029
0.00540441
0.0054064
0.00540793
0.0054068
0.00540049
0.00539293
0.00545093
0.00663787
0.0190804
0.00539439
0.00539441
0.0053945
0.00539471
0.00539518
0.00539607
0.00539754
0.00539936
0.00540046
0.00539854
0.00539092
0.0053815
0.00543815
0.00666396
0.0192168
0.00538756
0.00538759
0.00538767
0.0053879
0.00538837
0.00538926
0.00539067
0.0053923
0.00539297
0.00539023
0.00538127
0.00536987
0.00542459
0.0066837
0.0193461
0.00538074
0.00538077
0.00538086
0.00538109
0.00538158
0.00538247
0.00538381
0.00538524
0.00538545
0.00538189
0.00537159
0.00535825
0.00541153
0.00671065
0.0194711
0.00537396
0.00537399
0.00537408
0.00537432
0.00537481
0.00537569
0.00537696
0.00537817
0.0053779
0.00537349
0.00536181
0.0053464
0.00539756
0.00673043
0.019589
0.00536717
0.0053672
0.0053673
0.00536755
0.00536805
0.00536891
0.00537011
0.00537109
0.00537034
0.00536507
0.005352
0.0053346
0.00538426
0.00675828
0.0197031
0.00536043
0.00536046
0.00536057
0.00536082
0.00536132
0.00536216
0.00536326
0.005364
0.00536274
0.00535659
0.0053421
0.00532252
0.00536992
0.00677805
0.0198099
0.00535367
0.0053537
0.00535382
0.00535408
0.00535459
0.00535541
0.00535641
0.0053569
0.00535513
0.00534809
0.00533218
0.00531056
0.00535636
0.00680683
0.0199133
0.00534698
0.00534702
0.00534713
0.0053474
0.0053479
0.00534868
0.00534957
0.00534978
0.00534749
0.00533953
0.00532215
0.00529827
0.00534174
0.00682657
0.0200095
0.00534024
0.00534028
0.0053404
0.00534068
0.00534119
0.00534195
0.00534273
0.00534267
0.00533983
0.00533095
0.00531212
0.00528612
0.00532788
0.00685632
0.0201027
0.00533361
0.00533365
0.00533378
0.00533405
0.00533454
0.00533524
0.00533588
0.00533553
0.00533213
0.0053223
0.00530196
0.00527364
0.00531307
0.00687599
0.0201887
0.00532686
0.00532691
0.00532704
0.00532734
0.00532783
0.00532852
0.00532905
0.0053284
0.00532443
0.00531365
0.00529182
0.0052613
0.00529892
0.00690681
0.020272
0.00532029
0.00532033
0.00532048
0.00532076
0.00532123
0.00532183
0.00532219
0.00532122
0.00531667
0.00530493
0.00528155
0.00524867
0.00528395
0.00692638
0.0203483
0.00531354
0.00531361
0.00531373
0.00531403
0.00531452
0.00531513
0.00531537
0.00531408
0.00530892
0.00529621
0.00527129
0.00523608
0.00526955
0.00695836
0.0204221
0.00530692
0.00530696
0.00530721
0.00530752
0.00530796
0.00530843
0.00530848
0.00530687
0.00530111
0.00528739
0.00526091
0.00522337
0.00525447
0.00697786
0.0204892
0.00530022
0.00530034
0.00530037
0.0053007
0.0053012
0.00530174
0.00530168
0.0052997
0.00529332
0.00527861
0.00525053
0.00521047
0.00523985
0.00701113
0.0205541
0.0052934
0.00529343
0.00529387
0.00529425
0.0052947
0.005295
0.00529473
0.00529243
0.00528544
0.0052697
0.00524006
0.00519776
0.00522468
0.00703065
0.0206124
0.00528645
0.00528673
0.00528677
0.0052872
0.00528777
0.00528831
0.00528793
0.00528525
0.00527761
0.00526083
0.0052295
0.00518445
0.00520991
0.00706542
0.0206689
0.00527993
0.00527977
0.00528021
0.00528072
0.00528127
0.00528144
0.00528085
0.00527787
0.00526962
0.00525184
0.00521897
0.00517179
0.00519459
0.00708512
0.0207189
0.0052717
0.00527218
0.0052724
0.0052732
0.00527397
0.00527461
0.00527403
0.00527065
0.00526171
0.00524281
0.00520812
0.00515797
0.00517965
0.00712172
0.0207679
0.00526518
0.00526545
0.00526584
0.00526666
0.00526741
0.00526767
0.00526676
0.00526313
0.00525362
0.00523377
0.00519759
0.0051453
0.00516422
0.00714197
0.0208096
0.00525668
0.0052566
0.00525709
0.00525835
0.00525953
0.00526034
0.0052597
0.0052557
0.00524546
0.00522439
0.00518624
0.00513089
0.00514902
0.00718089
0.0208521
0.00524718
0.00524777
0.00525096
0.00525202
0.00525229
0.005253
0.00525214
0.00524801
0.00523731
0.00521538
0.00517576
0.00511807
0.0051334
0.00720255
0.0208852
0.00524456
0.00524302
0.00524174
0.00524304
0.00524412
0.00524507
0.00524457
0.00524014
0.0052286
0.00520535
0.00516364
0.00510294
0.00511794
0.00724458
0.0209222
0.00523554
0.00523722
0.00523643
0.00523702
0.00523691
0.00523812
0.00523704
0.00523252
0.00522062
0.00519649
0.0051532
0.0050898
0.00510216
0.00726905
0.0209485
0.00523296
0.00523295
0.00522666
0.00522881
0.00523061
0.00523062
0.00522876
0.00522383
0.00521101
0.00518552
0.00514021
0.00507413
0.00508658
0.00731783
0.0209783
0.00523356
0.00522761
0.00522206
0.00522223
0.005224
0.00522366
0.00522178
0.00521687
0.00520362
0.00517706
0.00512973
0.00506007
0.00507038
0.00734203
0.0209829
0.00521606
0.00521381
0.005212
0.00520688
0.00520552
0.00520321
0.00519898
0.00519053
0.00517396
0.00514394
0.00509277
0.00501915
0.00503023
0.00752113
0.0260881
0.0051884
0.00518996
0.00519215
0.00518301
0.00517485
0.00517068
0.00516665
0.00515885
0.0051402
0.00510426
0.00504112
0.0049466
0.0049514
0.00841106
0.0436557
0.00517188
0.00517222
0.00516443
0.00515762
0.00514947
0.00514216
0.00513238
0.00511636
0.0050907
0.00504818
0.00498036
0.00488333
0.00493922
0.00964361
0.0501022
0.00515263
0.00515143
0.00514192
0.00513603
0.00512361
0.00510989
0.00509342
0.00507883
0.00505199
0.0050051
0.00492359
0.00480805
0.00497806
0.0123391
0.0626101
0.00513102
0.00513253
0.00512661
0.0051138
0.00509682
0.00507876
0.00505862
0.00502907
0.00499823
0.00494656
0.00486481
0.00476326
0.00514854
0.0157291
0.070311
0.00509851
0.00510252
0.00509332
0.00508237
0.00506594
0.0050442
0.00501798
0.00500132
0.00496116
0.00490064
0.00480456
0.0047017
0.00546994
0.02105
0.0769056
0.00507553
0.00507453
0.00506762
0.00502767
0.00500663
0.00498349
0.00495656
0.00492982
0.00490128
0.00484877
0.00475573
0.00470478
0.00614826
0.0272376
0.0800664
0.00503657
0.00504675
0.00501243
0.00500277
0.00499515
0.00498008
0.00495311
0.00491394
0.00483693
0.00477092
0.00469656
0.00473051
0.00735441
0.0339179
0.0816371
0.00499836
0.00499456
0.0049998
0.00501654
0.00501223
0.00499464
0.00496485
0.00491595
0.00483811
0.00474794
0.00464296
0.00481737
0.00917431
0.0409716
0.0821016
0.00499884
0.00498511
0.00501406
0.00504023
0.00503919
0.00501907
0.00498441
0.00492691
0.00483438
0.00469656
0.00462885
0.00500615
0.01192
0.0475377
0.082096
0.00498039
0.00500414
0.0050493
0.0050768
0.00507607
0.00505318
0.00501308
0.00494882
0.00485058
0.00471705
0.004645
0.0053706
0.0154645
0.0532885
0.0821123
0.00501045
0.00504873
0.00510202
0.0051306
0.00512769
0.00510002
0.00505254
0.00497979
0.00487427
0.00474436
0.00471208
0.00605669
0.0199496
0.0578374
0.0821803
0.00507389
0.00511193
0.00516706
0.00519665
0.00519116
0.00515787
0.00510242
0.00502186
0.00491264
0.00479594
0.0048654
0.00712691
0.0248397
0.0614499
0.082327
0.00515503
0.00519179
0.00524491
0.00527377
0.00526587
0.00522713
0.00516349
0.00507423
0.00496016
0.00485943
0.00508507
0.00872206
0.0302087
0.0642242
0.082546
0.0052484
0.00528234
0.00533176
0.00535846
0.00534826
0.00530489
0.00523426
0.00513854
0.00502629
0.00496523
0.00546609
0.0109883
0.0354873
0.0662716
0.082698
0.00535644
0.00538555
0.00542884
0.00545189
0.00543923
0.00539191
0.00531516
0.00521375
0.00510569
0.00510065
0.00600908
0.0138982
0.0404386
0.068011
0.0828229
0.00547617
0.00549985
0.00553555
0.00555371
0.00553828
0.00548779
0.00540675
0.00530371
0.00521164
0.00530844
0.00686058
0.0174618
0.0448576
0.0695582
0.0829636
0.00560739
0.00562569
0.00565321
0.00566536
0.00564629
0.00559246
0.00550781
0.0054055
0.0053385
0.00558411
0.00803801
0.0214287
0.0487498
0.0709449
0.0830844
0.00574997
0.00576311
0.00578238
0.00578786
0.00576466
0.005708
0.00562225
0.00552771
0.00550762
0.00599055
0.00968916
0.0257065
0.0520789
0.072202
0.0832342
0.00590478
0.00591291
0.00592377
0.00592157
0.00589288
0.0058326
0.00574667
0.00566547
0.00571454
0.006542
0.0118234
0.0300383
0.0549691
0.0733422
0.0834348
0.00607191
0.00607527
0.00607783
0.00606752
0.00603289
0.00596984
0.00588792
0.00583267
0.00599213
0.0073295
0.0144896
0.0342526
0.0575564
0.0744027
0.0836801
0.00625048
0.00624936
0.00624386
0.00622508
0.00618386
0.00611818
0.00604345
0.00602713
0.00634725
0.00839087
0.0175853
0.0382328
0.0599012
0.0753916
0.0839535
0.00643968
0.00643443
0.0064213
0.00639422
0.00634673
0.00628053
0.00622068
0.00626664
0.00682541
0.00980963
0.0210341
0.0419408
0.0620807
0.0763407
0.0842617
0.00663774
0.00662886
0.00660896
0.00657449
0.00652209
0.00645877
0.00642326
0.00655942
0.00745429
0.0116266
0.0247225
0.0453595
0.0641015
0.0772653
0.084603
0.00684357
0.0068315
0.00680561
0.00676478
0.00670931
0.00665367
0.00665621
0.00692475
0.00829268
0.0138756
0.0284994
0.0485218
0.06598
0.0781659
0.0849755
0.00705537
0.00704077
0.0070103
0.00696535
0.00691087
0.00687163
0.00693339
0.00739303
0.00939442
0.0165245
0.0322712
0.0514741
0.0677449
0.0790428
0.0853668
0.00727216
0.00725557
0.0072218
0.00717513
0.00712638
0.0071141
0.00726106
0.00798514
0.0107985
0.019513
0.0359322
0.0542336
0.0694013
0.0798879
0.0857603
0.00749312
0.00747543
0.00744047
0.00739594
0.0073603
0.00739059
0.00766097
0.00875088
0.0125655
0.0227828
0.0394675
0.056843
0.0709853
0.080724
0.0861705
0.0077172
0.00769916
0.00766504
0.00762698
0.00761376
0.00770736
0.00815105
0.00972599
0.0146903
0.0262088
0.0428351
0.059284
0.0724736
0.0815179
0.086559
0.00794624
0.00792928
0.00789951
0.00787471
0.00789689
0.00808094
0.00876078
0.0109567
0.01717
0.0297243
0.0460583
0.0615805
0.0738635
0.0822391
0.0868662
0.00817826
0.00816348
0.0081412
0.0081367
0.00820983
0.0085197
0.00951727
0.0124801
0.0199581
0.0332221
0.0490944
0.0637031
0.0751311
0.0828692
0.08709
0.00841885
0.00840866
0.00839993
0.0084276
0.00857469
0.00905719
0.0104681
0.0143235
0.0229879
0.0366582
0.0519611
0.0656777
0.0762897
0.0834302
0.087277
0.0086652
0.00866152
0.00867171
0.00874341
0.00898993
0.00969996
0.0116299
0.0164721
0.0261711
0.0399888
0.0546432
0.0674876
0.0773219
0.0838812
0.0873389
0.00892658
0.00893336
0.00897241
0.00910752
0.00949032
0.0104984
0.0130583
0.0189254
0.0294419
0.0431829
0.0571311
0.0691309
0.0782344
0.0842469
0.087348
0.00920078
0.00922147
0.0092987
0.00951696
0.0100763
0.0114586
0.0147452
0.0216086
0.0327099
0.0462066
0.0594296
0.0706268
0.0790455
0.0845474
0.0873162
0.00950104
0.00954195
0.00967302
0.0100041
0.0107934
0.0126353
0.0167204
0.0244851
0.0359414
0.0490632
0.061547
0.0719681
0.0797285
0.084738
0.0871837
0.00982781
0.0098945
0.0100939
0.0105675
0.0116417
0.0140231
0.0189367
0.0274605
0.0390642
0.0517168
0.0634608
0.0731341
0.0802584
0.0847776
0.0869065
0.0101972
0.0102993
0.0105908
0.0112496
0.0126757
0.0156671
0.0213879
0.0304936
0.0420653
0.0541821
0.0651938
0.0741527
0.0806814
0.084753
0.0865588
0.0106189
0.0107648
0.0111688
0.0120505
0.0138849
0.0175273
0.0239901
0.0335037
0.0449086
0.0564519
0.06675
0.07503
0.0809975
0.0846509
0.0861471
0.0111064
0.0113092
0.0118569
0.0130136
0.0153196
0.0196323
0.026734
0.0364775
0.0475955
0.058532
0.0681334
0.0757681
0.0812
0.0844455
0.0856694
0.011686
0.0119572
0.0126748
0.0141457
0.0169564
0.0219089
0.0295166
0.0393368
0.0500895
0.0604152
0.0693507
0.0763781
0.0813109
0.0841807
0.0851535
0.0123683
0.0127231
0.0136444
0.015476
0.0188205
0.0243641
0.032342
0.0421061
0.0524309
0.0621422
0.0704358
0.0768859
0.0813493
0.0838747
0.0846234
0.0131923
0.0136442
0.0147959
0.0170139
0.0208789
0.026921
0.0351266
0.0447285
0.0545904
0.0637026
0.0713914
0.0773064
0.0813398
0.0835496
0.0841017
0.0141723
0.0147349
0.0161421
0.018764
0.0231216
0.0295655
0.037877
0.0472358
0.0566113
0.065138
0.0722516
0.0776668
0.0813042
0.0832277
0.0836126
0.0153477
0.0160309
0.0177074
0.0207264
0.0255167
0.0322487
0.0405526
0.0496042
0.0584825
0.0664474
0.073024
0.0779754
0.0812485
0.0829218
0.083173
0.0167327
0.0175422
0.0194911
0.0228827
0.0280313
0.0349428
0.0431462
0.0518459
0.0602257
0.0676512
0.073722
0.0782443
0.0811885
0.0826455
0.0827992
0.0183451
0.0192793
0.0214879
0.0252047
0.0306193
0.0376006
0.0456205
0.0539319
0.0618172
0.0687315
0.0743334
0.0784661
0.0811198
0.0823978
0.0824909
0.0201819
0.0212278
0.0236634
0.0276387
0.0332229
0.0401807
0.0479614
0.055874
0.0632818
0.0697088
0.0748672
0.0786426
0.0810312
0.0821609
0.0822244
0.0221737
0.0233063
0.0259201
0.0300762
0.0357365
0.0425911
0.050086
0.057587
0.0645318
0.0705107
0.0752859
0.0786999
0.0808677
0.0818892
0.0819599
0.024284
0.0254547
0.0281668
0.0324042
0.0380412
0.0447262
0.0519287
0.0590562
0.0655805
0.0711284
0.0754444
0.0785958
0.0805717
0.0815271
0.0816477
0.0265135
0.0276327
0.0303138
0.0345091
0.0400164
0.0464479
0.0532868
0.0599992
0.0661461
0.0712241
0.0752603
0.0781733
0.0800374
0.0809974
0.0812274
0.0293321
0.0302185
0.0325752
0.0364783
0.0416719
0.0477312
0.054134
0.0603699
0.0660268
0.070808
0.0745914
0.0773778
0.0792287
0.0802747
0.0806806
0.0338511
0.0342418
0.0357537
0.0388718
0.0434057
0.0488918
0.0547869
0.0605604
0.0658394
0.0701981
0.0737303
0.0764037
0.078283
0.0794722
0.0801099
0.0419899
0.0416155
0.0416302
0.0432186
0.0463091
0.0506628
0.0557287
0.0609069
0.0656866
0.0697331
0.0730474
0.0756374
0.0775721
0.0789391
0.0798547
0.0558616
0.0546092
0.0525535
0.0518931
0.0527616
0.054884
0.0581123
0.0620054
0.0660272
0.0697373
0.0729087
0.0754746
0.0774831
0.079016
0.0801916
0.0763179
0.0744177
0.0704408
0.0673889
0.0658123
0.0656091
0.0664517
0.0680484
0.0702353
0.072671
0.0751099
0.0773755
0.0793977
0.0811866
0.0827847
0.101495
0.0993957
0.0943214
0.0895125
0.0858221
0.0834094
0.0821603
0.0818684
0.0823089
0.0832553
0.08438
0.0857068
0.0871213
0.0885538
0.0899335
0.127136
0.125249
0.12009
0.114633
0.109795
0.105889
0.102965
0.100947
0.0996997
0.0990665
0.0988909
0.0990613
0.099482
0.100087
0.10073
0.148502
0.147027
0.142493
0.137355
0.132415
0.128012
0.124275
0.121221
0.118801
0.116939
0.115542
0.114523
0.1138
0.113298
0.112947
0.1622
0.161083
0.157339
0.153036
0.148718
0.144624
0.140866
0.137493
0.134534
0.131975
0.129773
0.127879
0.126237
0.124791
0.123484
0.165461
0.164772
0.162286
0.15912
0.155763
0.152432
0.149235
0.146225
0.143397
0.140752
0.138279
0.13596
0.133764
0.131651
0.129572
0.162881
0.162436
0.160546
0.15808
0.155391
0.15264
0.149913
0.147252
0.144664
0.14215
0.13971
0.137332
0.134996
0.132669
0.130308
0.153281
0.153089
0.152
0.150535
0.148856
0.147021
0.145074
0.143044
0.140955
0.138815
0.136623
0.134375
0.132053
0.12963
0.127062
0.139635
0.13957
0.13894
0.138029
0.13695
0.135733
0.134381
0.132898
0.131296
0.129576
0.127737
0.125769
0.123657
0.121374
0.118878
0.124219
0.124232
0.123912
0.123394
0.122746
0.121978
0.121083
0.120046
0.118857
0.117519
0.116027
0.114372
0.112538
0.110497
0.108209
0.108624
0.108682
0.108556
0.108294
0.107936
0.107478
0.106905
0.106196
0.105334
0.104313
0.103128
0.10177
0.100222
0.0984571
0.0964378
0.0938013
0.0938832
0.0938692
0.0937647
0.0935971
0.0933458
0.0929924
0.0925154
0.0918923
0.0911186
0.0901881
0.0890895
0.0878058
0.0863123
0.0845739
0.0802562
0.0803485
0.080402
0.0803835
0.0803212
0.0802054
0.0800006
0.079681
0.0792302
0.0786451
0.0779178
0.0770367
0.0759851
0.0747401
0.0732696
0.0681882
0.0682825
0.0683715
0.0684083
0.0684033
0.0683545
0.0682452
0.0680326
0.0677078
0.0672666
0.0667009
0.065999
0.0651453
0.0641188
0.0628909
0.0576259
0.0577181
0.0578243
0.0578927
0.0579283
0.0579161
0.0578474
0.057707
0.0574726
0.0571403
0.0567016
0.0561455
0.0554574
0.0546185
0.0536033
0.0484866
0.0485735
0.0486841
0.0487656
0.0488191
0.0488283
0.0487864
0.048694
0.0485268
0.0482782
0.0479401
0.0475023
0.0469515
0.0462711
0.0454387
0.0406423
0.0407225
0.0408302
0.0409144
0.0409731
0.0409896
0.0409679
0.0409104
0.0407949
0.0406122
0.0403549
0.0400134
0.0395762
0.0390286
0.038351
0.0339492
0.0340222
0.0341235
0.0342052
0.0342633
0.0342815
0.034272
0.0342389
0.0341642
0.0340353
0.0338433
0.0335806
0.0332371
0.0328
0.0322524
0.028265
0.028331
0.0284249
0.0285022
0.0285572
0.0285837
0.0285828
0.0285616
0.0285169
0.0284283
0.0282885
0.0280895
0.0278228
0.0274771
0.0270379
0.0234523
0.0235117
0.0235977
0.0236691
0.0237192
0.0237491
0.0237569
0.023748
0.0237244
0.0236688
0.0235702
0.0234228
0.0232186
0.0229481
0.0225987
0.0193865
0.0194395
0.0195173
0.0195816
0.0196297
0.0196642
0.0196829
0.0196827
0.0196688
0.0196378
0.0195731
0.0194682
0.0193154
0.0191066
0.0188312
0.0159591
0.0160061
0.016076
0.0161331
0.0161805
0.016219
0.0162461
0.0162583
0.0162521
0.0162326
0.0161956
0.0161246
0.0160137
0.0158556
0.0156412
0.0130749
0.0131162
0.0131782
0.0132298
0.0132767
0.013318
0.0133507
0.013371
0.0133747
0.0133664
0.0133476
0.0133038
0.0132262
0.0131091
0.0129446
0.0106533
0.0106887
0.0107421
0.0107909
0.010838
0.0108817
0.0109191
0.010947
0.010962
0.0109615
0.0109507
0.0109268
0.0108761
0.0107928
0.010669
0.00862568
0.00865537
0.00870211
0.0087489
0.00879605
0.00884141
0.0088822
0.00891558
0.00893878
0.00894912
0.0089443
0.00892907
0.00889994
0.00884316
0.00875258
0.0069331
0.00695677
0.00700007
0.0070456
0.00709253
0.00713859
0.00718124
0.00721793
0.00724616
0.00726327
0.0072662
0.00725943
0.00724401
0.00720791
0.00714325
0.00552759
0.00554829
0.00558898
0.00563305
0.00567901
0.00572465
0.00576776
0.00580614
0.00583773
0.00586042
0.0058721
0.00587086
0.00586111
0.00583991
0.00579611
0.00437213
0.0043909
0.00442868
0.00447042
0.00451427
0.0045582
0.00460025
0.00463859
0.00467144
0.00469697
0.00471314
0.00471733
0.00471287
0.00470188
0.00467481
0.00343593
0.00345244
0.00348645
0.00352466
0.00356512
0.00360595
0.00364551
0.00368228
0.00371478
0.00374158
0.00376109
0.00377164
0.00377168
0.00376482
0.00374871
0.00269138
0.00270499
0.00273388
0.00276708
0.00280264
0.00283899
0.00287467
0.00290846
0.00293916
0.00296563
0.00298667
0.00300102
0.00300726
0.00300391
0.00299339
0.00211876
0.00212904
0.00215181
0.00217868
0.00220806
0.00223865
0.00226928
0.00229891
0.00232655
0.00235125
0.00237203
0.0023878
0.00239719
0.00239824
0.00239245
0.00170395
0.00171076
0.00172696
0.00174667
0.00176879
0.00179236
0.00181652
0.00184051
0.00186364
0.00188521
0.00190449
0.00192072
0.00193298
0.00194029
0.00194189
0.00143983
0.00144285
0.00145163
0.00146321
0.00147715
0.00149311
0.00151061
0.00152917
0.00154762
0.00156543
0.00158215
0.00159732
0.00161056
0.00162124
0.00162867
0.00132893
0.00132954
0.00133185
0.00133574
0.00134137
0.00134855
0.00135707
0.00136671
0.00137765
0.00138982
0.00140329
0.0014187
0.00143257
0.0014452
0.00145647
0.00132891
0.00132836
0.00132703
0.00132663
0.00132764
0.00133024
0.00133445
0.00134005
0.00134699
0.001355
0.0013635
0.00137143
0.00138097
0.00139133
0.00140197
0.00136773
0.00136689
0.00136386
0.00136113
0.0013593
0.00135859
0.00135905
0.0013608
0.00136379
0.00136791
0.00137305
0.00137909
0.00138605
0.00139374
0.00140151
0.00139387
0.00139317
0.00139026
0.00138735
0.00138502
0.00138347
0.0013828
0.001383
0.00138405
0.0013859
0.00138848
0.00139167
0.00139535
0.00139935
0.00140373
0.0013979
0.00139725
0.00139462
0.0013919
0.00138962
0.00138796
0.00138698
0.00138666
0.00138696
0.00138782
0.00138915
0.00139085
0.00139276
0.00139476
0.00139672
0.00138829
0.00138774
0.00138551
0.00138316
0.00138112
0.00137956
0.0013785
0.00137791
0.00137774
0.00137794
0.00137842
0.00137912
0.00137998
0.00138089
0.00138174
0.00137077
0.00137028
0.00136837
0.00136634
0.00136458
0.00136321
0.00136226
0.00136169
0.00136146
0.00136151
0.00136179
0.00136223
0.00136274
0.00136327
0.00136372
0.00135134
0.00135092
0.0013493
0.00134756
0.00134607
0.00134493
0.00134415
0.0013437
0.00134355
0.00134363
0.00134391
0.00134432
0.0013448
0.00134528
0.0013457
0.00133256
0.00133221
0.00133083
0.00132937
0.00132814
0.00132722
0.00132663
0.00132634
0.00132631
0.00132651
0.00132689
0.00132738
0.00132795
0.00132855
0.0013291
0.0013156
0.00131531
0.00131414
0.00131292
0.00131192
0.00131122
0.00131081
0.00131069
0.00131082
0.00131115
0.00131166
0.00131229
0.00131301
0.00131377
0.00131452
0.0013008
0.00130058
0.00129959
0.00129858
0.00129779
0.00129728
0.00129705
0.00129708
0.00129735
0.00129783
0.00129847
0.00129925
0.00130013
0.00130107
0.00130203
0.00128815
0.00128798
0.00128715
0.00128633
0.00128572
0.00128538
0.00128531
0.00128548
0.00128588
0.00128649
0.00128726
0.00128818
0.00128921
0.00129032
0.00129148
0.00127745
0.00127732
0.00127664
0.00127599
0.00127554
0.00127535
0.00127541
0.00127571
0.00127623
0.00127695
0.00127784
0.00127888
0.00128005
0.00128131
0.00128265
0.00126846
0.00126837
0.0012678
0.0012673
0.00126699
0.00126692
0.0012671
0.00126751
0.00126813
0.00126895
0.00126995
0.0012711
0.00127238
0.00127378
0.00127527
0.00126093
0.00126088
0.00126042
0.00126003
0.00125985
0.00125989
0.00126017
0.00126067
0.00126139
0.00126229
0.00126337
0.00126462
0.001266
0.00126752
0.00126914
0.00125465
0.00125462
0.00125425
0.00125397
0.00125389
0.00125403
0.00125439
0.00125498
0.00125576
0.00125674
0.0012579
0.00125923
0.0012607
0.00126231
0.00126404
0.0012494
0.0012494
0.00124911
0.00124892
0.00124892
0.00124914
0.00124958
0.00125024
0.00125109
0.00125213
0.00125336
0.00125475
0.00125629
0.00125799
0.00125981
0.00124502
0.00124504
0.00124481
0.0012447
0.00124478
0.00124507
0.00124558
0.00124629
0.0012472
0.0012483
0.00124957
0.00125102