/*--------------------------------*- C++ -*----------------------------------*\
  =========                 |
  \\      /  F ield         | OpenFOAM: The Open Source CFD Toolbox
   \\    /   O peration     | Website:  https://openfoam.org
    \\  /    A nd           | Version:  7
     \\/     M anipulation  |
\*---------------------------------------------------------------------------*/
FoamFile
{
    version     2.0;
    format      ascii;
    class       volScalarField;
    location    "100";
    object      nut;
}
// * * * * * * * * * * * * * * * * * * * * * * * * * * * * * * * * * * * * * //

dimensions      [0 2 -1 0 0 0 0];

internalField   nonuniform List<scalar> 
32100
(
0.000263484
0.000263484
0.000263484
0.000263484
0.000263484
0.000263484
0.000263484
0.000263484
0.000263484
0.000263484
0.000263488
0.00026351
0.000261889
0.000217324
1.421e-05
0.000263455
0.000263455
0.000263455
0.000263455
0.000263455
0.000263455
0.000263455
0.000263455
0.000263455
0.000263455
0.000263454
0.000263242
0.000258688
0.000171503
1.45199e-05
0.000263425
0.000263425
0.000263425
0.000263425
0.000263425
0.000263425
0.000263425
0.000263426
0.000263426
0.000263427
0.000263421
0.000263003
0.000251909
0.000145408
1.48278e-05
0.000263396
0.000263396
0.000263396
0.000263396
0.000263396
0.000263396
0.000263396
0.000263396
0.000263397
0.000263401
0.000263381
0.000262444
0.000244336
0.000128197
1.51334e-05
0.000263367
0.000263367
0.000263367
0.000263367
0.000263367
0.000263367
0.000263367
0.000263367
0.000263369
0.000263375
0.00026331
0.000261435
0.000236215
0.000115211
1.54362e-05
0.000263338
0.000263338
0.000263338
0.000263338
0.000263338
0.000263338
0.000263338
0.000263339
0.000263341
0.000263349
0.000263191
0.000259995
0.000228043
0.00010548
1.5737e-05
0.000263309
0.000263309
0.000263309
0.000263309
0.000263309
0.000263309
0.000263309
0.00026331
0.000263314
0.000263318
0.000262998
0.000258222
0.000219862
9.69955e-05
1.60353e-05
0.00026328
0.00026328
0.00026328
0.00026328
0.00026328
0.00026328
0.00026328
0.000263282
0.000263287
0.000263279
0.000262734
0.000256128
0.000211848
8.96396e-05
1.63307e-05
0.000263251
0.000263251
0.000263251
0.000263251
0.000263251
0.000263251
0.000263252
0.000263254
0.000263261
0.000263228
0.000262356
0.000253714
0.000203972
8.32533e-05
1.66237e-05
0.000263222
0.000263222
0.000263222
0.000263222
0.000263222
0.000263223
0.000263223
0.000263226
0.000263233
0.000263159
0.000261871
0.000251035
0.00019641
7.76918e-05
1.69136e-05
0.000263194
0.000263194
0.000263194
0.000263194
0.000263194
0.000263194
0.000263195
0.000263199
0.000263203
0.000263069
0.0002613
0.00024814
0.000189193
7.28115e-05
1.7201e-05
0.000263165
0.000263165
0.000263165
0.000263165
0.000263165
0.000263166
0.000263167
0.000263172
0.000263171
0.000262955
0.000260624
0.000245064
0.000182275
6.85084e-05
1.74851e-05
0.000263137
0.000263137
0.000263137
0.000263137
0.000263137
0.000263138
0.000263139
0.000263144
0.000263134
0.000262812
0.000259817
0.00024184
0.000175691
6.46811e-05
1.77665e-05
0.000263108
0.000263108
0.000263108
0.000263108
0.000263109
0.000263109
0.000263112
0.000263117
0.000263092
0.000262636
0.000258899
0.000238503
0.00016945
6.12665e-05
1.80444e-05
0.00026308
0.00026308
0.00026308
0.00026308
0.000263081
0.000263082
0.000263084
0.000263089
0.000263044
0.000262424
0.000257875
0.00023508
0.000163532
5.81926e-05
1.83194e-05
0.000263052
0.000263052
0.000263052
0.000263052
0.000263053
0.000263054
0.000263057
0.00026306
0.000262987
0.000262173
0.000256748
0.000231601
0.000157937
5.54227e-05
1.85906e-05
0.000263024
0.000263024
0.000263024
0.000263025
0.000263025
0.000263026
0.00026303
0.000263029
0.000262921
0.000261882
0.000255524
0.000228084
0.000152636
5.29029e-05
1.88587e-05
0.000262996
0.000262996
0.000262997
0.000262997
0.000262997
0.000262999
0.000263003
0.000262997
0.000262844
0.000261548
0.000254209
0.000224551
0.000147628
5.06145e-05
1.91226e-05
0.000262969
0.000262969
0.000262969
0.000262969
0.00026297
0.000262972
0.000262976
0.000262963
0.000262755
0.000261171
0.000252809
0.000221016
0.000142878
4.8514e-05
1.93832e-05
0.000262941
0.000262941
0.000262942
0.000262942
0.000262943
0.000262945
0.000262948
0.000262927
0.000262651
0.000260747
0.000251332
0.000217496
0.00013839
4.6595e-05
1.96394e-05
0.000262914
0.000262914
0.000262914
0.000262915
0.000262916
0.000262918
0.00026292
0.000262887
0.000262534
0.000260282
0.000249785
0.000213996
0.000134124
4.48203e-05
1.98921e-05
0.000262887
0.000262887
0.000262887
0.000262887
0.000262889
0.000262891
0.000262892
0.000262843
0.000262399
0.000259766
0.000248173
0.000210534
0.000130091
4.31916e-05
2.014e-05
0.00026286
0.00026286
0.00026286
0.00026286
0.000262862
0.000262864
0.000262863
0.000262796
0.000262249
0.000259216
0.000246505
0.000207108
0.000126247
4.16758e-05
2.03843e-05
0.000262833
0.000262833
0.000262833
0.000262834
0.000262835
0.000262838
0.000262834
0.000262743
0.00026208
0.000258603
0.000244785
0.000203734
0.00012261
4.02803e-05
2.06236e-05
0.000262806
0.000262806
0.000262806
0.000262807
0.000262808
0.000262811
0.000262803
0.000262685
0.000261891
0.000257959
0.000243019
0.000200407
0.000119133
3.89744e-05
2.08591e-05
0.000262779
0.000262779
0.000262779
0.00026278
0.000262782
0.000262784
0.000262771
0.000262621
0.000261684
0.000257282
0.000241216
0.00019714
0.000115842
3.77694e-05
2.10894e-05
0.000262753
0.000262753
0.000262753
0.000262754
0.000262756
0.000262757
0.000262738
0.000262551
0.000261456
0.000256555
0.000239378
0.000193926
0.000112686
3.66365e-05
2.13156e-05
0.000262726
0.000262726
0.000262726
0.000262727
0.000262729
0.00026273
0.000262703
0.000262473
0.000261208
0.000255789
0.000237512
0.000190778
0.000109696
3.55895e-05
2.15365e-05
0.0002627
0.0002627
0.0002627
0.000262701
0.000262703
0.000262702
0.000262666
0.000262388
0.000260938
0.000254985
0.000235621
0.000187685
0.00010682
3.46013e-05
2.17533e-05
0.000262673
0.000262673
0.000262674
0.000262675
0.000262677
0.000262675
0.000262626
0.000262295
0.000260647
0.000254145
0.000233712
0.000184662
0.000104095
3.36869e-05
2.19646e-05
0.000262647
0.000262647
0.000262648
0.000262649
0.000262651
0.000262646
0.000262585
0.000262193
0.000260335
0.00025327
0.000231785
0.000181694
0.000101465
3.28211e-05
2.21715e-05
0.000262621
0.000262621
0.000262622
0.000262623
0.000262624
0.000262618
0.000262541
0.000262082
0.000260001
0.000252362
0.000229849
0.000178799
9.89738e-05
3.20195e-05
2.23729e-05
0.000262595
0.000262595
0.000262596
0.000262597
0.000262598
0.000262588
0.000262493
0.000261962
0.000259645
0.000251423
0.000227902
0.000175957
9.65613e-05
3.12584e-05
2.257e-05
0.000262569
0.000262569
0.00026257
0.000262571
0.000262572
0.000262558
0.000262443
0.000261832
0.000259268
0.000250455
0.000225951
0.000173188
9.4277e-05
3.05533e-05
2.27614e-05
0.000262543
0.000262544
0.000262544
0.000262546
0.000262546
0.000262527
0.000262389
0.000261692
0.000258869
0.000249459
0.000223996
0.00017047
9.2057e-05
2.98825e-05
2.29483e-05
0.000262518
0.000262518
0.000262519
0.00026252
0.000262519
0.000262495
0.000262331
0.000261541
0.000258449
0.000248437
0.000222044
0.000167826
8.99574e-05
2.92608e-05
2.31296e-05
0.000262492
0.000262492
0.000262493
0.000262494
0.000262492
0.000262462
0.00026227
0.00026138
0.000258007
0.000247391
0.000220091
0.000165229
8.79087e-05
2.86684e-05
2.33064e-05
0.000262467
0.000262467
0.000262468
0.000262469
0.000262466
0.000262427
0.000262204
0.000261208
0.000257546
0.000246323
0.000218146
0.000162706
8.59745e-05
2.81192e-05
2.34775e-05
0.000262441
0.000262441
0.000262442
0.000262443
0.000262438
0.000262391
0.000262133
0.000261024
0.000257063
0.000245234
0.000216205
0.000160226
8.4079e-05
2.75954e-05
2.36442e-05
0.000262416
0.000262416
0.000262417
0.000262418
0.000262411
0.000262354
0.000262058
0.000260829
0.000256561
0.000244126
0.000214276
0.00015782
8.22937e-05
2.71095e-05
2.38052e-05
0.000262391
0.000262391
0.000262392
0.000262392
0.000262383
0.000262315
0.000261978
0.000260622
0.00025604
0.000243
0.000212352
0.000155454
8.05357e-05
2.66462e-05
2.39617e-05
0.000262365
0.000262366
0.000262367
0.000262366
0.000262354
0.000262274
0.000261892
0.000260403
0.0002555
0.000241859
0.000210445
0.000153161
7.8885e-05
2.62159e-05
2.41127e-05
0.00026234
0.000262341
0.000262341
0.000262341
0.000262326
0.000262232
0.000261801
0.000260173
0.000254941
0.000240702
0.000208546
0.000150903
7.72509e-05
2.58061e-05
2.42592e-05
0.000262315
0.000262316
0.000262316
0.000262315
0.000262296
0.000262187
0.000261705
0.000259931
0.000254364
0.000239533
0.000206666
0.000148719
7.5722e-05
2.54247e-05
2.44002e-05
0.00026229
0.000262291
0.000262291
0.000262289
0.000262266
0.00026214
0.000261603
0.000259677
0.000253771
0.000238351
0.000204795
0.000146563
7.42001e-05
2.50625e-05
2.45369e-05
0.000262266
0.000262266
0.000262266
0.000262263
0.000262235
0.000262091
0.000261494
0.000259411
0.00025316
0.00023716
0.000202947
0.000144483
7.2782e-05
2.47244e-05
2.46681e-05
0.000262241
0.000262241
0.000262241
0.000262237
0.000262204
0.000262039
0.00026138
0.000259133
0.000252534
0.000235958
0.000201109
0.000142426
7.13619e-05
2.44047e-05
2.47952e-05
0.000262216
0.000262217
0.000262217
0.000262211
0.000262171
0.000261984
0.000261259
0.000258843
0.00025189
0.00023475
0.000199296
0.000140446
7.00448e-05
2.41051e-05
2.49168e-05
0.000262191
0.000262192
0.000262192
0.000262184
0.000262138
0.000261928
0.000261132
0.000258542
0.000251236
0.000233533
0.000197493
0.000138482
6.87174e-05
2.38235e-05
2.50344e-05
0.000262167
0.000262167
0.000262167
0.000262157
0.000262103
0.000261867
0.000260999
0.000258229
0.000250561
0.000232312
0.000195717
0.000136597
6.74926e-05
2.35581e-05
2.51468e-05
0.000262142
0.000262143
0.000262142
0.00026213
0.000262068
0.000261805
0.000260858
0.000257904
0.000249877
0.000231084
0.000193952
0.000134722
6.62496e-05
2.33108e-05
2.52552e-05
0.000262118
0.000262118
0.000262117
0.000262103
0.000262031
0.000261738
0.000260711
0.000257568
0.000249182
0.000229855
0.000192216
0.000132927
6.51095e-05
2.3076e-05
2.53585e-05
0.000262094
0.000262094
0.000262091
0.000262075
0.000261993
0.000261669
0.000260557
0.000257221
0.000248471
0.00022862
0.000190489
0.000131136
6.39436e-05
2.28597e-05
2.54582e-05
0.00026207
0.00026207
0.000262067
0.000262047
0.000261954
0.000261596
0.000260396
0.000256863
0.00024775
0.000227387
0.000188795
0.000129428
6.28812e-05
2.26523e-05
2.55527e-05
0.000262045
0.000262044
0.00026204
0.000262017
0.000261913
0.000261521
0.000260229
0.000256494
0.000247016
0.000226148
0.000187107
0.000127717
6.17863e-05
2.2464e-05
2.56438e-05
0.000262021
0.000262021
0.000262017
0.00026199
0.000261872
0.00026144
0.000260053
0.000256113
0.000246273
0.000224914
0.000185456
0.000126091
6.07947e-05
2.22812e-05
2.573e-05
0.000261996
0.000261995
0.000261988
0.000261957
0.000261827
0.000261357
0.000259872
0.000255723
0.000245519
0.000223675
0.000183808
0.000124455
5.97656e-05
2.21185e-05
2.5813e-05
0.000261973
0.000261973
0.000261967
0.000261931
0.000261784
0.00026127
0.000259682
0.000255321
0.000244757
0.000222443
0.000182201
0.000122908
5.88386e-05
2.19577e-05
2.5891e-05
0.000261949
0.000261946
0.000261935
0.000261895
0.000261733
0.000261179
0.000259486
0.00025491
0.000243984
0.000221206
0.000180594
0.000121343
5.78706e-05
2.18185e-05
2.59662e-05
0.000261924
0.000261923
0.000261915
0.000261868
0.000261688
0.000261084
0.000259283
0.00025449
0.000243206
0.000219979
0.000179031
0.00011987
5.70028e-05
2.16774e-05
2.60366e-05
0.000261903
0.0002619
0.000261885
0.000261833
0.000261635
0.000260984
0.000259071
0.000254057
0.000242416
0.000218746
0.000177464
0.000118373
5.60911e-05
2.15599e-05
2.61044e-05
0.000261872
0.00026187
0.00026186
0.000261798
0.000261583
0.000260883
0.000258856
0.00025362
0.000241625
0.000217528
0.000175946
0.000116971
5.52782e-05
2.14364e-05
2.61674e-05
0.000261864
0.00026186
0.000261838
0.000261774
0.000261532
0.000260774
0.000258626
0.000253167
0.00024082
0.000216299
0.000174418
0.000115537
5.44182e-05
2.13391e-05
2.62281e-05
0.000261818
0.000261815
0.000261804
0.000261725
0.00026147
0.000260666
0.000258402
0.000252713
0.000240017
0.000215093
0.000172946
0.000114202
5.36558e-05
2.12313e-05
2.62843e-05
0.000261838
0.000261829
0.000261794
0.000261713
0.000261422
0.000260547
0.000258154
0.000252243
0.000239199
0.000213871
0.000171455
0.000112828
5.28446e-05
2.11532e-05
2.63383e-05
0.00026177
0.000261765
0.000261754
0.000261658
0.000261356
0.000260439
0.000257922
0.000251772
0.000238386
0.000212678
0.00017003
0.000111557
5.21273e-05
2.10591e-05
2.63879e-05
0.000261818
0.000261811
0.000261769
0.000261662
0.000261312
0.000260304
0.000257658
0.000251288
0.000237558
0.000211464
0.000168576
0.000110239
5.13631e-05
2.09993e-05
2.64356e-05
0.000261753
0.000261746
0.000261729
0.000261613
0.000261257
0.000260214
0.000257424
0.000250803
0.000236739
0.000210288
0.000167197
0.00010903
5.06853e-05
2.09173e-05
2.64791e-05
0.000261872
0.000261856
0.000261754
0.000261614
0.000261195
0.000260055
0.000257142
0.000250307
0.000235902
0.000209081
0.000165777
0.000107762
4.99669e-05
2.0875e-05
2.65208e-05
0.000261921
0.000261906
0.000261905
0.000261699
0.000261254
0.000260005
0.000256919
0.000249815
0.00023508
0.000207925
0.000164444
0.000106611
4.93216e-05
2.08038e-05
2.65584e-05
0.000261941
0.000261945
0.000261876
0.000261618
0.000261128
0.000259879
0.00025664
0.000249315
0.000234235
0.000206723
0.000163056
0.000105392
4.86493e-05
2.07785e-05
2.65947e-05
0.000262292
0.00026223
0.000261945
0.00026186
0.000261311
0.00025982
0.000256426
0.000248811
0.000233411
0.000205588
0.000161768
0.000104292
4.80286e-05
2.07167e-05
2.66267e-05
0.000262005
0.000261975
0.000261948
0.000261727
0.000261164
0.00025978
0.000256149
0.000248306
0.000232547
0.000204382
0.000160406
0.000103119
4.74002e-05
2.07084e-05
2.66582e-05
0.000262055
0.000262213
0.000262243
0.0002618
0.000261354
0.000259658
0.000255907
0.000247784
0.000231712
0.000203267
0.000159157
0.000102057
4.67975e-05
2.06549e-05
2.66843e-05
0.000259865
0.000261387
0.000261583
0.000261854
0.00026104
0.000259453
0.00025568
0.000247262
0.000230798
0.000202031
0.000157808
0.000100926
4.62083e-05
2.06631e-05
2.67123e-05
0.000259187
0.000260275
0.000260917
0.000261571
0.000261134
0.000259318
0.000255288
0.000246753
0.000229943
0.000200927
0.000156586
9.98884e-05
4.56161e-05
2.06184e-05
2.67324e-05
0.000254949
0.000255932
0.000256994
0.000260463
0.00026046
0.000259238
0.00025497
0.000246117
0.000228916
0.000199618
0.000155232
9.87886e-05
4.50601e-05
2.06427e-05
2.67551e-05
0.000254175
0.00025556
0.000256662
0.000259448
0.000259706
0.000258783
0.000254682
0.000245547
0.000228025
0.000198494
0.000154008
9.77561e-05
4.44691e-05
2.05983e-05
2.67729e-05
0.000246612
0.000248867
0.000251425
0.000255006
0.000256783
0.000256984
0.000253542
0.000244529
0.000226789
0.000197064
0.00015263
9.66834e-05
4.39484e-05
2.0688e-05
2.68075e-05
0.000243672
0.000245141
0.000248032
0.000252065
0.000255129
0.000255867
0.000252708
0.000243709
0.000225821
0.000195868
0.000151361
9.56155e-05
4.33127e-05
2.04297e-05
2.67141e-05
0.000242538
0.00024067
0.000247487
0.000250975
0.000251149
0.000252817
0.000250374
0.000241162
0.00022275
0.000192326
0.000147872
9.29711e-05
4.21588e-05
2.12265e-05
3.02513e-05
0.000235107
0.000233738
0.000245362
0.000247888
0.000242485
0.000246292
0.000245596
0.000237152
0.000218357
0.000187097
0.000142335
8.8342e-05
3.90819e-05
2.03275e-05
4.98837e-05
0.000230335
0.000236663
0.000242816
0.000244703
0.000243156
0.000241272
0.000239655
0.000231367
0.000212684
0.000181498
0.000137551
8.509e-05
3.73602e-05
2.23361e-05
5.95223e-05
0.000226252
0.000235577
0.000240775
0.000242618
0.000240978
0.000235752
0.000232522
0.00022504
0.000207215
0.000176419
0.000132622
8.06884e-05
3.44337e-05
2.66782e-05
8.24635e-05
0.000224355
0.000225922
0.000232965
0.000234618
0.000232756
0.000231655
0.000225918
0.000217293
0.000200276
0.000170559
0.000128262
7.75941e-05
3.27158e-05
3.31483e-05
0.000100354
0.000217944
0.000224513
0.000224473
0.000226894
0.000230628
0.000226432
0.000218152
0.00021109
0.000194471
0.000165367
0.000123289
7.25824e-05
3.03338e-05
4.5089e-05
0.00012092
0.000220045
0.000222666
0.00022403
0.000224416
0.000225364
0.000219912
0.000208874
0.000200871
0.000186477
0.000159631
0.00011906
6.90391e-05
2.97955e-05
5.93742e-05
0.000135343
0.000211142
0.000214459
0.00021848
0.000218175
0.000217921
0.000214893
0.000204408
0.000195428
0.000178423
0.000152395
0.000113507
6.34618e-05
3.16037e-05
7.63456e-05
0.00015039
0.000208267
0.000207223
0.00021678
0.0002186
0.000213408
0.000208406
0.000200063
0.000190825
0.000174525
0.00014791
0.000107624
5.84254e-05
3.59891e-05
9.56289e-05
0.000164543
0.000207513
0.000203446
0.000211689
0.000213635
0.00020979
0.000203567
0.000196132
0.000186867
0.00017038
0.000141741
0.000102514
5.29026e-05
4.40542e-05
0.000114987
0.000178621
0.000197507
0.000206097
0.000212254
0.000208607
0.000205467
0.000199641
0.000192577
0.000183188
0.000166766
0.000138533
9.67945e-05
4.91942e-05
5.5169e-05
0.000134027
0.000193335
0.000201894
0.00020459
0.000209809
0.000206818
0.000202832
0.000197002
0.000189818
0.000180121
0.000163679
0.000135515
9.15569e-05
4.77798e-05
7.01315e-05
0.000151433
0.000208171
0.000206323
0.000205688
0.000205262
0.000204476
0.00020062
0.000194827
0.000187395
0.000177292
0.000160586
0.000131771
8.60786e-05
4.89751e-05
8.67246e-05
0.000168759
0.000223245
0.000206068
0.000205809
0.000203424
0.000202437
0.000198731
0.000193096
0.000185523
0.000175016
0.000157836
0.000127838
8.06334e-05
5.35088e-05
0.000106377
0.000185212
0.000238559
0.000202281
0.000202561
0.000201631
0.000200303
0.000196652
0.000191198
0.000183629
0.000172819
0.000155024
0.000123412
7.60878e-05
6.19055e-05
0.00012615
0.000200158
0.000253333
0.000201566
0.000201103
0.000200426
0.000198689
0.000195045
0.000189762
0.000182261
0.000171148
0.00015245
0.0001187
7.27849e-05
7.35685e-05
0.000145841
0.000216318
0.000268191
0.000201676
0.000200696
0.000199555
0.000197358
0.000193638
0.00018842
0.000180938
0.00016949
0.000149695
0.000113776
7.22554e-05
8.87504e-05
0.000164983
0.000232756
0.000283297
0.000202325
0.000201123
0.000199438
0.000196837
0.000193023
0.000187821
0.000180294
0.000168376
0.000147066
0.000108881
7.43366e-05
0.000105857
0.000183825
0.000249326
0.00029842
0.000203639
0.000202262
0.000200019
0.000196951
0.000192913
0.000187576
0.000179842
0.000167258
0.00014416
0.000104667
8.02919e-05
0.000125288
0.000201956
0.000265909
0.000313728
0.000205972
0.00020438
0.000201584
0.000198008
0.000193658
0.000188098
0.000180039
0.000166556
0.000141266
0.000101611
8.96151e-05
0.000145418
0.000220035
0.00028253
0.000329371
0.000209037
0.000207212
0.000203896
0.000199787
0.000195024
0.000189101
0.000180524
0.00016584
0.000138257
0.000100764
0.000102617
0.000165844
0.000238342
0.000299363
0.00034534
0.000212602
0.000210598
0.000206883
0.000202315
0.000197124
0.00019076
0.000181499
0.000165308
0.000135443
0.000102481
0.000118257
0.000186319
0.000257038
0.000316393
0.000361547
0.000216408
0.00021431
0.000210349
0.000205427
0.000199818
0.000192929
0.000182783
0.000164757
0.000133194
0.000107519
0.000136416
0.000206829
0.000276059
0.00033381
0.000378093
0.000220426
0.000218313
0.00021425
0.000209092
0.000203105
0.000195627
0.000184379
0.000164229
0.000132019
0.000116031
0.000156504
0.000227441
0.000295413
0.000351626
0.000395013
0.000224649
0.000222576
0.000218507
0.000213203
0.000206865
0.000198722
0.00018614
0.000163756
0.000132684
0.000128117
0.000177562
0.000248166
0.000314446
0.000369628
0.000412256
0.00022917
0.000227161
0.000223145
0.000217754
0.00021109
0.000202201
0.000188057
0.000163615
0.000135814
0.000143249
0.000199475
0.000269325
0.000334112
0.000387982
0.00042981
0.000233944
0.000232003
0.000228055
0.000222601
0.000215597
0.000205846
0.000189913
0.000163953
0.000141777
0.000161102
0.000221673
0.000290743
0.000353994
0.000406579
0.000447576
0.000239071
0.000237196
0.000233323
0.000227812
0.000220439
0.000209683
0.000191861
0.000165525
0.000151262
0.000181379
0.000244463
0.000312652
0.000374339
0.000425614
0.00046572
0.000244398
0.000242575
0.000238753
0.00023316
0.000225352
0.000213443
0.000193836
0.000168738
0.000163898
0.000203029
0.000267522
0.000334644
0.000394814
0.000444803
0.000483988
0.00025011
0.000248335
0.000244559
0.000238858
0.000230516
0.00021729
0.000196225
0.000174274
0.00017971
0.000226074
0.000291302
0.000357116
0.000415546
0.00046399
0.000501903
0.000255944
0.000254196
0.00025042
0.000244535
0.00023553
0.000220929
0.000199243
0.00018261
0.000198351
0.000249745
0.000315034
0.000379223
0.000436001
0.000482883
0.000519422
0.000262215
0.000260496
0.000256714
0.000250594
0.000240807
0.000224881
0.000203726
0.000194081
0.000219189
0.000274161
0.000339197
0.000402086
0.000456634
0.000501837
0.00053715
0.000268567
0.000266845
0.000262983
0.0002565
0.000245795
0.000228831
0.000209772
0.000208412
0.000241639
0.000299137
0.000363531
0.000424688
0.000477131
0.000520441
0.000554132
0.000275381
0.000273661
0.000269705
0.000262793
0.000251142
0.000233748
0.00021848
0.000225894
0.000265535
0.000324473
0.000387612
0.000446478
0.000497248
0.000538885
0.000571251
0.000282313
0.000280552
0.0002764
0.000268916
0.000256368
0.000239472
0.000229574
0.000245548
0.000290193
0.000349756
0.000411421
0.000468217
0.000517267
0.000557416
0.000588708
0.000289684
0.000287872
0.000283485
0.000275393
0.000262252
0.000247086
0.000243742
0.000267389
0.000315701
0.000375235
0.000435242
0.000490006
0.000537088
0.000575663
0.000605897
0.000297318
0.000295404
0.000290675
0.000281937
0.000268683
0.000256543
0.000260374
0.000290636
0.000341443
0.000400401
0.000458556
0.000511233
0.000556287
0.000593053
0.000622234
0.000305343
0.000303294
0.000298179
0.000288946
0.000276404
0.000268582
0.000279579
0.000315148
0.000367417
0.000425418
0.000481738
0.000532224
0.000575395
0.000610709
0.000638644
0.000313908
0.000311666
0.000306112
0.000296604
0.000285608
0.000282929
0.000300647
0.000340407
0.00039351
0.00045042
0.000504969
0.000553199
0.000594524
0.000628549
0.000655326
0.000322907
0.000320435
0.000314493
0.000305207
0.000296861
0.000299988
0.000323693
0.000366456
0.0004196
0.000474914
0.00052715
0.000573677
0.000613365
0.000646118
0.000672267
0.000332749
0.00033002
0.000323795
0.000315261
0.000310303
0.000319147
0.00034778
0.000392566
0.000445292
0.000498937
0.000549128
0.000593956
0.000632239
0.000664061
0.000689918
0.000343371
0.000340405
0.000334159
0.000327102
0.000326281
0.000340662
0.000373274
0.000419266
0.000471187
0.000523116
0.000571453
0.000614467
0.000651461
0.000682696
0.000708714
0.000355217
0.000352074
0.00034612
0.000341119
0.00034461
0.00036377
0.000399284
0.000445792
0.000496672
0.00054693
0.000593634
0.000635252
0.000671377
0.00070241
0.000729088
0.000368417
0.000365216
0.00035995
0.000357527
0.000365352
0.000388614
0.000426265
0.000472895
0.000522713
0.000571519
0.000616489
0.000656882
0.000692466
0.000723707
0.000751579
0.000383435
0.000380345
0.000376153
0.000376578
0.000388366
0.000414848
0.000453838
0.00050013
0.000548656
0.000595799
0.000639742
0.0006794
0.000714872
0.000746863
0.000776582
0.000400485
0.000397675
0.00039485
0.000398163
0.000413401
0.000442321
0.000482067
0.000527785
0.00057506
0.000620814
0.000663859
0.000703156
0.000739011
0.00077228
0.000804456
0.000419665
0.000417322
0.000416076
0.000422109
0.000440126
0.000470675
0.000510589
0.000555457
0.000601542
0.000646505
0.000688919
0.000728302
0.000765059
0.000800161
0.000835308
0.00044128
0.000439502
0.000439839
0.000448225
0.000468356
0.000499962
0.000539846
0.000584059
0.000629238
0.000673393
0.000715402
0.00075521
0.000793091
0.000830351
0.000868736
0.000464153
0.000463024
0.000464894
0.000475234
0.00049688
0.000529005
0.000568402
0.000611444
0.000655998
0.000700349
0.000743089
0.000782991
0.000822497
0.000862257
0.000904063
0.000488502
0.000487707
0.000490403
0.000501711
0.00052386
0.000555812
0.000594828
0.000638339
0.000683593
0.000728392
0.000769943
0.000811398
0.000852522
0.00089495
0.000940291
0.00051449
0.000513604
0.000516285
0.000527622
0.000549451
0.00058049
0.000617743
0.000662024
0.000709129
0.000752378
0.000795525
0.000838159
0.000881545
0.000927073
0.000976143
0.000550778
0.000548498
0.000548512
0.000557069
0.000576645
0.000606036
0.000642014
0.000684281
0.000729172
0.000773722
0.000818001
0.000863048
0.000909613
0.000958758
0.00101182
0.000611086
0.000605582
0.000598417
0.00059842
0.000610719
0.000634334
0.000671044
0.000713056
0.00075797
0.00080022
0.0008445
0.000890915
0.000940175
0.000992745
0.00104972
0.000709975
0.000703894
0.000690535
0.000677917
0.000672406
0.000682957
0.00071264
0.000753579
0.000797072
0.00083993
0.000884623
0.000932284
0.00098371
0.00103893
0.00109952
0.000840047
0.000835051
0.000826955
0.000814058
0.00079638
0.000782758
0.000783384
0.000808118
0.000846408
0.000891463
0.0009395
0.000989086
0.00104219
0.00109919
0.00116013
0.00101968
0.00101322
0.00100358
0.000993565
0.000984246
0.000974426
0.00096231
0.000957237
0.000964074
0.000985642
0.00102124
0.00106998
0.00112368
0.00118165
0.0012494
0.00124807
0.00124065
0.00122885
0.00121832
0.00120996
0.00120402
0.00120232
0.001207
0.00121542
0.00123038
0.00125079
0.00128292
0.00132472
0.00137458
0.0014304
0.00149522
0.00148846
0.00147618
0.00146489
0.00145625
0.00145079
0.00144895
0.00145119
0.00145777
0.00146955
0.0014876
0.0015123
0.0015422
0.00157704
0.00161375
0.00172098
0.00171598
0.00170521
0.00169449
0.00168564
0.00167952
0.00167647
0.00167665
0.0016801
0.00168699
0.00169749
0.00171152
0.00172866
0.00174834
0.00176975
0.00190219
0.00189713
0.00188369
0.00187253
0.00186425
0.00185769
0.00185262
0.0018492
0.00184812
0.00184933
0.00185261
0.0018577
0.00186425
0.00187185
0.00187995
0.00197033
0.00197039
0.00197097
0.00196843
0.00196156
0.00195646
0.00195272
0.00194993
0.00194722
0.00194481
0.00194266
0.00194056
0.00193818
0.00193512
0.00193088
0.00198545
0.00198548
0.00198225
0.00197732
0.00197257
0.00196917
0.00196692
0.00196485
0.00196213
0.00195881
0.00195479
0.0019499
0.00194387
0.00193633
0.00192682
0.00193364
0.00193594
0.00193795
0.00193966
0.00193975
0.00193806
0.0019355
0.00193228
0.00192842
0.00192347
0.00191714
0.00190915
0.00189916
0.00188674
0.0018714
0.00183173
0.0018345
0.00183802
0.00184145
0.00184412
0.00184553
0.00184533
0.00184337
0.00183973
0.00183433
0.00182699
0.0018175
0.00180557
0.00179086
0.00177299
0.00170256
0.00170552
0.00171001
0.00171485
0.00171919
0.00172242
0.00172405
0.00172363
0.00172087
0.00171588
0.00170858
0.00169885
0.00168647
0.00167115
0.00165257
0.0015624
0.00156543
0.00157018
0.00157568
0.00158092
0.00158515
0.00158783
0.00158847
0.00158661
0.00158227
0.00157547
0.00156613
0.00155408
0.0015391
0.0015209
0.00142135
0.00142434
0.00142893
0.0014345
0.00144017
0.00144488
0.00144807
0.00144923
0.00144788
0.00144406
0.00143783
0.00142912
0.00141779
0.00140364
0.00138643
0.00128564
0.00128852
0.00129298
0.00129803
0.00130329
0.00130813
0.0013115
0.00131276
0.00131159
0.00130816
0.00130247
0.00129446
0.00128401
0.00127093
0.00125501
0.00115824
0.00116098
0.00116527
0.00116998
0.00117448
0.00117857
0.00118178
0.00118288
0.0011818
0.00117868
0.0011735
0.00116621
0.00115669
0.00114478
0.00113028
0.00104051
0.00104308
0.00104728
0.00105178
0.00105583
0.00105903
0.00106119
0.00106198
0.00106086
0.00105795
0.00105323
0.00104663
0.00103803
0.00102728
0.0010142
0.000932852
0.000935257
0.00093924
0.000943312
0.00094674
0.000949165
0.000950443
0.000950831
0.000949658
0.000946933
0.000942631
0.000936675
0.000928952
0.000919318
0.000907606
0.000834811
0.000837039
0.000840691
0.000844465
0.000847446
0.000848886
0.000849479
0.000849499
0.000848281
0.000845742
0.000841839
0.000836493
0.000829595
0.000821009
0.000810578
0.000745765
0.00074782
0.000751069
0.000754293
0.000756771
0.000757893
0.00075808
0.000757574
0.000756351
0.000754048
0.00075053
0.000745753
0.000739617
0.000731997
0.000722745
0.000665059
0.000666963
0.000669857
0.000672603
0.000674521
0.000675382
0.000675425
0.000674882
0.000673586
0.000671367
0.000668184
0.000663896
0.00065844
0.000651688
0.000643501
0.00059186
0.00059362
0.000596173
0.000598445
0.000599762
0.000600258
0.000600034
0.000599571
0.000598824
0.000596858
0.00059392
0.000590106
0.000585271
0.000579314
0.000572093
0.000525387
0.000527007
0.000529212
0.000530985
0.000531923
0.000532259
0.000532066
0.000531385
0.000530662
0.000529469
0.00052698
0.00052369
0.000519394
0.000514138
0.000507779
0.000464992
0.000466483
0.000468349
0.000469627
0.000470317
0.000470567
0.000470415
0.00046985
0.000468861
0.00046786
0.000466378
0.000463563
0.00045993
0.000455328
0.00044977
0.000410043
0.000411406
0.00041292
0.000413809
0.000414327
0.000414533
0.000414424
0.000413962
0.000413088
0.000412327
0.000411511
0.000409412
0.000406196
0.00040223
0.00039738
0.000360145
0.000361267
0.00036233
0.00036301
0.000363453
0.000363682
0.000363674
0.000363391
0.000362793
0.000361869
0.000361061
0.00035983
0.00035739
0.000354171
0.000350005
0.000314765
0.000315598
0.000316301
0.00031685
0.00031728
0.000317572
0.00031769
0.000317589
0.000317224
0.000316546
0.000315525
0.000314595
0.000313257
0.000310629
0.000307145
0.000273385
0.000273873
0.00027445
0.000274979
0.000275453
0.000275839
0.000276092
0.000276165
0.000276004
0.000275548
0.000274712
0.000274012
0.000273132
0.000271201
0.000268389
0.000235712
0.000236077
0.000236629
0.000237188
0.000237732
0.000238221
0.00023861
0.000238851
0.000238898
0.0002387
0.000238206
0.000237389
0.000236685
0.000235604
0.00023336
0.000201876
0.000202224
0.000202783
0.000203379
0.000203985
0.000204559
0.000205059
0.000205439
0.000205653
0.00020565
0.000205364
0.000204702
0.00020412
0.000203447
0.000201894
0.000172108
0.000172433
0.000172975
0.000173576
0.000174206
0.000174826
0.000175396
0.000175874
0.000176218
0.000176383
0.00017632
0.000175974
0.000175321
0.000174769
0.000173874
0.000146708
0.000146984
0.000147457
0.000148002
0.000148592
0.000149192
0.000149769
0.000150285
0.000150705
0.000150994
0.000151117
0.000151041
0.000150741
0.000150238
0.000149505
0.000126345
0.000126533
0.000126862
0.000127263
0.000127723
0.000128219
0.000128724
0.000129208
0.00012964