/*--------------------------------*- C++ -*----------------------------------*\
  =========                 |
  \\      /  F ield         | OpenFOAM: The Open Source CFD Toolbox
   \\    /   O peration     | Website:  https://openfoam.org
    \\  /    A nd           | Version:  7
     \\/     M anipulation  |
\*---------------------------------------------------------------------------*/
FoamFile
{
    version     2.0;
    format      ascii;
    class       volScalarField;
    location    "100";
    object      p;
}
// * * * * * * * * * * * * * * * * * * * * * * * * * * * * * * * * * * * * * //

dimensions      [0 2 -2 0 0 0 0];

internalField   nonuniform List<scalar> 
32100
(
2.39101
2.39103
2.39107
2.39113
2.39121
2.39129
2.39136
2.3914
2.39136
2.39114
2.39053
2.38922
2.38339
2.35477
2.47765
2.391
2.39102
2.39106
2.39112
2.3912
2.39128
2.39137
2.39142
2.39142
2.3913
2.39081
2.39013
2.39371
2.35993
2.45661
2.39096
2.39098
2.39103
2.39109
2.39118
2.39128
2.39139
2.39149
2.39157
2.39166
2.39172
2.39086
2.40187
2.36814
2.4358
2.3909
2.39093
2.39098
2.39105
2.39115
2.39126
2.3914
2.39157
2.39176
2.39203
2.39277
2.39088
2.40468
2.37511
2.42315
2.39082
2.39085
2.3909
2.39098
2.39109
2.39123
2.3914
2.39162
2.3919
2.3922
2.3935
2.39065
2.40464
2.3795
2.41625
2.39072
2.39075
2.3908
2.39089
2.39101
2.39117
2.39136
2.39162
2.39196
2.3922
2.39389
2.39054
2.40388
2.38188
2.41162
2.39058
2.39062
2.39068
2.39077
2.3909
2.39107
2.39128
2.39155
2.39195
2.39209
2.39403
2.39047
2.40297
2.38325
2.40792
2.39042
2.39046
2.39052
2.39062
2.39076
2.39093
2.39116
2.39143
2.39188
2.39191
2.39398
2.39033
2.40198
2.38432
2.40485
2.39024
2.39027
2.39033
2.39044
2.39057
2.39075
2.39099
2.39124
2.39173
2.39168
2.39378
2.39012
2.4009
2.38522
2.40234
2.39002
2.39005
2.39012
2.39022
2.39036
2.39053
2.39077
2.39101
2.39151
2.39139
2.39347
2.38988
2.39978
2.38591
2.40028
2.38977
2.38981
2.38987
2.38997
2.3901
2.39028
2.39051
2.39073
2.39123
2.39105
2.39308
2.38961
2.39866
2.38641
2.39854
2.38948
2.38953
2.38959
2.38968
2.38982
2.38999
2.39021
2.39041
2.39091
2.39068
2.39264
2.38932
2.39757
2.38674
2.39704
2.38917
2.38922
2.38927
2.38937
2.3895
2.38966
2.38988
2.39005
2.39054
2.39028
2.39214
2.38901
2.39652
2.38694
2.39571
2.38884
2.38888
2.38893
2.38902
2.38915
2.3893
2.38951
2.38966
2.39013
2.38985
2.39161
2.38867
2.3955
2.38702
2.39453
2.38847
2.38851
2.38856
2.38865
2.38876
2.3889
2.38911
2.38924
2.38969
2.3894
2.39106
2.38831
2.39451
2.38701
2.39344
2.38808
2.38812
2.38816
2.38825
2.38836
2.38849
2.38868
2.38879
2.38923
2.38893
2.39048
2.38793
2.39356
2.38691
2.39244
2.38766
2.3877
2.38774
2.38782
2.38793
2.38804
2.38823
2.38833
2.38874
2.38844
2.38989
2.38753
2.39264
2.38675
2.39152
2.38722
2.38726
2.3873
2.38737
2.38747
2.38758
2.38775
2.38784
2.38822
2.38793
2.38929
2.38711
2.39175
2.38653
2.39064
2.38675
2.38679
2.38683
2.3869
2.38699
2.38709
2.38725
2.38733
2.38769
2.38741
2.38867
2.38667
2.39088
2.38626
2.38981
2.38627
2.38631
2.38634
2.3864
2.38649
2.38658
2.38673
2.3868
2.38714
2.38687
2.38804
2.3862
2.39002
2.38593
2.38901
2.38576
2.3858
2.38583
2.38589
2.38597
2.38606
2.3862
2.38626
2.38658
2.38632
2.38741
2.38572
2.38919
2.38556
2.38822
2.38524
2.38528
2.38531
2.38536
2.38544
2.38552
2.38565
2.3857
2.386
2.38576
2.38677
2.38523
2.38837
2.38515
2.38745
2.3847
2.38474
2.38476
2.38482
2.38489
2.38496
2.38509
2.38513
2.38541
2.38519
2.38612
2.38471
2.38756
2.38472
2.38669
2.38415
2.38419
2.38421
2.38426
2.38432
2.38439
2.38451
2.38455
2.38481
2.3846
2.38547
2.38419
2.38677
2.38425
2.38595
2.38358
2.38362
2.38363
2.38368
2.38374
2.3838
2.38392
2.38395
2.3842
2.384
2.38481
2.38364
2.38599
2.38377
2.38522
2.383
2.38303
2.38305
2.38309
2.38315
2.38321
2.38331
2.38334
2.38358
2.3834
2.38414
2.38308
2.38521
2.38326
2.3845
2.3824
2.38243
2.38245
2.38249
2.38254
2.3826
2.38269
2.38273
2.38294
2.38278
2.38347
2.38251
2.38444
2.38273
2.38378
2.38179
2.38183
2.38184
2.38188
2.38193
2.38198
2.38207
2.3821
2.3823
2.38215
2.38279
2.38192
2.38367
2.38217
2.38305
2.38117
2.38121
2.38122
2.38125
2.3813
2.38135
2.38143
2.38146
2.38165
2.38151
2.38211
2.38132
2.3829
2.38159
2.38233
2.38054
2.38057
2.38058
2.38062
2.38066
2.38071
2.38079
2.38081
2.38099
2.38087
2.38142
2.38071
2.38213
2.38099
2.3816
2.3799
2.37993
2.37994
2.37997
2.38002
2.38006
2.38013
2.38016
2.38033
2.38021
2.38073
2.38008
2.38137
2.38038
2.38087
2.37925
2.37928
2.37929
2.37932
2.37936
2.3794
2.37947
2.3795
2.37965
2.37955
2.38003
2.37945
2.38061
2.37976
2.38014
2.37859
2.37862
2.37863
2.37866
2.3787
2.37873
2.3788
2.37883
2.37897
2.37888
2.37932
2.37881
2.37985
2.37913
2.37941
2.37792
2.37796
2.37796
2.37799
2.37802
2.37806
2.37812
2.37815
2.37828
2.3782
2.37861
2.37816
2.3791
2.37848
2.37868
2.37725
2.37728
2.37728
2.37731
2.37734
2.37738
2.37744
2.37746
2.37759
2.37752
2.37789
2.37749
2.37833
2.37782
2.37795
2.37656
2.3766
2.3766
2.37662
2.37665
2.37669
2.37674
2.37677
2.37689
2.37682
2.37717
2.37682
2.37757
2.37715
2.37722
2.37587
2.37591
2.37591
2.37593
2.37596
2.37599
2.37604
2.37607
2.37618
2.37612
2.37644
2.37613
2.37681
2.37647
2.37648
2.37517
2.37521
2.37521
2.37523
2.37526
2.37529
2.37534
2.37536
2.37547
2.37542
2.37571
2.37544
2.37604
2.37578
2.37573
2.37447
2.3745
2.3745
2.37453
2.37455
2.37458
2.37463
2.37465
2.37475
2.37471
2.37498
2.37474
2.37527
2.37508
2.37498
2.37376
2.37379
2.37379
2.37381
2.37384
2.37386
2.37391
2.37393
2.37402
2.37399
2.37424
2.37404
2.3745
2.37436
2.37423
2.37304
2.37308
2.37308
2.3731
2.37312
2.37314
2.37319
2.37321
2.3733
2.37327
2.37349
2.37333
2.37373
2.37365
2.37347
2.37232
2.37236
2.37235
2.37237
2.37239
2.37242
2.37246
2.37248
2.37256
2.37254
2.37275
2.37261
2.37296
2.37292
2.37271
2.3716
2.37163
2.37163
2.37164
2.37167
2.37169
2.37172
2.37174
2.37182
2.3718
2.37199
2.37188
2.37218
2.37219
2.37195
2.37086
2.3709
2.37089
2.37091
2.37093
2.37095
2.37099
2.37101
2.37108
2.37106
2.37124
2.37115
2.3714
2.37145
2.37118
2.37013
2.37016
2.37016
2.37017
2.37019
2.37021
2.37024
2.37026
2.37033
2.37032
2.37048
2.37042
2.37063
2.37071
2.37042
2.36939
2.36942
2.36941
2.36943
2.36945
2.36947
2.3695
2.36952
2.36958
2.36957
2.36972
2.36968
2.36985
2.36996
2.36965
2.36864
2.36867
2.36867
2.36868
2.3687
2.36872
2.36875
2.36876
2.36882
2.36882
2.36895
2.36893
2.36906
2.36921
2.36888
2.36789
2.36792
2.36792
2.36793
2.36795
2.36796
2.36799
2.36801
2.36806
2.36806
2.36818
2.36818
2.36828
2.36845
2.3681
2.36714
2.36717
2.36716
2.36718
2.36719
2.36721
2.36723
2.36725
2.3673
2.3673
2.36741
2.36742
2.36749
2.36768
2.36732
2.36638
2.36642
2.36641
2.36642
2.36643
2.36645
2.36647
2.36649
2.36653
2.36654
2.36663
2.36666
2.3667
2.36691
2.36654
2.36562
2.36565
2.36565
2.36566
2.36567
2.36568
2.36571
2.36572
2.36576
2.36577
2.36585
2.36589
2.36591
2.36613
2.36576
2.36486
2.36489
2.36488
2.3649
2.36491
2.36492
2.36494
2.36495
2.36499
2.365
2.36507
2.36513
2.36512
2.36536
2.36497
2.36409
2.36413
2.36412
2.36413
2.36414
2.36415
2.36417
2.36418
2.36422
2.36423
2.36429
2.36435
2.36432
2.36458
2.36418
2.36332
2.36336
2.36335
2.36336
2.36337
2.36338
2.36339
2.36341
2.36344
2.36346
2.36351
2.36358
2.36353
2.36379
2.3634
2.36255
2.36259
2.36257
2.36259
2.36259
2.3626
2.36262
2.36263
2.36266
2.36268
2.36272
2.3628
2.36274
2.36301
2.3626
2.36178
2.36181
2.3618
2.36181
2.36182
2.36183
2.36184
2.36185
2.36188
2.3619
2.36193
2.36203
2.36194
2.36222
2.36181
2.361
2.36104
2.36102
2.36103
2.36104
2.36105
2.36106
2.36107
2.36109
2.36112
2.36114
2.36124
2.36114
2.36143
2.36102
2.36023
2.36026
2.36025
2.36026
2.36026
2.36027
2.36028
2.36029
2.36031
2.36033
2.36035
2.36046
2.36034
2.36064
2.36022
2.35945
2.35948
2.35947
2.35947
2.35948
2.35949
2.3595
2.35951
2.35952
2.35955
2.35956
2.35967
2.35955
2.35984
2.35943
2.35867
2.3587
2.35869
2.35869
2.3587
2.3587
2.35871
2.35872
2.35873
2.35876
2.35877
2.35889
2.35875
2.35905
2.35864
2.35788
2.35792
2.3579
2.35791
2.35791
2.35792
2.35792
2.35793
2.35794
2.35797
2.35797
2.3581
2.35795
2.35825
2.35784
2.3571
2.35713
2.35712
2.35712
2.35713
2.35713
2.35714
2.35714
2.35715
2.35718
2.35718
2.35731
2.35715
2.35745
2.35704
2.35632
2.35635
2.35633
2.35634
2.35634
2.35634
2.35635
2.35635
2.35636
2.35639
2.35638
2.35651
2.35635
2.35666
2.35625
2.35553
2.35556
2.35555
2.35555
2.35555
2.35555
2.35556
2.35556
2.35557
2.3556
2.35558
2.35572
2.35555
2.35585
2.35545
2.35475
2.35478
2.35476
2.35477
2.35476
2.35476
2.35477
2.35477
2.35477
2.35481
2.35479
2.35493
2.35475
2.35505
2.35465
2.35396
2.35399
2.35397
2.35398
2.35397
2.35397
2.35397
2.35398
2.35398
2.35401
2.35399
2.35413
2.35395
2.35425
2.35386
2.35318
2.35321
2.35319
2.35319
2.35318
2.35318
2.35318
2.35318
2.35318
2.35322
2.35319
2.35334
2.35315
2.35345
2.35307
2.35239
2.35242
2.3524
2.3524
2.3524
2.35239
2.35239
2.35239
2.35239
2.35242
2.35239
2.35254
2.35235
2.35266
2.35228
2.35161
2.35164
2.35162
2.35162
2.35161
2.3516
2.35159
2.35159
2.35159
2.35162
2.35159
2.35174
2.35155
2.35186
2.35149
2.35083
2.35086
2.35083
2.35083
2.35082
2.35081
2.3508
2.35079
2.35079
2.35082
2.35078
2.35094
2.35075
2.35106
2.3507
2.35005
2.35008
2.35005
2.35005
2.35003
2.35002
2.35
2.34999
2.34998
2.35002
2.34998
2.35014
2.34995
2.35026
2.34992
2.34927
2.3493
2.34927
2.34926
2.34924
2.34923
2.34921
2.34919
2.34918
2.34921
2.34917
2.34934
2.34915
2.34947
2.34915
2.3485
2.34853
2.3485
2.34848
2.34846
2.34844
2.34841
2.34839
2.34837
2.3484
2.34835
2.34852
2.34835
2.34867
2.34839
2.34773
2.34776
2.34773
2.34771
2.34768
2.34765
2.34762
2.34759
2.34756
2.34758
2.34753
2.34771
2.34754
2.34788
2.34763
2.34697
2.34699
2.34696
2.34694
2.3469
2.34686
2.34682
2.34679
2.34675
2.34676
2.3467
2.34688
2.34672
2.34708
2.3469
2.34622
2.34624
2.3462
2.34617
2.34613
2.34608
2.34603
2.34598
2.34593
2.34593
2.34586
2.34603
2.34589
2.34627
2.34619
2.34548
2.34549
2.34545
2.34542
2.34537
2.34531
2.34524
2.34518
2.34511
2.34509
2.345
2.34516
2.34503
2.34544
2.3455
2.34475
2.34476
2.34471
2.34467
2.34461
2.34454
2.34446
2.34438
2.34428
2.34424
2.34413
2.34426
2.34414
2.34459
2.34493
2.34403
2.34403
2.34399
2.34394
2.34387
2.34378
2.34369
2.34359
2.34346
2.34339
2.34324
2.34332
2.34318
2.34361
2.34421
2.34332
2.34332
2.34327
2.34322
2.34314
2.34304
2.34293
2.3428
2.34265
2.34253
2.34233
2.34234
2.34218
2.34266
2.34432
2.34131
2.34129
2.34124
2.34116
2.34105
2.34091
2.34074
2.34054
2.3403
2.34003
2.33968
2.33928
2.33871
2.33797
2.33505
2.33834
2.33832
2.33825
2.33815
2.338
2.33781
2.33757
2.33729
2.33693
2.33652
2.336
2.33537
2.3345
2.33429
2.3359
2.33623
2.33621
2.33614
2.33604
2.33592
2.33575
2.33556
2.33533
2.33507
2.33478
2.33448
2.3342
2.33362
2.33294
2.33418
2.33496
2.33494
2.3349
2.33484
2.33475
2.33465
2.33454
2.33441
2.33427
2.33411
2.33395
2.33384
2.33364
2.33302
2.33293
2.33418
2.33417
2.33414
2.3341
2.33405
2.33398
2.33389
2.33379
2.33368
2.33355
2.33339
2.33325
2.33314
2.33272
2.33146
2.33367
2.33366
2.33364
2.3336
2.33356
2.3335
2.33343
2.33335
2.33326
2.33316
2.33305
2.33292
2.33293
2.33294
2.33105
2.33337
2.33337
2.33335
2.33333
2.33329
2.33325
2.33321
2.33315
2.3331
2.33303
2.33295
2.33281
2.3328
2.33294
2.33082
2.33328
2.33327
2.33326
2.33324
2.33322
2.33319
2.33316
2.33312
2.33308
2.33304
2.33298
2.33286
2.33284
2.3329
2.3307
2.33331
2.33331
2.3333
2.33329
2.33327
2.33325
2.33322
2.33319
2.33316
2.33313
2.3331
2.33301
2.33303
2.33288
2.33079
2.33344
2.33343
2.33342
2.33341
2.3334
2.33339
2.33337
2.33334
2.33332
2.33329
2.33327
2.3332
2.33328
2.33285
2.33096
2.33363
2.33363
2.33362
2.33362
2.3336
2.33359
2.33357
2.33355
2.33353
2.3335
2.33346
2.3334
2.33351
2.33279
2.33117
2.33389
2.33389
2.33388
2.33387
2.33386
2.33385
2.33383
2.33381
2.33378
2.33375
2.3337
2.33364
2.33374
2.3328
2.33142
2.33421
2.33421
2.3342
2.33419
2.33418
2.33416
2.33414
2.33413
2.3341
2.33407
2.33403
2.33398
2.33403
2.33292
2.33173
2.3346
2.33459
2.33458
2.33457
2.33456
2.33455
2.33453
2.33451
2.33449
2.33446
2.33441
2.33439
2.3343
2.33314
2.33209
2.33505
2.33504
2.33503
2.33502
2.33501
2.33499
2.33497
2.33495
2.33492
2.33489
2.33483
2.33483
2.33457
2.33344
2.33248
2.33557
2.33556
2.33555
2.33554
2.33553
2.33551
2.33549
2.33546
2.33543
2.33538
2.33532
2.33533
2.33489
2.33383
2.33289
2.33616
2.33615
2.33615
2.33613
2.33612
2.3361
2.33608
2.33605
2.33601
2.33596
2.3359
2.3359
2.3353
2.33432
2.3334
2.33684
2.33683
2.33683
2.33682
2.3368
2.33678
2.33675
2.33673
2.33669
2.33663
2.33658
2.33653
2.33582
2.3349
2.334
2.33761
2.3376
2.3376
2.33758
2.33757
2.33755
2.33752
2.33749
2.33746
2.3374
2.33736
2.33722
2.33644
2.33559
2.33471
2.33847
2.33846
2.33845
2.33844
2.33842
2.3384
2.33838
2.33835
2.33831
2.33825
2.33822
2.33797
2.33718
2.33636
2.3355
2.3394
2.33939
2.33938
2.33937
2.33936
2.33934
2.33932
2.33929
2.33925
2.3392
2.33916
2.33881
2.33802
2.33722
2.33638
2.3404
2.34039
2.34039
2.34038
2.34037
2.34035
2.34034
2.34031
2.34028
2.34023
2.34017
2.33973
2.33896
2.33817
2.33735
2.34146
2.34145
2.34145
2.34145
2.34144
2.34143
2.34142
2.3414
2.34137
2.34133
2.34123
2.34072
2.33998
2.33919
2.33839
2.34256
2.34255
2.34255
2.34255
2.34255
2.34254
2.34254
2.34252
2.3425
2.34247
2.34232
2.34175
2.34104
2.34028
2.3395
2.34366
2.34365
2.34365
2.34366
2.34366
2.34367
2.34367
2.34366
2.34365
2.34362
2.3434
2.34282
2.34213
2.34139
2.34063
2.34473
2.34473
2.34474
2.34474
2.34476
2.34477
2.34478
2.34478
2.34478
2.34475
2.34446
2.34388
2.3432
2.34248
2.34175
2.34574
2.34575
2.34576
2.34577
2.34579
2.34581
2.34583
2.34585
2.34586
2.3458
2.34547
2.34489
2.34423
2.34353
2.34283
2.34665
2.34666
2.34667
2.34669
2.34672
2.34675
2.34678
2.34681
2.34683
2.34674
2.34636
2.34579
2.34515
2.34447
2.3438
2.34741
2.34742
2.34744
2.34747
2.3475
2.34754
2.34758
2.34762
2.34764
2.34751
2.3471
2.34654
2.34592
2.34527
2.34464
2.34798
2.348
2.34802
2.34806
2.3481
2.34815
2.3482
2.34825
2.34825
2.34808
2.34765
2.34711
2.34651
2.3459
2.3453
2.34832
2.34834
2.34837
2.34841
2.34846
2.34852
2.34858
2.34863
2.34862
2.3484
2.34797
2.34744
2.34687
2.34629
2.34574
2.34837
2.3484
2.34843
2.34848
2.34854
2.3486
2.34867
2.34873
2.34869
2.34844
2.34801
2.3475
2.34695
2.34641
2.34589
2.3481
2.34813
2.34817
2.34822
2.34829
2.34836
2.34844
2.34848
2.34841
2.34813
2.34771
2.34722
2.3467
2.34619
2.34571
2.34747
2.34751
2.34754
2.3476
2.34767
2.34775
2.34783
2.34786
2.34774
2.34745
2.34703
2.34656
2.34608
2.3456
2.34514
2.34643
2.34647
2.34652
2.34658
2.34665
2.34674
2.34681
2.34681
2.34667
2.34636
2.34595
2.3455
2.34504
2.3446
2.34417
2.34497
2.34502
2.34506
2.34513
2.34521
2.34529
2.34535
2.34533
2.34515
2.34483
2.34443
2.344
2.34357
2.34316
2.34276
2.34304
2.3431
2.34315
2.34321
2.34329
2.34337
2.34341
2.34336
2.34315
2.34283
2.34244
2.34203
2.34163
2.34124
2.34087
2.34064
2.3407
2.34075
2.34082
2.3409
2.34097
2.34099
2.3409
2.34068
2.34035
2.33998
2.33959
2.33921
2.33884
2.33849
2.33774
2.3378
2.33785
2.33792
2.33799
2.33805
2.33804
2.33792
2.33767
2.33735
2.33699
2.33662
2.33626
2.33592
2.33558
2.33431
2.33437
2.33442
2.33449
2.33455
2.33458
2.33454
2.33439
2.33413
2.33381
2.33347
2.33311
2.33277
2.33244
2.33211
2.33036
2.33042
2.33048
2.33053
2.33058
2.33059
2.33051
2.33033
2.33006
2.32975
2.32941
2.32906
2.32874
2.32841
2.32807
2.32586
2.32591
2.32596
2.32601
2.32602
2.32599
2.32588
2.32568
2.32539
2.32508
2.32474
2.32441
2.32409
2.32376
2.32341
2.32084
2.32087
2.32092
2.32094
2.32092
2.32085
2.32069
2.32045
2.32016
2.31983
2.3195
2.31916
2.31884
2.3185
2.31812
2.31531
2.31531
2.31535
2.31533
2.31526
2.31514
2.31493
2.31466
2.31434
2.314
2.31365
2.31331
2.31296
2.3126
2.31218
2.30932
2.30926
2.30927
2.3092
2.30905
2.30885
2.30859
2.30827
2.30791
2.30754
2.30717
2.3068
2.30642
2.30602
2.30554
2.30301
2.30286
2.30283
2.30269
2.30244
2.30215
2.3018
2.30141
2.30099
2.30056
2.30014
2.29972
2.29929
2.29883
2.29828
2.29654
2.29624
2.29615
2.29589
2.2955
2.29506
2.29459
2.29408
2.29357
2.29306
2.29255
2.29205
2.29155
2.29099
2.29035
2.29031
2.28976
2.28956
2.28913
2.28854
2.2879
2.28723
2.28656
2.28589
2.28524
2.2846
2.28397
2.28335
2.28267
2.28191
2.28486
2.28392
2.28356
2.28287
2.28197
2.28103
2.28008
2.27914
2.27822
2.27734
2.2765
2.27568
2.27487
2.27401
2.27308
2.28109
2.27957
2.27894
2.27787
2.27652
2.27512
2.27372
2.27235
2.27105
2.26981
2.26864
2.26752
2.26642
2.26529
2.26412
2.27996
2.27765
2.27665
2.27505
2.27307
2.27101
2.26894
2.26694
2.26503
2.26324
2.26156
2.25997
2.25843
2.25691
2.2554
2.28243
2.2792
2.27775
2.27549
2.27269
2.26973
2.26675
2.26385
2.26108
2.25847
2.25602
2.25372
2.25154
2.24943
2.24742
2.28903
2.28496
2.28314
2.2802
2.27648
2.27244
2.26831
2.26423
2.26032
2.2566
2.25311
2.24983
2.24676
2.24385
2.24116
2.29926
2.29476
2.2928
2.28936
2.28485
2.27977
2.27442
2.26902
2.26374
2.25868
2.2539
2.24941
2.24521
2.24131
2.23777
2.31163
2.30738
2.30574
2.30223
2.29731
2.29153
2.28524
2.2787
2.27214
2.26572
2.25957
2.25375
2.2483
2.24325
2.23875
2.32334
2.32004
2.31919
2.31613
2.3114
2.30554
2.2989
2.29178
2.28442
2.27706
2.26987
2.26297
2.25645
2.25044
2.2451
2.33183
2.32979
2.32997
2.32784
2.3239
2.31866
2.31242
2.3055
2.29814
2.2906
2.28308
2.27575
2.26875
2.26226
2.25648
2.33593
2.33503
2.33616
2.3351
2.33231
2.32819
2.32303
2.31705
2.31049
2.3036
2.29656
2.28957
2.28281
2.27646
2.27073
2.33629
2.336
2.33759
2.33735
2.33568
2.33284
2.32903
2.3244
2.31916
2.31348
2.30755
2.30155
2.29564
2.29002
2.28483
2.3345
2.33427
2.33587
2.33611
2.33525
2.33347
2.33088
2.32761
2.32377
2.31949
2.31492
2.3102
2.30547
2.30089
2.29656
2.33201
2.33164
2.33298
2.33333
2.33291
2.33184
2.33019
2.328
2.32535
2.32232
2.31901
2.31552
2.31196
2.30844
2.30504
2.32968
2.32911
2.33007
2.33038
2.33017
2.32951
2.32845
2.327
2.32521
2.32313
2.32082
2.31834
2.31577
2.3132
2.31064
2.32813
2.32732
2.32791
2.32808
2.32792
2.32748
2.32677
2.3258
2.32459
2.32317
2.32157
2.31985
2.31804
2.3162
2.31434
2.32734
2.32642
2.32673
2.32677
2.3266
2.32626
2.32575
2.32507
2.32422
2.32323
2.32211
2.3209
2.31962
2.3183
2.31695
2.32717
2.32624
2.32636
2.32632
2.32614
2.32584
2.32544
2.32493
2.32431
2.32358
2.32277
2.3219
2.32097
2.32001
2.319
2.32748
2.3266
2.32661
2.32651
2.32632
2.32606
2.32572
2.32532
2.32483
2.32428
2.32367
2.32301
2.32231
2.32159
2.32083
2.32814
2.32734
2.32729
2.32716
2.32698
2.32674
2.32645
2.32611
2.32572
2.32528
2.3248
2.32429
2.32375
2.32319
2.3226
2.32904
2.32834
2.32826
2.32813
2.32795
2.32774
2.32749
2.3272
2.32687
2.32651
2.32613
2.32571
2.32528
2.32483
2.32436
2.33012
2.32952
2.32943
2.3293
2.32913
2.32894
2.32872
2.32847
2.3282
2.3279
2.32757
2.32723
2.32688
2.32652
2.32613
2.33129
2.33078
2.33069
2.33057
2.33043
2.33025
2.33006
2.32985
2.32961
2.32936
2.32909
2.32881
2.32851
2.32821
2.32789
2.33251
2.33208
2.332
2.3319
2.33176
2.33161
2.33144
2.33126
2.33106
2.33085
2.33062
2.33038
2.33014
2.32988
2.32962
2.33374
2.33339
2.33331
2.33322
2.3331
2.33297
2.33283
2.33267
2.3325
2.33232
2.33213
2.33193
2.33172
2.33151
2.33129
2.33494
2.33466
2.33459
2.33451
2.33441
2.3343
2.33417
2.33404
2.3339
2.33375
2.33359
2.33342
2.33325
2.33307
2.33289
2.33611
2.33588
2.33582
2.33575
2.33566
2.33557
2.33547
2.33535
2.33524
2.33511
2.33498
2.33484
2.33469
2.33455
2.33439
2.33721
2.33703
2.33698
2.33692
2.33685
2.33677
2.33669
2.33659
2.3365
2.33639
2.33628
2.33617
2.33605
2.33593
2.3358
2.33825
2.33811
2.33807
2.33802
2.33796
2.3379
2.33783
2.33775
2.33767
2.33759
2.3375
2.3374
2.33731
2.33721
2.3371
2.33922
2.33911
2.33908
2.33904
2.33899
2.33894
2.33889
2.33883
2.33876
2.33869
2.33862
2.33855
2.33847
2.33839
2.33831
2.34011
2.34003
2.34001
2.33998
2.33994
2.3399
2.33986
2.33981
2.33976
2.33971
2.33965
2.33959
2.33953
2.33947
2.33941
2.34094
2.34088
2.34086
2.34084
2.34081
2.34078
2.34075
2.34071
2.34068
2.34063
2.34059
2.34055
2.3405
2.34046
2.34041
2.34169
2.34165
2.34164
2.34162
2.3416
2.34158
2.34156
2.34153
2.3415
2.34148
2.34145
2.34141
2.34138
2.34135
2.34131
2.34237
2.34234
2.34234
2.34233
2.34232
2.34231
2.34229
2.34227
2.34226
2.34224
2.34222
2.3422
2.34218
2.34215
2.34213
2.34298
2.34297
2.34297
2.34297
2.34296
2.34296
2.34295
2.34294
2.34293
2.34292
2.34291
2.3429
2.34289
2.34288
2.34287
2.34354
2.34354
2.34354
2.34354
2.34354
2.34354
2.34354
2.34353
2.34353
2.34353
2.34353
2.34353
2.34353
2.34352
2.34352
2.34403
2.34404
2.34404
2.34405
2.34405
2.34405
2.34406
2.34406
2.34407
2.34407
2.34408
2.34408
2.34409
2.3441
2.34411
2.34447
2.34447
2.34448
2.34448
2.34449
2.3445
2.34451
2.34451
2.34453
2.34454
2.34455
2.34456
2.34458
2.3446
2.34461
2.34483
2.34483
2.34484
2.34485
2.34486
2.34487
2.34489
2.3449
2.34492
2.34493
2.34495
2.34497
2.345
2.34502
2.34504
2.34512
2.34512
2.34513
2.34514
2.34515
2.34517
2.34518
2.3452
2.34522
2.34524
2.34527
2.34529
2.34532
2.34535
2.34537
2.34532
2.34531
2.34533
2.34534
2.34536
2.34537
2.34539
2.34541
2.34544
2.34546
2.34549
2.34551
2.34554
2.34557
2.34559
2.34541
2.34541
2.34543
2.34544
2.34546
2.34548
2.3455
2.34552
2.34554
2.34557
2.34559
2.34562
2.34564
2.34566
2.34568
2.3454
2.3454
2.34542
2.34544
2.34546
2.34547
2.34549
2.34551
2.34553
2.34555
2.34557
2.34559
2.3456
2.34562
2.34563
2.34529
2.34529
2.34531
2.34533
2.34534
2.34536
2.34537
2.34539
2.3454
2.34541
2.34542
2.34543
2.34544
2.34545
2.34545
2.34509
2.34509
2.34511
2.34513
2.34514
2.34515
2.34516
2.34517
2.34517
2.34518
2.34518
2.34519
2.34519
2.34518
2.34518
2.34485
2.34485
2.34486
2.34487
2.34488
2.34489
2.34489
2.34489
2.3449
2.3449
2.3449
2.34489
2.34489
2.34488
2.34487
2.34458
2.34457
2.34458
2.34459
2.34459
2.3446
2.3446
2.3446
2.3446
2.34459
2.34459
2.34458
2.34458
2.34457
2.34456
2.34429
2.34428
2.34429
2.34429
2.3443
2.3443
2.3443
2.3443
2.34429
2.34429
2.34428
2.34428
2.34427
2.34426
2.34425
2.344
2.34399
2.34399
2.344
2.344
2.344
2.344
2.344
2.34399
2.34399
2.34398
2.34397
2.34396
2.34395
2.34394
2.34371
2.3437
2.34371
2.34371
2.34371
2.34371
2.34371
2.34371
2.3437
2.3437
2.34369
2.34368
2.34367
2.34366
2.34365
2.34343
2.34342
2.34343
2.34343
2.34343
2.34343
2.34343
2.34343
2.34342
2.34342
2.34341
2.3434
2.34339
2.34338
2.34337
2.34316
2.34316
2.34316
2.34317
2.34317
2.34317
2.34316
2.34316
2.34316
2.34315
2.34314
2.34314
2.34313
2.34312
2.3431
2.34291
2.3429
2.34291
2.34291
2.34291
2.34291
2.34291
2.34291
2.3429
2.3429
2.34289
2.34288
2.34287
2.34286
2.34285
2.34267
2.34266
2.34267
2.34267
2.34267
2.34267
2.34267
2.34267
2.34266
2.34266
2.34265
2.34264
2.34263
2.34262
2.34261
2.34244
2.34244
2.34244
2.34245
2.34245
2.34245
2.34244
2.34244
2.34244
2.34243
2.34242
2.34242
2.34241
2.3424
2.34239
2.34223
2.34223
2.34223
2.34223
2.34224
2.34223
2.34223
2.34223
2.34223
2.34222
2.34221
2.34221
2.3422
2.34219
2.34218
2.34203
2.34203
2.34203
2.34204
2.34204
2.34204
2.34203
2.34203
2.34203
2.34202
2.34202
2.34201
2.342
2.342
2.34199
2.34185
2.34185
2.34185
2.34185
2.34185
2.34185
2.34185
2.34185
2.34184
2.34184
2.34183
2.34183
2.34182
2.34181
2.34181
2.34168
2.34167
2.34168
2.34168
2.34168
2.34168
2.34168
2.34167
2.34167
2.34167
2.34166
2.34166
2.34165
2.34164
2.34164
2.34152
2.34151
2.34152
2.34152
2.34152
2.34152
2.34152
2.34152
2.34151
2.34151
2.3415
2.3415
2.34149
2.34149
2.34148
2.34137
2.34137
2.34137
2.34137
2.34137
2.34137
2.34137
2.34137
2.34136
2.34136
2.34136
2.34135
2.34135
2.34134
2.34133
2.34123
2.34123
2.34123
2.34123
2.34123
2.34123
2.34123
2.34123
2.34123
2.34122
2.34122
2.34121
2.34121
2.3412
2.3412
2.3411
2.3411
2.3411
2.3411
2.3411
2.3411
2.3411
2.3411
2.3411
2.34109
2.34109
2.34109
2.34108
2.34108
2.34107
2.34098
2.34098
2.34098
2.34099
2.34099
2.34098
2.34098
2.34098
2.34098
2.34098
2.34097
2.34097
2.34097
2.34096
2.34096
2.34087
2.34087
2.34087
2.34087
2.34087
2.34087
2.34087
2.34087
2.34087
2.34087
2.34086
2.34086
2.34086
2.34085
2.34085
2.34077
2.34077
2.34077
2.34077
2.34077
2.34077
2.34077
2.34077
2.34077
2.34076
2.34076
2.34076
2.34076
2.34075
2.34075
2.34068
2.34067
2.34068
2.34068
2.34068
2.34068
2.34068
2.34067
2.34067
2.34067
2.34067
2.34066
2.34066
2.34066
2.34065
2.34059
2.34059
2.34059
2.34059
2.34059
2.34059
2.34059
2.34059
2.34059
2.34058
2.34058
2.34058
2.34057
2.34057
2.34057
2.34051
2.34051
2.34051
2.34051
2.34051
2.34051
2.34051
2.34051
2.3405
2.3405
2.3405
2.3405
2.34049
2.34049
2.34049
2.34043
2.34043
2.34043
2.34043
2.34043
2.34043
2.34043
2.34043
2.34043
2.34043
2.34042
2.34042
2.34042
2.34042
2.34041
2.34036
2.34036
2.34036
2.34036
2.34036
2.34036
2.34036
2.34036
2.34036
2.34036
2.34035
2.34035
2.34035
2.34035
2.34034
2.3403
2.34029
2.3403
2.3403
2.3403
2.3403
2.3403
2.34029
2.34029
2.34029
2.34029
2.34029
2.34029
2.34028
2.34028
2.34023
2.34023
2.34024
2.34024
2.34024
2.34024
2.34024
2.34023
2.34023
2.34023
2.34023
2.34023
2.34023
2.34022
2.34022
2.34018
2.34018
2.34018
2.34018
2.34018
2.34018
2.34018
2.34018
2.34018
2.34018
2.34017
2.34017
2.34017
2.34017
2.34017
2.34013
2.34013
2.34013
2.34013
2.34013
2.34013
2.34013
2.34013
2.34013
2.34012
2.34012
2.34012
2.34012
2.34012
2.34012
2.34008
2.34008
2.34008
2.34008
2.34008
2.34008
2.34008
2.34008
2.34008
2.34008
2.34007
2.34007
2.34007
2.34007
2.34007
2.34003
2.34003
2.34003
2.34003
2.34003
2.34003
2.34003
2.34003
2.34003
2.34003
2.34003
2.34003
2.34003
2.34003
2.34002
2.33999
2.33999
2.33999
2.33999
2.33999
2.33999
2.33999
2.33999
2.33999
2.33999
2.33999
2.33999
2.33999
2.33998
2.33998
2.33995
2.33995
2.33995
2.33995
2.33995
2.33995
2.33995
2.33995
2.33995
2.33995
2.33995
2.33995
2.33995
2.33995
2.33994
2.33992
2.33992
2.33992
2.33992
2.33992
2.33992
2.33992
2.33992
2.33992
2.33991
2.33991
2.33991
2.33991
2.33991
2.33991
2.33988
2.33988
2.33988
2.33988
2.33988
2.33988
2.33988
2.33988
2.33988
2.33988
2.33988
2.33988
2.33988
2.33988
2.33988
2.33985
2.33985
2.33985
2.33985
2.33985
2.33985
2.33985
2.33985
2.33985
2.33985
2.33985
2.33985
2.33985
2.33985
2.33984
2.33982
2.33982
2.33982
2.33982
2.33982
2.33982
2.33982
2.33982
2.33982
2.33982
2.33982
2.33982
2.33982
2.33982
2.33982
2.33979
2.33979
2.33979
2.33979
2.33979
2.33979
2.33979
2.33979
2.33979
2.33979
2.33979
2.33979
2.33979
2.33979
2.33979
2.33976
2.33977
2.33977
2.33977
2.33977
2.33977
2.33977
2.33977
2.33977
2.33976
2.33976
2.33976
2.33976
2.33976
2.33976
2.33974
2.33974
2.33974
2.33974
2.33974
2.33974
2.33974
2.33974
2.33974
2.33974
2.33974
2.33974
2.33974
2.33974
2.33974
2.33972
2.33972
2.33972
2.33972
2.33972
2.33972
2.33972
2.33972
2.33972
2.33972
2.33972
2.33972
2.33972
2.33971
2.33971
2.33969
2.33969
2.33969
2.33969
2.33969
2.33969
2.33969
2.33969
2.33969
2.33969
2.33969
2.33969
2.33969
2.33969
2.33969
2.33967
2.33967
2.33967
2.33967
2.33967
2.33967
2.33967
2.33967
2.33967
2.33967
2.33967
2.33967
2.33967
2.33967
2.33967
2.33965
2.33965
2.33965
2.33965
2.33965
2.33965
2.33965
2.33965
2.33965
2.33965
2.33965
2.33965
2.33965
2.33965
2.33965
2.33963
2.33963
2.33963
2.33963
2.33963
2.33963
2.33963
2.33963
2.33963
2.33963
2.33963
2.33963
2.33963
2.33963
2.33963
2.33961
2.33961
2.33961
2.33961
2.33961
2.33961
2.33961
2.33961
2.33961
2.33961
2.33961
2.33961
2.33961
2.33961
2.33961
2.33959
2.33959
2.33959
2.33959
2.33959
2.33959
2.33959
2.33959
2.33959
2.33959
2.33959
2.33959
2.33959
2.33959
2.33959
2.33957
2.33957
2.33957
2.33957
2.33957
2.33957
2.33957
2.33957
2.33957
2.33957
2.33957
2.33957
2.33957
2.33957
2.33957
2.33955
2.33955
2.33955
2.33955
2.33955
2.33955
2.33955
2.33955
2.33955
2.33955
2.33955
2.33955
2.33955
2.33955
2.33955
2.33953
2.33953
2.33953
2.33953
2.33953
2.33953
2.33953
2.33953
2.33953
2.33953
2.33953
2.33953
2.33953
2.33953
2.33953
2.33951
2.33951
2.33951
2.33951
2.33951
2.33951
2.33951
2.33951
2.33951
2.33951
2.33951
2.33951
2.33951
2.33951
2.33951
2.33948
2.33949
2.33949
2.33949
2.33949
2.33949
2.33949
2.33949
2.33949
2.33949
2.33949
2.33949
2.33949
2.33949
2.33949
2.33946
2.33946
2.33946
2.33946
2.33946
2.33946
2.33946
2.33947
2.33947
2.33947
2.33947
2.33947
2.33947
2.33947
2.33947
2.33943
2.33944
2.33944
2.33944
2.33944
2.33944
2.33944
2.33944
2.33944
2.33944
2.33944
2.33944
2.33944
2.33944
2.33945
2.33941
2.33941
2.33941
2.33941
2.33941
2.33941
2.33941
2.33941
2.33942
2.33942
2.33942
2.33942
2.33942
2.33942
2.33942
2.33938
2.33938
2.33938
2.33938
2.33938
2.33938
2.33939
2.33939
2.33939
2.33939
2.33939
2.33939
2.33939
2.33939
2.33939
2.33934
2.33935
2.33935
2.33935
2.33935
2.33935
2.33935
2.33935
2.33936
2.33936
2.33936
2.33936
2.33936
2.33936
2.33936
2.33931
2.33932
2.33932
2.33932
2.33932
2.33932
2.33932
2.33932
2.33932
2.33932
2.33932
2.33932
2.33933
2.33933
2.33933
2.33926
2.33928
2.33928
2.33927
2.33928
2.33928
2.33928
2.33928
2.33928
2.33928
2.33928
2.33928
2.33929
2.33929
2.33929
2.33922
2.33923
2.33923
2.33923
2.33923
2.33923
2.33923
2.33923
2.33923
2.33924
2.33924
2.33924
2.33924
2.33925
2.33925
2.33916
2.33918
2.33917
2.33917
2.33918
2.33918
2.33918
2.33918
2.33918
2.33918
2.33919
2.33919
2.33919
2.3392
2.3392
2.3391
2.33911
2.33911
2.33911
2.33911
2.33911
2.33912
2.33912
2.33912
2.33912
2.33913
2.33913
2.33913
2.33914
2.33914
2.33902
2.33904
2.33904
2.33904
2.33904
2.33904
2.33904
2.33905
2.33905
2.33905
2.33906
2.33906
2.33906
2.33907
2.33907
2.33893
2.33895
2.33895
2.33895
2.33895
2.33895
2.33896
2.33896
2.33896
2.33897
2.33897
2.33898
2.33898
2.33899
2.33899
2.33882
2.33885
2.33884
2.33884
2.33885
2.33885
2.33885
2.33886
2.33886
2.33887
2.33887
2.33888
2.33889
2.33889
2.3389
2.33869
2.33872
2.33872
2.33872
2.33872
2.33872
2.33873
2.33873
2.33874
2.33874
2.33875
2.33876
2.33877
2.33878
2.33879
2.33852
2.33856
2.33856
2.33856
2.33856
2.33857
2.33857
2.33858
2.33859
2.3386
2.3386
2.33861
2.33862
2.33864
2.33865
2.33832
2.33837
2.33836
2.33837
2.33837
2.33838
2.33838
2.33839
2.3384
2.33841
2.33842
2.33844
2.33845
2.33846
2.33848
2.33807
2.33813
2.33812
2.33812
2.33813
2.33814
2.33815
2.33816
2.33817
2.33818
2.3382
2.33822
2.33823
2.33825
2.33827
2.33775
2.33782
2.33782
2.33782
2.33783
2.33784
2.33785
2.33786
2.33788
2.3379
2.33792
2.33794
2.33796
2.33799
2.33801
2.33734
2.33744
2.33743
2.33743
2.33744
2.33746
2.33747
2.33749
2.33751
2.33754
2.33756
2.33759
2.33762
2.33765
2.33769
2.33681
2.33693
2.33693
2.33693
2.33694
2.33696
2.33698
2.33701
2.33704
2.33707
2.33711
2.33715
2.33719
2.33723
2.33728
2.3361
2.33627
2.33626
2.33626
2.33628
2.33631
2.33634
2.33638
2.33642
2.33646
2.33651
2.33657
2.33662
2.33668
2.33674
2.33513
2.33536
2.33535
2.33535
2.33538
2.33542
2.33547
2.33552
2.33558
2.33564
2.33571
2.33579
2.33587
2.33595
2.33604
2.33376
2.33408