/*--------------------------------*- C++ -*----------------------------------*\
  =========                 |
  \\      /  F ield         | OpenFOAM: The Open Source CFD Toolbox
   \\    /   O peration     | Website:  https://openfoam.org
    \\  /    A nd           | Version:  7
     \\/     M anipulation  |
\*---------------------------------------------------------------------------*/
FoamFile
{
    version     2.0;
    format      ascii;
    class       volScalarField;
    location    "100";
    object      p_tot;
}
// * * * * * * * * * * * * * * * * * * * * * * * * * * * * * * * * * * * * * //

dimensions      [0 2 -2 0 0 0 0];

internalField   nonuniform List<scalar> 
32100
(
3.26839
3.26841
3.26845
3.26851
3.26859
3.26867
3.26874
3.26878
3.26874
3.26853
3.26791
3.26661
3.26077
3.23215
3.35503
3.25734
3.25736
3.25741
3.25747
3.25754
3.25763
3.25771
3.25777
3.25777
3.25764
3.25716
3.25647
3.26005
3.22628
3.32295
3.24627
3.24629
3.24634
3.2464
3.24649
3.24659
3.24669
3.2468
3.24688
3.24697
3.24703
3.24617
3.25718
3.22345
3.29111
3.23518
3.2352
3.23525
3.23532
3.23542
3.23554
3.23568
3.23584
3.23603
3.2363
3.23704
3.23516
3.24895
3.21939
3.26742
3.22406
3.22409
3.22414
3.22422
3.22433
3.22447
3.22464
3.22486
3.22514
3.22544
3.22674
3.22389
3.23788
3.21273
3.24948
3.21292
3.21295
3.213
3.21309
3.21321
3.21337
3.21357
3.21382
3.21416
3.2144
3.2161
3.21274
3.22608
3.20408
3.23382
3.20175
3.20178
3.20184
3.20194
3.20206
3.20223
3.20245
3.20272
3.20312
3.20325
3.2052
3.20163
3.21414
3.19442
3.21909
3.19055
3.19059
3.19065
3.19075
3.19088
3.19106
3.19129
3.19155
3.192
3.19204
3.19411
3.19046
3.20211
3.18445
3.20497
3.17933
3.17936
3.17943
3.17953
3.17967
3.17985
3.18008
3.18034
3.18082
3.18077
3.18287
3.17922
3.18999
3.17431
3.19143
3.16807
3.16811
3.16817
3.16827
3.16841
3.16859
3.16882
3.16907
3.16956
3.16944
3.17153
3.16793
3.17783
3.16397
3.17834
3.15678
3.15683
3.15689
3.15699
3.15712
3.1573
3.15753
3.15775
3.15825
3.15807
3.1601
3.15663
3.16568
3.15343
3.16556
3.14547
3.14551
3.14557
3.14567
3.1458
3.14597
3.1462
3.14639
3.14689
3.14666
3.14862
3.14531
3.15356
3.14272
3.15302
3.13412
3.13416
3.13422
3.13432
3.13445
3.1346
3.13482
3.135
3.13549
3.13523
3.13709
3.13396
3.14147
3.13188
3.14066
3.12275
3.12279
3.12284
3.12293
3.12306
3.12321
3.12342
3.12357
3.12404
3.12376
3.12552
3.12258
3.12941
3.12093
3.12844
3.11134
3.11139
3.11143
3.11152
3.11164
3.11178
3.11198
3.11211
3.11257
3.11227
3.11393
3.11119
3.11738
3.10988
3.11632
3.09991
3.09996
3.1
3.10008
3.1002
3.10032
3.10052
3.10063
3.10106
3.10076
3.10232
3.09977
3.10539
3.09875
3.10428
3.08846
3.0885
3.08854
3.08862
3.08873
3.08885
3.08903
3.08913
3.08954
3.08924
3.09069
3.08833
3.09344
3.08755
3.09232
3.07698
3.07702
3.07706
3.07714
3.07723
3.07735
3.07752
3.0776
3.07799
3.0777
3.07905
3.07688
3.08151
3.07629
3.08041
3.06548
3.06552
3.06556
3.06563
3.06572
3.06582
3.06598
3.06606
3.06642
3.06614
3.0674
3.0654
3.06961
3.06498
3.06854
3.05396
3.054
3.05403
3.0541
3.05418
3.05428
3.05443
3.05449
3.05484
3.05457
3.05574
3.0539
3.05772
3.05362
3.0567
3.04242
3.04246
3.04249
3.04255
3.04263
3.04271
3.04286
3.04291
3.04324
3.04298
3.04407
3.04238
3.04584
3.04222
3.04488
3.03086
3.0309
3.03093
3.03098
3.03106
3.03114
3.03127
3.03132
3.03162
3.03138
3.03239
3.03085
3.03399
3.03077
3.03307
3.01929
3.01933
3.01935
3.0194
3.01947
3.01954
3.01967
3.01971
3.02
3.01977
3.02071
3.0193
3.02215
3.0193
3.02127
3.0077
3.00773
3.00775
3.0078
3.00787
3.00794
3.00806
3.00809
3.00836
3.00815
3.00902
3.00774
3.01032
3.0078
3.0095
2.99609
2.99613
2.99615
2.99619
2.99625
2.99632
2.99643
2.99646
2.99671
2.99652
2.99732
2.99616
2.9985
2.99628
2.99773
2.98447
2.98451
2.98452
2.98457
2.98462
2.98468
2.98479
2.98482
2.98505
2.98487
2.98562
2.98456
2.98669
2.98474
2.98597
2.97284
2.97287
2.97289
2.97293
2.97298
2.97304
2.97313
2.97317
2.97338
2.97322
2.97391
2.97295
2.97488
2.97317
2.97422
2.96119
2.96123
2.96124
2.96128
2.96133
2.96138
2.96147
2.9615
2.96171
2.96155
2.96219
2.96132
2.96307
2.96157
2.96246
2.94954
2.94957
2.94958
2.94962
2.94967
2.94971
2.9498
2.94983
2.95002
2.94988
2.95047
2.94969
2.95127
2.94996
2.95069
2.93787
2.93791
2.93792
2.93795
2.93799
2.93804
2.93812
2.93815
2.93832
2.9382
2.93875
2.93804
2.93947
2.93832
2.93893
2.92619
2.92623
2.92624
2.92627
2.92631
2.92635
2.92643
2.92645
2.92662
2.92651
2.92702
2.92638
2.92767
2.92668
2.92716
2.91451
2.91454
2.91455
2.91458
2.91462
2.91466
2.91473
2.91476
2.91491
2.91481
2.91528
2.91471
2.91587
2.91502
2.9154
2.90281
2.90285
2.90285
2.90288
2.90292
2.90296
2.90302
2.90305
2.90319
2.9031
2.90354
2.90303
2.90408
2.90335
2.90363
2.89111
2.89114
2.89115
2.89117
2.89121
2.89124
2.89131
2.89133
2.89147
2.89139
2.89179
2.89134
2.89228
2.89167
2.89187
2.87939
2.87943
2.87943
2.87946
2.87949
2.87953
2.87959
2.87961
2.87974
2.87967
2.88004
2.87964
2.88048
2.87997
2.8801
2.86768
2.86771
2.86771
2.86774
2.86777
2.8678
2.86786
2.86788
2.868
2.86794
2.86828
2.86793
2.86869
2.86827
2.86833
2.85595
2.85598
2.85598
2.85601
2.85604
2.85607
2.85612
2.85614
2.85626
2.8562
2.85652
2.85621
2.85688
2.85655
2.85655
2.84421
2.84425
2.84425
2.84427
2.8443
2.84433
2.84438
2.8444
2.84451
2.84446
2.84475
2.84448
2.84508
2.84482
2.84477
2.83247
2.83251
2.83251
2.83253
2.83256
2.83258
2.83263
2.83265
2.83275
2.83271
2.83298
2.83275
2.83327
2.83308
2.83298
2.82073
2.82076
2.82076
2.82078
2.82081
2.82083
2.82088
2.8209
2.82099
2.82096
2.82121
2.82101
2.82147
2.82133
2.8212
2.80898
2.80901
2.80901
2.80903
2.80905
2.80908
2.80912
2.80914
2.80923
2.8092
2.80943
2.80926
2.80966
2.80958
2.8094
2.79722
2.79725
2.79725
2.79727
2.79729
2.79731
2.79735
2.79737
2.79746
2.79743
2.79764
2.7975
2.79785
2.79782
2.79761
2.78545
2.78549
2.78549
2.7855
2.78552
2.78555
2.78558
2.7856
2.78568
2.78566
2.78585
2.78574
2.78604
2.78605
2.78581
2.77369
2.77372
2.77372
2.77373
2.77375
2.77377
2.77381
2.77383
2.7739
2.77389
2.77406
2.77398
2.77423
2.77427
2.77401
2.76191
2.76195
2.76194
2.76196
2.76198
2.762
2.76203
2.76205
2.76212
2.76211
2.76227
2.7622
2.76241
2.7625
2.76221
2.75014
2.75017
2.75016
2.75018
2.7502
2.75022
2.75025
2.75027
2.75033
2.75032
2.75047
2.75043
2.7506
2.75071
2.7504
2.73835
2.73839
2.73838
2.7384
2.73841
2.73843
2.73846
2.73848
2.73853
2.73853
2.73866
2.73864
2.73878
2.73892
2.73859
2.72657
2.7266
2.7266
2.72661
2.72663
2.72664
2.72667
2.72669
2.72674
2.72674
2.72686
2.72685
2.72696
2.72712
2.72678
2.71478
2.71481
2.71481
2.71482
2.71483
2.71485
2.71488
2.71489
2.71494
2.71495
2.71505
2.71506
2.71513
2.71532
2.71497
2.70299
2.70302
2.70301
2.70303
2.70304
2.70305
2.70308
2.70309
2.70314
2.70315
2.70324
2.70326
2.70331
2.70351
2.70315
2.69119
2.69122
2.69122
2.69123
2.69124
2.69125
2.69128
2.69129
2.69133
2.69134
2.69142
2.69146
2.69148
2.6917
2.69133
2.67939
2.67942
2.67942
2.67943
2.67944
2.67945
2.67947
2.67949
2.67952
2.67954
2.67961
2.67966
2.67965
2.67989
2.6795
2.66759
2.66762
2.66761
2.66762
2.66763
2.66765
2.66766
2.66768
2.66771
2.66773
2.66779
2.66785
2.66782
2.66807
2.66768
2.65578
2.65582
2.65581
2.65582
2.65583
2.65584
2.65586
2.65587
2.6559
2.65592
2.65597
2.65604
2.65599
2.65626
2.65586
2.64398
2.64401
2.644
2.64401
2.64402
2.64403
2.64404
2.64406
2.64408
2.6441
2.64415
2.64423
2.64416
2.64443
2.64403
2.63217
2.6322
2.63219
2.6322
2.63221
2.63222
2.63223
2.63224
2.63227
2.63229
2.63232
2.63241
2.63233
2.63261
2.6322
2.62036
2.62039
2.62038
2.62039
2.62039
2.6204
2.62041
2.62042
2.62045
2.62047
2.6205
2.6206
2.62049
2.62078
2.62037
2.60854
2.60857
2.60856
2.60857
2.60858
2.60858
2.60859
2.60861
2.60862
2.60865
2.60867
2.60878
2.60866
2.60895
2.60854
2.59673
2.59676
2.59675
2.59675
2.59676
2.59677
2.59677
2.59678
2.5968
2.59683
2.59684
2.59695
2.59683
2.59712
2.59671
2.58491
2.58494
2.58493
2.58494
2.58494
2.58495
2.58495
2.58496
2.58498
2.585
2.58501
2.58513
2.58499
2.58529
2.58488
2.57309
2.57312
2.57311
2.57312
2.57312
2.57312
2.57313
2.57314
2.57315
2.57318
2.57318
2.5733
2.57315
2.57346
2.57305
2.56127
2.5613
2.56129
2.5613
2.5613
2.5613
2.56131
2.56131
2.56132
2.56135
2.56135
2.56148
2.56132
2.56162
2.56122
2.54945
2.54948
2.54947
2.54947
2.54947
2.54948
2.54948
2.54949
2.5495
2.54953
2.54952
2.54965
2.54948
2.54979
2.54938
2.53763
2.53766
2.53765
2.53765
2.53765
2.53765
2.53765
2.53766
2.53767
2.5377
2.53768
2.53782
2.53765
2.53795
2.53755
2.52581
2.52584
2.52582
2.52583
2.52582
2.52583
2.52583
2.52583
2.52584
2.52587
2.52585
2.52599
2.52581
2.52612
2.52572
2.51399
2.51402
2.514
2.514
2.514
2.514
2.514
2.514
2.514
2.51404
2.51401
2.51416
2.51397
2.51428
2.51388
2.50217
2.5022
2.50218
2.50218
2.50217
2.50217
2.50217
2.50217
2.50217
2.50221
2.50218
2.50233
2.50214
2.50244
2.50206
2.49034
2.49037
2.49036
2.49036
2.49035
2.49034
2.49034
2.49034
2.49034
2.49037
2.49034
2.49049
2.4903
2.49061
2.49023
2.47853
2.47855
2.47853
2.47853
2.47852
2.47852
2.47851
2.47851
2.4785
2.47854
2.4785
2.47866
2.47847
2.47878
2.4784
2.46671
2.46674
2.46672
2.46671
2.4667
2.46669
2.46668
2.46667
2.46667
2.4667
2.46666
2.46682
2.46663
2.46694
2.46658
2.45489
2.45492
2.4549
2.45489
2.45487
2.45486
2.45485
2.45484
2.45483
2.45486
2.45482
2.45499
2.4548
2.45511
2.45477
2.44308
2.44311
2.44308
2.44307
2.44305
2.44303
2.44301
2.443
2.44299
2.44302
2.44298
2.44314
2.44296
2.44328
2.44296
2.43127
2.4313
2.43127
2.43126
2.43123
2.43121
2.43118
2.43116
2.43114
2.43117
2.43113
2.4313
2.43112
2.43145
2.43116
2.41947
2.41949
2.41946
2.41944
2.41942
2.41938
2.41935
2.41933
2.41929
2.41932
2.41927
2.41944
2.41927
2.41961
2.41937
2.40767
2.40769
2.40766
2.40764
2.4076
2.40756
2.40752
2.40749
2.40744
2.40746
2.4074
2.40758
2.40742
2.40778
2.4076
2.39588
2.3959
2.39587
2.39584
2.39579
2.39575
2.39569
2.39565
2.39559
2.39559
2.39552
2.39569
2.39555
2.39593
2.39585
2.3841
2.38412
2.38408
2.38405
2.38399
2.38394
2.38387
2.38381
2.38373
2.38372
2.38363
2.38379
2.38366
2.38406
2.38413
2.37234
2.37235
2.3723
2.37226
2.3722
2.37213
2.37205
2.37197
2.37188
2.37183
2.37172
2.37186
2.37173
2.37218
2.37252
2.36058
2.36059
2.36054
2.36049
2.36042
2.36034
2.36024
2.36014
2.36002
2.35994
2.35979
2.35988
2.35974
2.36016
2.36076
2.34884
2.34884
2.34879
2.34874
2.34866
2.34856
2.34844
2.34832
2.34817
2.34805
2.34785
2.34785
2.3477
2.34817
2.34984
2.31406
2.31404
2.31399
2.31391
2.3138
2.31366
2.31349
2.31329
2.31305
2.31278
2.31243
2.31203
2.31146
2.31072
2.3078
2.25659
2.25657
2.2565
2.2564
2.25625
2.25606
2.25582
2.25554
2.25518
2.25477
2.25425
2.25362
2.25275
2.25254
2.25415
2.19998
2.19996
2.19989
2.19979
2.19967
2.1995
2.19931
2.19908
2.19882
2.19853
2.19823
2.19795
2.19737
2.19669
2.19793
2.14421
2.14419
2.14415
2.14409
2.144
2.1439
2.14379
2.14366
2.14352
2.14336
2.1432
2.14309
2.14289
2.14227
2.14218
2.08893
2.08892
2.08889
2.08885
2.0888
2.08873
2.08864
2.08854
2.08843
2.0883
2.08814
2.088
2.08789
2.08747
2.08621
2.03392
2.03391
2.03389
2.03385
2.03381
2.03375
2.03368
2.0336
2.03351
2.03341
2.0333
2.03317
2.03318
2.03319
2.0313
1.97912
1.97912
1.9791
1.97908
1.97904
1.979
1.97896
1.9789
1.97885
1.97878
1.9787
1.97856
1.97855
1.97869
1.97657
1.92453
1.92452
1.92451
1.92449
1.92447
1.92444
1.92441
1.92437
1.92433
1.92429
1.92423
1.92411
1.92409
1.92415
1.92195
1.87006
1.87006
1.87005
1.87004
1.87002
1.87
1.86997
1.86994
1.86991
1.86988
1.86985
1.86976
1.86978
1.86963
1.86754
1.81569
1.81568
1.81567
1.81566
1.81565
1.81564
1.81562
1.81559
1.81557
1.81554
1.81552
1.81545
1.81553
1.8151
1.81321
1.76138
1.76138
1.76137
1.76137
1.76135
1.76134
1.76132
1.7613
1.76128
1.76125
1.76121
1.76115
1.76126
1.76054
1.75892
1.70714
1.70714
1.70713
1.70712
1.70711
1.7071
1.70708
1.70706
1.70703
1.707
1.70695
1.70689
1.70699
1.70605
1.70467
1.65296
1.65296
1.65295
1.65294
1.65293
1.65291
1.65289
1.65288
1.65285
1.65282
1.65278
1.65273
1.65278
1.65167
1.65048
1.59885
1.59884
1.59883
1.59882
1.59881
1.5988
1.59878
1.59876
1.59874
1.59871
1.59866
1.59864
1.59855
1.59739
1.59634
1.5448
1.54479
1.54478
1.54477
1.54476
1.54474
1.54472
1.5447
1.54467
1.54464
1.54458
1.54458
1.54432
1.54319
1.54223
1.49082
1.49081
1.4908
1.49079
1.49078
1.49076
1.49074
1.49071
1.49068
1.49063
1.49057
1.49058
1.49014
1.48908
1.48814
1.43691
1.4369
1.4369
1.43688
1.43687
1.43685
1.43683
1.4368
1.43676
1.43671
1.43665
1.43665
1.43605
1.43507
1.43415
1.38309
1.38308
1.38308
1.38307
1.38305
1.38303
1.383
1.38298
1.38294
1.38288
1.38283
1.38278
1.38207
1.38115
1.38025
1.32936
1.32935
1.32935
1.32933
1.32932
1.3293
1.32927
1.32924
1.32921
1.32915
1.32911
1.32897
1.32819
1.32734
1.32646
1.27572
1.27571
1.2757
1.27569
1.27567
1.27565
1.27563
1.2756
1.27556
1.2755
1.27547
1.27522
1.27443
1.27361
1.27275
1.22215
1.22214
1.22213
1.22212
1.22211
1.22209
1.22207
1.22204
1.222
1.22195
1.22191
1.22156
1.22077
1.21997
1.21913
1.16865
1.16864
1.16864
1.16863
1.16862
1.1686
1.16859
1.16856
1.16853
1.16848
1.16842
1.16798
1.16721
1.16642
1.1656
1.11521
1.1152
1.1152
1.1152
1.11519
1.11518
1.11517
1.11515
1.11512
1.11508
1.11498
1.11447
1.11373
1.11294
1.11214
1.06181
1.0618
1.0618
1.0618
1.0618
1.06179
1.06179
1.06177
1.06175
1.06172
1.06157
1.061
1.06029
1.05953
1.05875
1.00841
1.0084
1.0084
1.00841
1.00841
1.00842
1.00842
1.00841
1.0084
1.00837
1.00815
1.00757
1.00688
1.00614
1.00538
0.954981
0.954979
0.954986
0.954994
0.955005
0.955018
0.95503
0.955033
0.95503
0.954998
0.954715
0.95413
0.953455
0.952735
0.952003
0.901494
0.901495
0.901506
0.901521
0.90154
0.901562
0.901583
0.901598
0.901607
0.901552
0.901215
0.900637
0.899977
0.899279
0.898576
0.847903
0.847909
0.847924
0.847945
0.847972
0.848003
0.848034
0.848059
0.848076
0.847986
0.847608
0.847039
0.846396
0.845722
0.845052
0.794163
0.794173
0.794192
0.79422
0.794254
0.794294
0.794335
0.794371
0.794387
0.794255
0.793849
0.79329
0.792666
0.792021
0.791386
0.740233
0.740249
0.740272
0.740306
0.74035
0.740399
0.74045
0.740495
0.740502
0.740326
0.739905
0.739358
0.738758
0.738147
0.737551
0.686068
0.686089
0.686117
0.686158
0.686208
0.686267
0.686327
0.686379
0.686367
0.686151
0.685725
0.685193
0.684619
0.684043
0.683487
0.631622
0.631649
0.631681
0.631728
0.631786
0.631853
0.631921
0.631975
0.631936
0.631686
0.631259
0.630745
0.630199
0.629658
0.629139
0.576851
0.576884
0.57692
0.576974
0.577039
0.577114
0.577188
0.577234
0.57716
0.576883
0.576459
0.575967
0.575453
0.574944
0.574457
0.521716
0.521755
0.521794
0.521851
0.521921
0.522
0.522075
0.522105
0.521994
0.521697
0.52128
0.520811
0.520327
0.519851
0.519395
0.46618
0.466225
0.466266
0.466329
0.466403
0.466486
0.466557
0.466563
0.466416
0.466106
0.465698
0.465247
0.46479
0.464346
0.463921
0.410219
0.410269
0.410314
0.41038
0.410458
0.41054
0.410602
0.410578
0.4104
0.41008
0.409681
0.40925
0.40882
0.408406
0.40801
0.353793
0.353849
0.353895
0.353962
0.354039
0.354118
0.354163
0.354106
0.353901
0.353578
0.35319
0.35278
0.352376
0.351989
0.351617
0.296893
0.296953
0.297002
0.297072
0.297149
0.297221
0.297243
0.297153
0.296926
0.296602
0.296228
0.295837
0.295455
0.295092
0.294738
0.239489
0.239551
0.239602
0.23967
0.23974
0.239797
0.239791
0.239667
0.239424
0.2391
0.23874
0.238371
0.238011
0.237667
0.237326
0.18156
0.181623
0.181674
0.181738
0.181797
0.181834
0.181795
0.181642
0.181385
0.181064
0.180716
0.180364
0.180024
0.179694
0.179358
0.123112
0.123173
0.123226
0.123284
0.123329
0.123338
0.123264
0.123083
0.122815
0.122496
0.122155
0.121814
0.121486
0.121164
0.120822
0.0641134
0.0641636
0.0642132
0.0642552
0.064271
0.0642446
0.0641333
0.063925
0.0636449
0.0633251
0.0629903
0.0626576
0.0623361
0.0620119
0.0616553
0.00458924
0.00462121
0.00466617
0.00468684
0.00466681
0.00459708
0.00444305
0.00420456
0.00390888
0.00358293
0.003247
0.0029137
0.00258764
0.00224958
0.00186552
-0.0554364
-0.055437
-0.0554025
-0.055416
-0.0554881
-0.0556148
-0.0558178
-0.056091
-0.0564089
-0.0567488
-0.0570959
-0.057442
-0.0577853
-0.0581497
-0.0585746
-0.11593
-0.115989
-0.115979
-0.116048
-0.116196
-0.116395
-0.11666
-0.116981
-0.117338
-0.11771
-0.118083
-0.118453
-0.118825
-0.11923
-0.119709
-0.176742
-0.176894
-0.176918
-0.177062
-0.177306
-0.177601
-0.177951
-0.178345
-0.178764
-0.179191
-0.179614
-0.180032
-0.180456
-0.180922
-0.181472
-0.237708
-0.238014
-0.238103
-0.238363
-0.238752
-0.239187
-0.239663
-0.240165
-0.240679
-0.241194
-0.241701
-0.2422
-0.242704
-0.243257
-0.2439
-0.298445
-0.298994
-0.299186
-0.29962
-0.300215
-0.300852
-0.301515
-0.302189
-0.302858
-0.303515
-0.304153
-0.304775
-0.305401
-0.306076
-0.306839
-0.358394
-0.35933
-0.359692
-0.36038
-0.361276
-0.362217
-0.363168
-0.36411
-0.365027
-0.365908
-0.366753
-0.36757
-0.368384
-0.369242
-0.370174
-0.416664
-0.418184
-0.418811
-0.419881
-0.421227
-0.422628
-0.424028
-0.425396
-0.426704
-0.427941
-0.429114
-0.430234
-0.431332
-0.432457
-0.433629
-0.472288
-0.474599
-0.475601
-0.477201
-0.479178
-0.481244
-0.483308
-0.485315
-0.48722
-0.489011
-0.490694
-0.492284
-0.493815
-0.495336
-0.496852
-0.524315
-0.527553
-0.529001
-0.531261
-0.534058
-0.537023
-0.540002
-0.542904
-0.545673
-0.548281
-0.550728
-0.553027
-0.555209
-0.557315
-0.559328
-0.572222
-0.576289
-0.578111
-0.581055
-0.584774
-0.588814
-0.592943
-0.597016
-0.600934
-0.604649
-0.608143
-0.611417
-0.614494
-0.617398
-0.620087
-0.616489
-0.62099
-0.622948
-0.626386
-0.630898
-0.635978
-0.641329
-0.646729
-0.65201
-0.657069
-0.661852
-0.66634
-0.670537
-0.674443
-0.677981
-0.658618
-0.662867
-0.66451
-0.668022
-0.672941
-0.678718
-0.685009
-0.69155
-0.698113
-0.704527
-0.710677
-0.716499
-0.721955
-0.726996
-0.731496
-0.701407
-0.704707
-0.70556
-0.708617
-0.713351
-0.719213
-0.725849
-0.732974
-0.740327
-0.747686
-0.75488
-0.761783
-0.768298
-0.77431
-0.779646
-0.747423
-0.749461
-0.749282
-0.751413
-0.755346
-0.760595
-0.766828
-0.773754
-0.781106
-0.788645
-0.796168
-0.803504
-0.8105
-0.81699
-0.822773
-0.797816
-0.798716
-0.797593
-0.798651
-0.80144
-0.805557
-0.810725
-0.816703
-0.823255
-0.830154
-0.83719
-0.844178
-0.850941
-0.857288
-0.86302
-0.851961
-0.852253
-0.850664
-0.850898
-0.852575
-0.855409
-0.859225
-0.863849
-0.869094
-0.874771
-0.880697
-0.886699
-0.892607
-0.898234
-0.903417
-0.908253
-0.908477
-0.906876
-0.906639
-0.907503
-0.909284
-0.911868
-0.915144
-0.918985
-0.923257
-0.927825
-0.932548
-0.93728
-0.941865
-0.946186
-0.965241
-0.965606
-0.964275
-0.963917
-0.964337
-0.965405
-0.967059
-0.969246
-0.971897
-0.974926
-0.978237
-0.981728
-0.985291
-0.98881
-0.992213
-1.02207
-1.02264
-1.02168
-1.02137
-1.02158
-1.02224
-1.0233
-1.02475
-1.02654
-1.02862
-1.03093
-1.03341
-1.03598
-1.03855
-1.04111
-1.07812
-1.07893
-1.07834
-1.07817
-1.07833
-1.07877
-1.07948
-1.08045
-1.08166
-1.08308
-1.08468
-1.0864
-1.08821
-1.09005
-1.09191
-1.13341
-1.13433
-1.13402
-1.13398
-1.13415
-1.13449
-1.135
-1.13568
-1.13653
-1.13752
-1.13864
-1.13985
-1.14113
-1.14245
-1.1438
-1.18808
-1.18901
-1.18889
-1.18893
-1.18911
-1.18941
-1.18981
-1.19032
-1.19094
-1.19167
-1.19248
-1.19335
-1.19428
-1.19524
-1.19625
-1.24227
-1.24315
-1.24314
-1.24324
-1.24343
-1.24369
-1.24403
-1.24443
-1.24492
-1.24547
-1.24608
-1.24674
-1.24744
-1.24816
-1.24892
-1.29611
-1.29691
-1.29696
-1.29709
-1.29727
-1.29751
-1.2978
-1.29814
-1.29853
-1.29897
-1.29945
-1.29996
-1.3005
-1.30106
-1.30165
-1.34971
-1.35041
-1.35049
-1.35062
-1.3508
-1.35101
-1.35126
-1.35155
-1.35188
-1.35224
-1.35262
-1.35304
-1.35347
-1.35392
-1.35439
-1.40313
-1.40373
-1.40382
-1.40395
-1.40412
-1.40431
-1.40453
-1.40478
-1.40505
-1.40535
-1.40568
-1.40602
-1.40637
-1.40673
-1.40712
-1.45646
-1.45697
-1.45706
-1.45718
-1.45732
-1.4575
-1.45769
-1.4579
-1.45814
-1.45839
-1.45866
-1.45894
-1.45924
-1.45954
-1.45986
-1.50974
-1.51017
-1.51025
-1.51035
-1.51049
-1.51064
-1.51081
-1.51099
-1.51119
-1.5114
-1.51163
-1.51187
-1.51211
-1.51237
-1.51263
-1.56301
-1.56336
-1.56344
-1.56353
-1.56365
-1.56378
-1.56392
-1.56408
-1.56425
-1.56443
-1.56462
-1.56482
-1.56503
-1.56524
-1.56546
-1.61631
-1.61659
-1.61666
-1.61674
-1.61684
-1.61695
-1.61708
-1.61721
-1.61735
-1.6175
-1.61766
-1.61783
-1.618
-1.61818
-1.61836
-1.66964
-1.66987
-1.66993
-1.67
-1.67009
-1.67018
-1.67028
-1.6704
-1.67051
-1.67064
-1.67077
-1.67091
-1.67106
-1.6712
-1.67136
-1.72304
-1.72322
-1.72327
-1.72333
-1.7234
-1.72348
-1.72356
-1.72366
-1.72375
-1.72386
-1.72397
-1.72408
-1.7242
-1.72432
-1.72445
-1.7765
-1.77664
-1.77668
-1.77673
-1.77679
-1.77685
-1.77692
-1.777
-1.77708
-1.77716
-1.77725
-1.77735
-1.77744
-1.77754
-1.77765
-1.83003
-1.83014
-1.83017
-1.83021
-1.83026
-1.83031
-1.83036
-1.83042
-1.83049
-1.83056
-1.83063
-1.8307
-1.83078
-1.83086
-1.83094
-1.88364
-1.88372
-1.88374
-1.88377
-1.88381
-1.88385
-1.88389
-1.88394
-1.88399
-1.88404
-1.8841
-1.88416
-1.88422
-1.88428
-1.88434
-1.93731
-1.93737
-1.93739
-1.93741
-1.93744
-1.93747
-1.9375
-1.93754
-1.93757
-1.93762
-1.93766
-1.9377
-1.93775
-1.93779
-1.93784
-1.99106
-1.9911
-1.99111
-1.99113
-1.99115
-1.99117
-1.99119
-1.99122
-1.99125
-1.99127
-1.9913
-1.99134
-1.99137
-1.9914
-1.99144
-2.04488
-2.04491
-2.04491
-2.04492
-2.04493
-2.04494
-2.04496
-2.04498
-2.04499
-2.04501
-2.04503
-2.04505
-2.04507
-2.0451
-2.04512
-2.09877
-2.09878
-2.09878
-2.09878
-2.09879
-2.09879
-2.0988
-2.09881
-2.09882
-2.09883
-2.09884
-2.09885
-2.09886
-2.09887
-2.09888
-2.15271
-2.15271
-2.15271
-2.15271
-2.15271
-2.15271
-2.15271
-2.15272
-2.15272
-2.15272
-2.15272
-2.15272
-2.15272
-2.15273
-2.15273
-2.20672
-2.20671
-2.20671
-2.2067
-2.2067
-2.2067
-2.20669
-2.20669
-2.20668
-2.20668
-2.20667
-2.20667
-2.20666
-2.20665
-2.20664
-2.26078
-2.26078
-2.26077
-2.26077
-2.26076
-2.26075
-2.26074
-2.26074
-2.26072
-2.26071
-2.2607
-2.26069
-2.26067
-2.26065
-2.26064
-2.31492
-2.31492
-2.31491
-2.3149
-2.31489
-2.31488
-2.31486
-2.31485
-2.31483
-2.31482
-2.3148
-2.31478
-2.31475
-2.31473
-2.31471
-2.36913
-2.36913
-2.36912
-2.36911
-2.3691
-2.36908
-2.36907
-2.36905
-2.36903
-2.36901
-2.36898
-2.36896
-2.36893
-2.3689
-2.36888
-2.42343
-2.42344
-2.42342
-2.42341
-2.42339
-2.42338
-2.42336
-2.42334
-2.42331
-2.42329
-2.42326
-2.42324
-2.42321
-2.42318
-2.42316
-2.47784
-2.47784
-2.47782
-2.47781
-2.47779
-2.47777
-2.47775
-2.47773
-2.47771
-2.47768
-2.47766
-2.47763
-2.47761
-2.47759
-2.47757
-2.53235
-2.53235
-2.53233
-2.53231
-2.53229
-2.53228
-2.53226
-2.53224
-2.53222
-2.5322
-2.53218
-2.53216
-2.53215
-2.53213
-2.53212
-2.58696
-2.58696
-2.58694
-2.58692
-2.58691
-2.58689
-2.58688
-2.58686
-2.58685
-2.58684
-2.58683
-2.58682
-2.58681
-2.5868
-2.5868
-2.64166
-2.64166
-2.64164
-2.64162
-2.64161
-2.6416
-2.64159
-2.64158
-2.64158
-2.64157
-2.64157
-2.64156
-2.64156
-2.64157
-2.64157
-2.6964
-2.6964
-2.69639
-2.69638
-2.69637
-2.69636
-2.69636
-2.69636
-2.69635
-2.69635
-2.69635
-2.69636
-2.69636
-2.69637
-2.69638
-2.75117
-2.75118
-2.75117
-2.75116
-2.75116
-2.75115
-2.75115
-2.75115
-2.75115
-2.75116
-2.75116
-2.75117
-2.75117
-2.75118
-2.75119
-2.80596
-2.80597
-2.80596
-2.80596
-2.80595
-2.80595
-2.80595
-2.80595
-2.80596
-2.80596
-2.80597
-2.80597
-2.80598
-2.80599
-2.806
-2.86075
-2.86076
-2.86076
-2.86075
-2.86075
-2.86075
-2.86075
-2.86075
-2.86076
-2.86076
-2.86077
-2.86078
-2.86079
-2.8608
-2.86081
-2.91554
-2.91555
-2.91554
-2.91554
-2.91554
-2.91554
-2.91554
-2.91554
-2.91555
-2.91555
-2.91556
-2.91557
-2.91558
-2.91559
-2.9156
-2.97032
-2.97033
-2.97032
-2.97032
-2.97032
-2.97032
-2.97032
-2.97032
-2.97033
-2.97033
-2.97034
-2.97035
-2.97036
-2.97037
-2.97038
-3.02509
-3.02509
-3.02509
-3.02508
-3.02508
-3.02508
-3.02509
-3.02509
-3.02509
-3.0251
-3.02511
-3.02511
-3.02512
-3.02513
-3.02515
-3.07984
-3.07985
-3.07984
-3.07984
-3.07984
-3.07984
-3.07984
-3.07984
-3.07985
-3.07985
-3.07986
-3.07987
-3.07988
-3.07989
-3.0799
-3.13458
-3.13459
-3.13458
-3.13458
-3.13458
-3.13458
-3.13458
-3.13458
-3.13459
-3.13459
-3.1346
-3.13461
-3.13462
-3.13463
-3.13464
-3.18931
-3.18931
-3.18931
-3.1893
-3.1893
-3.1893
-3.18931
-3.18931
-3.18931
-3.18932
-3.18933
-3.18933
-3.18934
-3.18935
-3.18936
-3.24402
-3.24402
-3.24402
-3.24402
-3.24401
-3.24402
-3.24402
-3.24402
-3.24402
-3.24403
-3.24404
-3.24404
-3.24405
-3.24406
-3.24407
-3.29872
-3.29872
-3.29872
-3.29871
-3.29871
-3.29871
-3.29872
-3.29872
-3.29872
-3.29873
-3.29873
-3.29874
-3.29875
-3.29875
-3.29876
-3.3534
-3.3534
-3.3534
-3.3534
-3.3534
-3.3534
-3.3534
-3.3534
-3.35341
-3.35341
-3.35342
-3.35342
-3.35343
-3.35344
-3.35344
-3.40807
-3.40808
-3.40807
-3.40807
-3.40807
-3.40807
-3.40807
-3.40808
-3.40808
-3.40808
-3.40809
-3.40809
-3.4081
-3.40811
-3.40811
-3.46273
-3.46274
-3.46273
-3.46273
-3.46273
-3.46273
-3.46273
-3.46273
-3.46274
-3.46274
-3.46275
-3.46275
-3.46276
-3.46276
-3.46277
-3.51738
-3.51738
-3.51738
-3.51738
-3.51738
-3.51738
-3.51738
-3.51738
-3.51739
-3.51739
-3.51739
-3.5174
-3.5174
-3.51741
-3.51742
-3.57202
-3.57202
-3.57202
-3.57202
-3.57202
-3.57202
-3.57202
-3.57202
-3.57202
-3.57203
-3.57203
-3.57204
-3.57204
-3.57205
-3.57205
-3.62665
-3.62665
-3.62665
-3.62665
-3.62665
-3.62665
-3.62665
-3.62665
-3.62665
-3.62666
-3.62666
-3.62666
-3.62667
-3.62667
-3.62668
-3.68127
-3.68127
-3.68127
-3.68126
-3.68126
-3.68127
-3.68127
-3.68127
-3.68127
-3.68127
-3.68128
-3.68128
-3.68128
-3.68129
-3.68129
-3.73588
-3.73588
-3.73588
-3.73588
-3.73588
-3.73588
-3.73588
-3.73588
-3.73588
-3.73588
-3.73589
-3.73589
-3.73589
-3.7359
-3.7359
-3.79048
-3.79048
-3.79048
-3.79048
-3.79048
-3.79048
-3.79048
-3.79048
-3.79048
-3.79049
-3.79049
-3.79049
-3.79049
-3.7905
-3.7905
-3.84507
-3.84508
-3.84507
-3.84507
-3.84507
-3.84507
-3.84507
-3.84508
-3.84508
-3.84508
-3.84508
-3.84509
-3.84509
-3.84509
-3.8451
-3.89966
-3.89966
-3.89966
-3.89966
-3.89966
-3.89966
-3.89966
-3.89966
-3.89966
-3.89967
-3.89967
-3.89967
-3.89968
-3.89968
-3.89968
-3.95424
-3.95424
-3.95424
-3.95424
-3.95424
-3.95424
-3.95424
-3.95424
-3.95425
-3.95425
-3.95425
-3.95425
-3.95426
-3.95426
-3.95426
-4.00882
-4.00882
-4.00882
-4.00882
-4.00882
-4.00882
-4.00882
-4.00882
-4.00882
-4.00882
-4.00883
-4.00883
-4.00883
-4.00883
-4.00884
-4.06339
-4.06339
-4.06339
-4.06339
-4.06339
-4.06339
-4.06339
-4.06339
-4.06339
-4.06339
-4.0634
-4.0634
-4.0634
-4.0634
-4.06341
-4.11795
-4.11796
-4.11795
-4.11795
-4.11795
-4.11795
-4.11795
-4.11796
-4.11796
-4.11796
-4.11796
-4.11796
-4.11796
-4.11797
-4.11797
-4.17252
-4.17252
-4.17251
-4.17251
-4.17251
-4.17251
-4.17251
-4.17252
-4.17252
-4.17252
-4.17252
-4.17252
-4.17252
-4.17253
-4.17253
-4.22707
-4.22707
-4.22707
-4.22707
-4.22707
-4.22707
-4.22707
-4.22707
-4.22707
-4.22707
-4.22708
-4.22708
-4.22708
-4.22708
-4.22708
-4.28162
-4.28162
-4.28162
-4.28162
-4.28162
-4.28162
-4.28162
-4.28162
-4.28162
-4.28163
-4.28163
-4.28163
-4.28163
-4.28163
-4.28163
-4.33617
-4.33617
-4.33617
-4.33617
-4.33617
-4.33617
-4.33617
-4.33617
-4.33617
-4.33617
-4.33618
-4.33618
-4.33618
-4.33618
-4.33618
-4.39072
-4.39072
-4.39072
-4.39072
-4.39072
-4.39072
-4.39072
-4.39072
-4.39072
-4.39072
-4.39072
-4.39072
-4.39072
-4.39072
-4.39073
-4.44526
-4.44526
-4.44526
-4.44526
-4.44526
-4.44526
-4.44526
-4.44526
-4.44526
-4.44526
-4.44526
-4.44526
-4.44526
-4.44527
-4.44527
-4.4998
-4.4998
-4.4998
-4.4998
-4.4998
-4.4998
-4.4998
-4.4998
-4.4998
-4.4998
-4.4998
-4.4998
-4.4998
-4.4998
-4.49981
-4.55433
-4.55433
-4.55433
-4.55433
-4.55433
-4.55433
-4.55433
-4.55433
-4.55433
-4.55434
-4.55434
-4.55434
-4.55434
-4.55434
-4.55434
-4.60887
-4.60887
-4.60887
-4.60887
-4.60887
-4.60887
-4.60887
-4.60887
-4.60887
-4.60887
-4.60887
-4.60887
-4.60887
-4.60887
-4.60887
-4.6634
-4.6634
-4.6634
-4.6634
-4.6634
-4.6634
-4.6634
-4.6634
-4.6634
-4.6634
-4.6634
-4.6634
-4.6634
-4.6634
-4.66341
-4.71793
-4.71793
-4.71793
-4.71793
-4.71793
-4.71793
-4.71793
-4.71793
-4.71793
-4.71793
-4.71793
-4.71793
-4.71793
-4.71793
-4.71793
-4.77246
-4.77246
-4.77246
-4.77246
-4.77246
-4.77246
-4.77246
-4.77246
-4.77246
-4.77246
-4.77246
-4.77246
-4.77246
-4.77246
-4.77246
-4.82699
-4.82698
-4.82698
-4.82698
-4.82698
-4.82698
-4.82698
-4.82698
-4.82698
-4.82699
-4.82699
-4.82699
-4.82699
-4.82699
-4.82699
-4.88151
-4.88151
-4.88151
-4.88151
-4.88151
-4.88151
-4.88151
-4.88151
-4.88151
-4.88151
-4.88151
-4.88151
-4.88151
-4.88151
-4.88151
-4.93603
-4.93603
-4.93603
-4.93603
-4.93603
-4.93603
-4.93603
-4.93603
-4.93603
-4.93603
-4.93603
-4.93603
-4.93603
-4.93604
-4.93604
-4.99056
-4.99056
-4.99056
-4.99056
-4.99056
-4.99056
-4.99056
-4.99056
-4.99056
-4.99056
-4.99056
-4.99056
-4.99056
-4.99056
-4.99056
-5.04508
-5.04508
-5.04508
-5.04508
-5.04508
-5.04508
-5.04508
-5.04508
-5.04508
-5.04508
-5.04508
-5.04508
-5.04508
-5.04508
-5.04508
-5.0996
-5.0996
-5.0996
-5.0996
-5.0996
-5.0996
-5.0996
-5.0996
-5.0996
-5.0996
-5.0996
-5.0996
-5.0996
-5.0996
-5.0996
-5.15412
-5.15412
-5.15412
-5.15412
-5.15412
-5.15412
-5.15412
-5.15412
-5.15412
-5.15412
-5.15412
-5.15412
-5.15412
-5.15412
-5.15412
-5.20864
-5.20864
-5.20864
-5.20864
-5.20864
-5.20864
-5.20864
-5.20864
-5.20864
-5.20864
-5.20864
-5.20864
-5.20864
-5.20864
-5.20864
-5.26316
-5.26316
-5.26316
-5.26316
-5.26316
-5.26316
-5.26316
-5.26316
-5.26316
-5.26316
-5.26316
-5.26316
-5.26316
-5.26316
-5.26316
-5.31768
-5.31768
-5.31768
-5.31768
-5.31768
-5.31768
-5.31768
-5.31768
-5.31768
-5.31768
-5.31768
-5.31768
-5.31768
-5.31768
-5.31768
-5.3722
-5.3722
-5.3722
-5.3722
-5.3722
-5.3722
-5.3722
-5.3722
-5.3722
-5.3722
-5.3722
-5.3722
-5.3722
-5.3722
-5.3722
-5.42672
-5.42672
-5.42672
-5.42672
-5.42672
-5.42672
-5.42672
-5.42672
-5.42672
-5.42672
-5.42672
-5.42672
-5.42672
-5.42672
-5.42672
-5.48124
-5.48124
-5.48124
-5.48124
-5.48124
-5.48124
-5.48124
-5.48124
-5.48124
-5.48124
-5.48124
-5.48124
-5.48124
-5.48124
-5.48124
-5.53577
-5.53576
-5.53576
-5.53576
-5.53576
-5.53576
-5.53576
-5.53576
-5.53576
-5.53576
-5.53576
-5.53576
-5.53576
-5.53576
-5.53576
-5.59029
-5.59029
-5.59029
-5.59029
-5.59029
-5.59029
-5.59029
-5.59028
-5.59028
-5.59028
-5.59028
-5.59028
-5.59028
-5.59028
-5.59028
-5.64482
-5.64481
-5.64481
-5.64481
-5.64481
-5.64481
-5.64481
-5.64481
-5.64481
-5.64481
-5.64481
-5.64481
-5.64481
-5.64481
-5.6448
-5.69934
-5.69934
-5.69934
-5.69934
-5.69934
-5.69934
-5.69934
-5.69934
-5.69933
-5.69933
-5.69933
-5.69933
-5.69933
-5.69933
-5.69933
-5.75387
-5.75387
-5.75387
-5.75387
-5.75387
-5.75387
-5.75386
-5.75386
-5.75386
-5.75386
-5.75386
-5.75386
-5.75386
-5.75386
-5.75386
-5.80841
-5.8084
-5.8084
-5.8084