/*--------------------------------*- C++ -*----------------------------------*\
  =========                 |
  \\      /  F ield         | OpenFOAM: The Open Source CFD Toolbox
   \\    /   O peration     | Website:  https://openfoam.org
    \\  /    A nd           | Version:  7
     \\/     M anipulation  |
\*---------------------------------------------------------------------------*/
FoamFile
{
    version     2.0;
    format      ascii;
    class       surfaceScalarField;
    location    "100";
    object      phi;
}
// * * * * * * * * * * * * * * * * * * * * * * * * * * * * * * * * * * * * * //

dimensions      [0 3 -1 0 0 0 0];

internalField   nonuniform List<scalar> 
63695
(
-7.62162e-13
1.94049e-07
-2.89867e-12
5.82146e-07
-6.25789e-12
9.70243e-07
-1.02448e-11
1.35834e-06
-1.38228e-11
1.74644e-06
-1.49597e-11
2.13453e-06
-9.45522e-12
2.52262e-06
1.16117e-11
2.9107e-06
7.16507e-11
3.29876e-06
2.39222e-10
3.68674e-06
5.87771e-10
4.07466e-06
2.02445e-09
4.46167e-06
1.80947e-08
4.83513e-06
2.54446e-08
5.23195e-06
5.65284e-06
-2.25341e-12
1.94051e-07
-8.71068e-12
5.82153e-07
-1.87065e-11
9.70253e-07
-3.05435e-11
1.35835e-06
-4.10491e-11
1.74645e-06
-4.39223e-11
2.13453e-06
-2.61718e-11
2.5226e-06
4.03091e-11
2.91063e-06
2.18817e-10
3.29858e-06
6.99951e-10
3.68626e-06
2.04799e-09
4.07331e-06
3.93506e-09
4.45978e-06
1.40186e-08
4.82505e-06
2.67606e-08
5.2192e-06
5.6796e-06
-3.80845e-12
1.94055e-07
-1.47932e-11
5.82164e-07
-3.18823e-11
9.7027e-07
-5.2509e-11
1.35837e-06
-7.18982e-11
1.74647e-06
-8.0791e-11
2.13454e-06
-6.09331e-11
2.52258e-06
2.57266e-11
2.91055e-06
2.53304e-10
3.29835e-06
7.59709e-10
3.68576e-06
2.20809e-09
4.07186e-06
3.72765e-09
4.45826e-06
8.48319e-09
4.82029e-06
1.90328e-08
5.20865e-06
5.69863e-06
-5.47127e-12
1.9406e-07
-2.13629e-11
5.82179e-07
-4.63679e-11
9.70295e-07
-7.74682e-11
1.3584e-06
-1.09177e-10
1.7465e-06
-1.31323e-10
2.13456e-06
-1.25484e-10
2.52258e-06
-5.64787e-11
2.91048e-06
1.42922e-10
3.29815e-06
5.01074e-10
3.6854e-06
1.63254e-09
4.07073e-06
3.01906e-09
4.45687e-06
4.12327e-09
4.81919e-06
1.13271e-08
5.20145e-06
5.70996e-06
-7.26881e-12
1.94068e-07
-2.85447e-11
5.82201e-07
-6.24657e-11
9.70329e-07
-1.06016e-10
1.35845e-06
-1.5392e-10
1.74655e-06
-1.96873e-10
2.13461e-06
-2.19416e-10
2.5226e-06
-1.96407e-10
2.91045e-06
-6.65985e-11
3.29802e-06
1.32939e-10
3.6852e-06
8.59083e-10
4.07001e-06
2.08915e-09
4.45564e-06
1.03332e-09
4.82024e-06
4.7768e-09
5.19771e-06
5.71473e-06
-9.20607e-12
1.94077e-07
-3.63468e-11
5.82228e-07
-8.01793e-11
9.70373e-07
-1.38038e-10
1.3585e-06
-2.05453e-10
1.74661e-06
-2.74965e-10
2.13468e-06
-3.34618e-10
2.52266e-06
-3.70389e-10
2.91049e-06
-3.26926e-10
3.29798e-06
-2.57474e-10
3.68513e-06
7.92809e-11
4.06967e-06
1.01832e-09
4.45471e-06
-1.00127e-09
4.82226e-06
-5.46918e-10
5.19725e-06
5.71419e-06
-1.12769e-11
1.94088e-07
-4.47061e-11
5.82261e-07
-9.92947e-11
9.70428e-07
-1.72929e-10
1.35858e-06
-2.62222e-10
1.7467e-06
-3.61918e-10
2.13478e-06
-4.63137e-10
2.52276e-06
-5.61339e-10
2.91059e-06
-6.12131e-10
3.29803e-06
-6.56012e-10
3.68517e-06
-6.39182e-10
4.06965e-06
-2.61953e-11
4.45409e-06
-2.32508e-09
4.82456e-06
-4.62035e-09
5.19955e-06
5.70957e-06
-1.34528e-11
1.94102e-07
-5.35057e-11
5.82301e-07
-1.19473e-10
9.70494e-07
-2.09879e-10
1.35867e-06
-3.22522e-10
1.74681e-06
-4.54375e-10
2.13491e-06
-5.99295e-10
2.5229e-06
-7.59389e-10
2.91075e-06
-9.0469e-10
3.29817e-06
-1.05002e-09
3.68532e-06
-1.26481e-09
4.06987e-06
-9.47991e-10
4.45378e-06
-3.31949e-09
4.82693e-06
-7.50965e-09
5.20374e-06
5.70206e-06
-1.56966e-11
1.94117e-07
-6.25916e-11
5.82348e-07
-1.40338e-10
9.70572e-07
-2.48105e-10
1.35878e-06
-3.84812e-10
1.74695e-06
-5.49463e-10
2.13507e-06
-7.38441e-10
2.52309e-06
-9.57279e-10
2.91097e-06
-1.18994e-09
3.29841e-06
-1.42459e-09
3.68555e-06
-1.80084e-09
4.07024e-06
-1.74126e-09
4.45372e-06
-4.13856e-09
4.82933e-06
-9.51663e-09
5.20912e-06
5.69254e-06
-1.79768e-11
1.94135e-07
-7.18238e-11
5.82402e-07
-1.61508e-10
9.70661e-07
-2.86848e-10
1.3589e-06
-4.47697e-10
1.74711e-06
-6.44709e-10
2.13527e-06
-8.76501e-10
2.52332e-06
-1.14944e-09
2.91124e-06
-1.45883e-09
3.29872e-06
-1.77151e-09
3.68587e-06
-2.26275e-09
4.07073e-06
-2.42413e-09
4.45388e-06
-4.82465e-09
4.83173e-06
-1.09394e-08
5.21523e-06
5.6816e-06
-2.02642e-11
1.94155e-07
-8.10649e-11
5.82463e-07
-1.82632e-10
9.70763e-07
-3.25386e-10
1.35904e-06
-5.09927e-10
1.7473e-06
-7.38115e-10
2.1355e-06
-1.01038e-09
2.5236e-06
-1.33237e-09
2.91156e-06
-1.70768e-09
3.29909e-06
-2.08848e-09
3.68625e-06
-2.66356e-09
4.07131e-06
-3.0144e-09
4.45423e-06
-5.40226e-09
4.83412e-06
-1.19641e-08
5.22179e-06
5.66964e-06
-2.25203e-11
1.94178e-07
-9.018e-11
5.82531e-07
-2.03424e-10
9.70876e-07
-3.63133e-10
1.3592e-06
-5.70526e-10
1.7475e-06
-8.28242e-10
2.13575e-06
-1.13808e-09
2.52391e-06
-1.50419e-09
2.91193e-06
-1.93572e-09
3.29952e-06
-2.37597e-09
3.68669e-06
-3.01314e-09
4.07195e-06
-3.52714e-09
4.45474e-06
-5.8955e-09
4.83649e-06
-1.2701e-08
5.2286e-06
5.65694e-06
-2.47199e-11
1.94203e-07
-9.9052e-11
5.82605e-07
-2.23646e-10
9.71001e-07
-3.99665e-10
1.35938e-06
-6.28824e-10
1.74773e-06
-9.14169e-10
2.13604e-06
-1.25847e-09
2.52425e-06
-1.66408e-09
2.91233e-06
-2.14336e-09
3.3e-06
-2.63572e-09
3.68718e-06
-3.32025e-09
4.07263e-06
-3.97528e-09
4.4554e-06
-6.3244e-09
4.83884e-06
-1.32276e-08
5.2355e-06
5.64371e-06
-2.68454e-11
1.9423e-07
-1.07609e-10
5.82686e-07
-2.43092e-10
9.71136e-07
-4.34668e-10
1.35957e-06
-6.84362e-10
1.74798e-06
-9.95353e-10
2.13635e-06
-1.37101e-09
2.52463e-06
-1.81188e-09
2.91277e-06
-2.33169e-09
3.30052e-06
-2.87012e-09
3.68772e-06
-3.59261e-09
4.07335e-06
-4.36974e-09
4.45617e-06
-6.70292e-09
4.84117e-06
-1.36025e-08
5.2424e-06
5.63011e-06
-2.88857e-11
1.94258e-07
-1.15801e-10
5.82773e-07
-2.61626e-10
9.71282e-07
-4.67911e-10
1.35978e-06
-7.36832e-10
1.74825e-06
-1.0715e-09
2.13669e-06
-1.47559e-09
2.52503e-06
-1.94793e-09
2.91325e-06
-2.50231e-09
3.30108e-06
-3.0818e-09
3.6883e-06
-3.83651e-09
4.07411e-06
-4.7194e-09
4.45706e-06
-7.04061e-09
4.84349e-06
-1.38681e-08
5.24923e-06
5.61624e-06
-3.08261e-11
1.94289e-07
-1.23592e-10
5.82865e-07
-2.79183e-10
9.71438e-07
-4.99268e-10
1.36e-06
-7.86084e-10
1.74854e-06
-1.14254e-09
2.13704e-06
-1.57236e-09
2.52546e-06
-2.07289e-09
2.91375e-06
-2.65699e-09
3.30166e-06
-3.27335e-09
3.68891e-06
-4.05689e-09
4.07489e-06
-5.03152e-09
4.45803e-06
-7.34448e-09
4.8458e-06
-1.4054e-08
5.25594e-06
5.60218e-06
-3.26603e-11
1.94322e-07
-1.30944e-10
5.82964e-07
-2.95741e-10
9.71602e-07
-5.28718e-10
1.36023e-06
-8.32115e-10
1.74884e-06
-1.20856e-09
2.13742e-06
-1.66165e-09
2.52591e-06
-2.18756e-09
2.91427e-06
-2.79755e-09
3.30227e-06
-3.44729e-09
3.68956e-06
-4.2577e-09
4.0757e-06
-5.31209e-09
4.45909e-06
-7.6201e-09
4.84811e-06
-1.41814e-08
5.2625e-06
5.588e-06
-3.43835e-11
1.94356e-07
-1.37851e-10
5.83067e-07
-3.1129e-10
9.71776e-07
-5.56289e-10
1.36048e-06
-8.75025e-10
1.74916e-06
-1.2698e-09
2.13781e-06
-1.74396e-09
2.52639e-06
-2.2928e-09
2.91482e-06
-2.92569e-09
3.3029e-06
-3.60594e-09
3.69024e-06
-4.44222e-09
4.07654e-06
-5.5662e-09
4.46021e-06
-7.87188e-09
4.85042e-06
-1.42656e-08
5.26889e-06
5.57374e-06
-3.60022e-11
1.94392e-07
-1.44318e-10
5.83175e-07
-3.25828e-10
9.71957e-07
-5.82028e-10
1.36073e-06
-9.14951e-10
1.74949e-06
-1.32656e-09
2.13822e-06
-1.81983e-09
2.52688e-06
-2.38947e-09
2.91539e-06
-3.04293e-09
3.30356e-06
-3.75137e-09
3.69095e-06
-4.61302e-09
4.0774e-06
-5.79791e-09
4.46139e-06
-8.10325e-09
4.85272e-06
-1.43178e-08
5.27511e-06
5.55942e-06
-3.75174e-11
1.9443e-07
-1.50369e-10
5.83288e-07
-3.39386e-10
9.72146e-07
-6.05988e-10
1.361e-06
-9.5204e-10
1.74984e-06
-1.37915e-09
2.13865e-06
-1.8898e-09
2.52739e-06
-2.47842e-09
2.91598e-06
-3.15063e-09
3.30423e-06
-3.88529e-09
3.69169e-06
-4.77205e-09
4.07829e-06
-6.01046e-09
4.46263e-06
-8.31681e-09
4.85503e-06
-1.43457e-08
5.28114e-06
5.54507e-06
-3.89354e-11
1.94469e-07
-1.56018e-10
5.83405e-07
-3.52021e-10
9.72342e-07
-6.28263e-10
1.36128e-06
-9.86456e-10
1.7502e-06
-1.42785e-09
2.13909e-06
-1.9544e-09
2.52792e-06
-2.56044e-09
2.91659e-06
-3.24994e-09
3.30492e-06
-4.00914e-09
3.69245e-06
-4.92082e-09
4.0792e-06
-6.20643e-09
4.46392e-06
-8.51463e-09
4.85734e-06
-1.4355e-08
5.28698e-06
5.53072e-06
-4.02575e-11
1.94509e-07
-1.61294e-10
5.83526e-07
-3.63799e-10
9.72545e-07
-6.48981e-10
1.36156e-06
-1.0184e-09
1.75057e-06
-1.47297e-09
2.13955e-06
-2.01415e-09
2.52846e-06
-2.63625e-09
2.91721e-06
-3.34188e-09
3.30562e-06
-4.12415e-09
3.69323e-06
-5.06052e-09
4.08013e-06
-6.38794e-09
4.46525e-06
-8.69838e-09
4.85965e-06
-1.43497e-08
5.29263e-06
5.51637e-06
-4.14907e-11
1.9455e-07
-1.66207e-10
5.83651e-07
-3.74777e-10
9.72753e-07
-6.68278e-10
1.36185e-06
-1.04809e-09
1.75095e-06
-1.51486e-09
2.14001e-06
-2.06954e-09
2.52901e-06
-2.70653e-09
2.91785e-06
-3.42734e-09
3.30634e-06
-4.23139e-09
3.69403e-06
-5.1921e-09
4.0811e-06
-6.55673e-09
4.46661e-06
-8.86961e-09
4.86196e-06
-1.43331e-08
5.29809e-06
5.50204e-06
-4.26374e-11
1.94593e-07
-1.70786e-10
5.83779e-07
-3.85011e-10
9.72968e-07
-6.86269e-10
1.36216e-06
-1.07574e-09
1.75134e-06
-1.55383e-09
2.14049e-06
-2.12101e-09
2.52958e-06
-2.77189e-09
2.9185e-06
-3.50714e-09
3.30708e-06
-4.33183e-09
3.69486e-06
-5.31643e-09
4.08208e-06
-6.71437e-09
4.46801e-06
-9.0298e-09
4.86428e-06
-1.43079e-08
5.30337e-06
5.48773e-06
-4.37108e-11
1.94637e-07
-1.75057e-10
5.83911e-07
-3.94558e-10
9.73187e-07
-7.03045e-10
1.36246e-06
-1.10151e-09
1.75174e-06
-1.59014e-09
2.14098e-06
-2.16896e-09
2.53016e-06
-2.83286e-09
2.91916e-06
-3.58198e-09
3.30783e-06
-4.42635e-09
3.6957e-06
-5.43432e-09
4.08309e-06
-6.86219e-09
4.46944e-06
-9.18024e-09
4.86659e-06
-1.42757e-08
5.30847e-06
5.47345e-06
-4.47141e-11
1.94682e-07
-1.79051e-10
5.84045e-07
-4.03469e-10
9.73412e-07
-7.18698e-10
1.36278e-06
-1.12555e-09
1.75214e-06
-1.62402e-09
2.14148e-06
-2.21373e-09
2.53075e-06
-2.88991e-09
2.91984e-06
-3.65242e-09
3.30859e-06
-4.51569e-09
3.69656e-06
-5.54646e-09
4.08412e-06
-7.00131e-09
4.47089e-06
-9.32176e-09
4.86891e-06
-1.4238e-08
5.31338e-06
5.45921e-06
-4.56544e-11
1.94727e-07
-1.82785e-10
5.84182e-07
-4.11798e-10
9.73641e-07
-7.33324e-10
1.3631e-06
-1.14802e-09
1.75256e-06
-1.6557e-09
2.14199e-06
-2.25563e-09
2.53135e-06
-2.94342e-09
2.92052e-06
-3.71893e-09
3.30937e-06
-4.60038e-09
3.69745e-06
-5.65336e-09
4.08517e-06
-7.13251e-09
4.47237e-06
-9.45491e-09
4.87124e-06
-1.41954e-08
5.31812e-06
5.44502e-06
-4.65307e-11
1.94774e-07
-1.86282e-10
5.84322e-07
-4.19597e-10
9.73874e-07
-7.47022e-10
1.36343e-06
-1.16908e-09
1.75298e-06
-1.68539e-09
2.1425e-06
-2.29493e-09
2.53196e-06
-2.99373e-09
2.92122e-06
-3.78184e-09
3.31015e-06
-4.68079e-09
3.69835e-06
-5.75532e-09
4.08625e-06
-7.2564e-09
4.47387e-06
-9.58005e-09
4.87356e-06
-1.41483e-08
5.32269e-06
5.43087e-06
-4.73546e-11
1.94821e-07
-1.89558e-10
5.84464e-07
-4.26916e-10
9.74111e-07
-7.59877e-10
1.36376e-06
-1.18883e-09
1.75341e-06
-1.71327e-09
2.14303e-06
-2.33188e-09
2.53258e-06
-3.04114e-09
2.92193e-06
-3.84146e-09
3.31096e-06
-4.75726e-09
3.69926e-06
-5.8526e-09
4.08734e-06
-7.37352e-09
4.47539e-06
-9.6977e-09
4.87588e-06
-1.40969e-08
5.32709e-06
5.41677e-06
-4.81275e-11
1.94869e-07
-1.9264e-10
5.84609e-07
-4.33793e-10
9.74352e-07
-7.7196e-10
1.3641e-06
-1.2074e-09
1.75384e-06
-1.73949e-09
2.14356e-06
-2.3667e-09
2.5332e-06
-3.08592e-09
2.92265e-06
-3.89809e-09
3.31177e-06
-4.83009e-09
3.70019e-06
-5.94549e-09
4.08846e-06
-7.48448e-09
4.47693e-06
-9.80837e-09
4.87821e-06
-1.40416e-08
5.33132e-06
5.40273e-06
-4.88566e-11
1.94918e-07
-1.95536e-10
5.84755e-07
-4.40263e-10
9.74597e-07
-7.83334e-10
1.36444e-06
-1.22489e-09
1.75428e-06
-1.7642e-09
2.1441e-06
-2.39958e-09
2.53384e-06
-3.12832e-09
2.92338e-06
-3.95198e-09
3.31259e-06
-4.89956e-09
3.70114e-06
-6.03425e-09
4.08959e-06
-7.58974e-09
4.47849e-06
-9.91263e-09
4.88053e-06
-1.39828e-08
5.33539e-06
5.38875e-06
-4.95408e-11
1.94968e-07
-1.98266e-10
5.84904e-07
-4.46357e-10
9.74845e-07
-7.9405e-10
1.36479e-06
-1.24138e-09
1.75473e-06
-1.78753e-09
2.14465e-06
-2.43068e-09
2.53448e-06
-3.16854e-09
2.92412e-06
-4.00338e-09
3.31343e-06
-4.96591e-09
3.7021e-06
-6.11908e-09
4.09074e-06
-7.68973e-09
4.48006e-06
-1.00109e-08
4.88285e-06
-1.39209e-08
5.3393e-06
5.37483e-06
-5.01883e-11
1.95018e-07
-2.00837e-10
5.85055e-07
-4.52105e-10
9.75096e-07
-8.04159e-10
1.36514e-06
-1.25695e-09
1.75518e-06
-1.80958e-09
2.1452e-06
-2.46014e-09
2.53513e-06
-3.20677e-09
2.92486e-06
-4.05247e-09
3.31427e-06
-5.02938e-09
3.70308e-06
-6.2002e-09
4.09192e-06
-7.78479e-09
4.48164e-06
-1.01036e-08
4.88517e-06
-1.3856e-08
5.34306e-06
5.36097e-06
-5.07966e-11
1.95069e-07
-2.03266e-10
5.85207e-07
-4.57527e-10
9.75351e-07
-8.13707e-10
1.3655e-06
-1.27166e-09
1.75564e-06
-1.83043e-09
2.14576e-06
-2.48807e-09
2.53579e-06
-3.24314e-09
2.92562e-06
-4.09941e-09
3.31513e-06
-5.09016e-09
3.70407e-06
-6.27779e-09
4.0931e-06
-7.87518e-09
4.48324e-06
-1.0191e-08
4.88749e-06
-1.37883e-08
5.34665e-06
5.34718e-06
-5.13726e-11
1.9512e-07
-2.05558e-10
5.85361e-07
-4.62652e-10
9.75608e-07
-8.22734e-10
1.36586e-06
-1.28557e-09
1.75611e-06
-1.85018e-09
2.14632e-06
-2.51458e-09
2.53646e-06
-3.27777e-09
2.92638e-06
-4.14433e-09
3.31599e-06
-5.14838e-09
3.70508e-06
-6.35198e-09
4.09431e-06
-7.9611e-09
4.48485e-06
-1.02732e-08
4.8898e-06
-1.37178e-08
5.3501e-06
5.33347e-06
-5.19155e-11
1.95172e-07
-2.07728e-10
5.85517e-07
-4.67503e-10
9.75868e-07
-8.31274e-10
1.36622e-06
-1.29874e-09
1.75657e-06
-1.86888e-09
2.14689e-06
-2.53974e-09
2.53713e-06
-3.31076e-09
2.92715e-06
-4.18731e-09
3.31687e-06
-5.20416e-09
3.70609e-06
-6.42291e-09
4.09553e-06
-8.04269e-09
4.48647e-06
-1.03504e-08
4.89211e-06
-1.36444e-08
5.35339e-06
5.31982e-06
-5.24325e-11
1.95224e-07
-2.09777e-10
5.85674e-07
-4.72092e-10
9.7613e-07
-8.39356e-10
1.36659e-06
-1.31121e-09
1.75704e-06
-1.88661e-09
2.14747e-06
-2.56365e-09
2.5378e-06
-3.34219e-09
2.92793e-06
-4.22841e-09
3.31776e-06
-5.25758e-09
3.70712e-06
-6.49069e-09
4.09676e-06
-8.12009e-09
4.4881e-06
-1.04226e-08
4.89441e-06
-1.35681e-08
5.35654e-06
5.30625e-06
-5.29189e-11
1.95277e-07
-2.11721e-10
5.85833e-07
-4.76436e-10
9.76395e-07
-8.47013e-10
1.36696e-06
-1.32303e-09
1.75752e-06
-1.90342e-09
2.14805e-06
-2.58636e-09
2.53849e-06
-3.37214e-09
2.92872e-06
-4.26771e-09
3.31865e-06
-5.30869e-09
3.70816e-06
-6.55543e-09
4.09801e-06
-8.1935e-09
4.48974e-06
-1.04899e-08
4.89671e-06
-1.34891e-08
5.35954e-06
5.29276e-06
-5.33815e-11
1.95331e-07
-2.13561e-10
5.85993e-07
-4.80549e-10
9.76662e-07
-8.54266e-10
1.36733e-06
-1.33424e-09
1.758e-06
-1.91937e-09
2.14863e-06
-2.60794e-09
2.53918e-06
-3.40068e-09
2.92951e-06
-4.30527e-09
3.31956e-06
-5.35754e-09
3.70921e-06
-6.61716e-09
4.09927e-06
-8.26307e-09
4.49138e-06
-1.05525e-08
4.89899e-06
-1.34071e-08
5.36239e-06
5.27936e-06
-5.38172e-11
1.95384e-07
-2.15305e-10
5.86155e-07
-4.84443e-10
9.76931e-07
-8.61126e-10
1.36771e-06
-1.34485e-09
1.75848e-06
-1.93449e-09
2.14922e-06
-2.62844e-09
2.53987e-06
-3.42787e-09
2.93031e-06
-4.34116e-09
3.32047e-06
-5.4042e-09
3.71028e-06
-6.67596e-09
4.10054e-06
-8.32899e-09
4.49304e-06
-1.06107e-08
4.90128e-06
-1.33223e-08
5.3651e-06
5.26604e-06
-5.42308e-11
1.95439e-07
-2.16947e-10
5.86318e-07
-4.88125e-10
9.77202e-07
-8.67619e-10
1.36809e-06
-1.35489e-09
1.75897e-06
-1.94882e-09
2.14982e-06
-2.64792e-09
2.54057e-06
-3.45376e-09
2.93112e-06
-4.37542e-09
3.32139e-06
-5.44875e-09
3.71135e-06
-6.73191e-09
4.10182e-06
-8.39136e-09
4.49469e-06
-1.06645e-08
4.90355e-06
-1.32348e-08
5.36767e-06
5.2528e-06
-5.4619e-11
1.95493e-07
-2.18502e-10
5.86481e-07
-4.91608e-10
9.77475e-07
-8.73767e-10
1.36847e-06
-1.3644e-09
1.75946e-06
-1.96241e-09
2.15041e-06
-2.66642e-09
2.54127e-06
-3.47839e-09
2.93193e-06
-4.40809e-09
3.32232e-06
-5.49124e-09
3.71243e-06
-6.78513e-09
4.10311e-06
-8.4503e-09
4.49636e-06
-1.07142e-08
4.90581e-06
-1.31448e-08
5.3701e-06
5.23966e-06
-5.49893e-11
1.95548e-07
-2.19972e-10
5.86646e-07
-4.94899e-10
9.7775e-07
-8.79576e-10
1.36886e-06
-1.37338e-09
1.75996e-06
-1.97526e-09
2.15102e-06
-2.68397e-09
2.54198e-06
-3.50183e-09
2.93275e-06
-4.43923e-09
3.32326e-06
-5.53171e-09
3.71353e-06
-6.83564e-09
4.10442e-06
-8.50587e-09
4.49803e-06
-1.07599e-08
4.90807e-06
-1.30522e-08
5.3724e-06
5.2266e-06
-5.5337e-11
1.95604e-07
-2.21362e-10
5.86812e-07
-4.98006e-10
9.78027e-07
-8.85051e-10
1.36924e-06
-1.38187e-09
1.76045e-06
-1.98741e-09
2.15162e-06
-2.7006e-09
2.54269e-06
-3.52411e-09
2.93357e-06
-4.46886e-09
3.3242e-06
-5.57019e-09
3.71463e-06
-6.88353e-09
4.10573e-06
-8.55815e-09
4.4997e-06
-1.08015e-08
4.91031e-06
-1.29574e-08
5.37455e-06
5.21365e-06
-5.56668e-11
1.95659e-07
-2.22668e-10
5.86979e-07
-5.00933e-10
9.78305e-07
-8.90212e-10
1.36963e-06
-1.38987e-09
1.76095e-06
-1.99888e-09
2.15223e-06
-2.71635e-09
2.54341e-06
-3.54527e-09
2.9344e-06
-4.49704e-09
3.32516e-06
-5.60674e-09
3.71574e-06
-6.92884e-09
4.10705e-06
-8.60727e-09
4.50138e-06
-1.08393e-08
4.91254e-06
-1.286e-08
5.37657e-06
5.20079e-06
-5.59741e-11
1.95715e-07
-2.23903e-10
5.87147e-07
-5.03689e-10
9.78585e-07
-8.9508e-10
1.37002e-06
-1.39742e-09
1.76146e-06
-2.0097e-09
2.15284e-06
-2.73123e-09
2.54413e-06
-3.56533e-09
2.93523e-06
-4.52382e-09
3.32611e-06
-5.64141e-09
3.71685e-06
-6.97167e-09
4.10838e-06
-8.65335e-09
4.50306e-06
-1.08733e-08
4.91476e-06
-1.27605e-08
5.37846e-06
5.18803e-06
-5.62656e-11
1.95772e-07
-2.25062e-10
5.87316e-07
-5.06282e-10
9.78866e-07
-8.99655e-10
1.37042e-06
-1.40451e-09
1.76196e-06
-2.01989e-09
2.15346e-06
-2.74527e-09
2.54486e-06
-3.58431e-09
2.93607e-06
-4.54921e-09
3.32708e-06
-5.67425e-09
3.71798e-06
-7.01207e-09
4.10972e-06
-8.69644e-09
4.50475e-06
-1.09036e-08
4.91697e-06
-1.26586e-08
5.38021e-06
5.17537e-06
-5.65371e-11
1.95828e-07
-2.2615e-10
5.87486e-07
-5.08717e-10
9.79148e-07
-9.03943e-10
1.37081e-06
-1.41116e-09
1.76247e-06
-2.02947e-09
2.15408e-06
-2.75849e-09
2.54559e-06
-3.60224e-09
2.93692e-06
-4.57323e-09
3.32805e-06
-5.70529e-09
3.71911e-06
-7.05008e-09
4.11107e-06
-8.73658e-09
4.50644e-06
-1.09302e-08
4.91916e-06
-1.25546e-08
5.38184e-06
5.16281e-06
-5.67937e-11
1.95885e-07
-2.27164e-10
5.87656e-07
-5.10997e-10
9.79432e-07
-9.07963e-10
1.37121e-06
-1.41739e-09
1.76298e-06
-2.03844e-09
2.1547e-06
-2.77091e-09
2.54632e-06
-3.61913e-09
2.93776e-06
-4.59591e-09
3.32903e-06
-5.73455e-09
3.72025e-06
-7.08569e-09
4.11242e-06
-8.77377e-09
4.50812e-06
-1.09532e-08
4.92134e-06
-1.24485e-08
5.38333e-06
5.15036e-06
-5.70311e-11
1.95942e-07
-2.28118e-10
5.87827e-07
-5.13122e-10
9.79717e-07
-9.11719e-10
1.37161e-06
-1.42322e-09
1.76349e-06
-2.04684e-09
2.15532e-06
-2.78257e-09
2.54706e-06
-3.635e-09
2.93862e-06
-4.61726e-09
3.33001e-06
-5.76208e-09
3.7214e-06
-7.119e-09
4.11377e-06
-8.80809e-09
4.50981e-06
-1.09727e-08
4.92351e-06
-1.23403e-08
5.3847e-06
5.13802e-06
-5.72543e-11
1.95999e-07
-2.29003e-10
5.87999e-07
-5.15097e-10
9.80003e-07
-9.1521e-10
1.37201e-06
-1.42865e-09
1.764e-06
-2.05468e-09
2.15595e-06
-2.79348e-09
2.54779e-06
-3.64989e-09
2.93947e-06
-4.6373e-09
3.331e-06
-5.7879e-09
3.72255e-06
-7.15009e-09
4.11514e-06
-8.83965e-09
4.5115e-06
-1.09888e-08
4.92566e-06
-1.22303e-08
5.38594e-06
5.12579e-06
-5.74578e-11
1.96057e-07
-2.29823e-10
5.88171e-07
-5.16934e-10
9.8029e-07
-9.18449e-10
1.37241e-06
-1.43369e-09
1.76452e-06
-2.06197e-09
2.15658e-06
-2.80365e-09
2.54854e-06
-3.66383e-09
2.94033e-06
-4.65607e-09
3.33199e-06
-5.81206e-09
3.7237e-06
-7.17904e-09
4.1165e-06
-8.86858e-09
4.51319e-06
-1.10015e-08
4.92779e-06
-1.21185e-08
5.38706e-06
5.11367e-06
-5.76488e-11
1.96114e-07
-2.30578e-10
5.88344e-07
-5.18632e-10
9.80578e-07
-9.21442e-10
1.37281e-06
-1.43835e-09
1.76503e-06
-2.06873e-09
2.15721e-06
-2.81312e-09
2.54928e-06
-3.67684e-09
2.9412e-06
-4.67361e-09
3.33299e-06
-5.83458e-09
3.72486e-06
-7.20589e-09
4.11787e-06
-8.89495e-09
4.51488e-06
-1.10111e-08
4.92991e-06
-1.2005e-08
5.38805e-06
5.10167e-06
-5.78224e-11
1.96172e-07
-2.31276e-10
5.88518e-07
-5.2019e-10
9.80867e-07
-9.24195e-10
1.37322e-06
-1.44265e-09
1.76555e-06
-2.07498e-09
2.15784e-06
-2.8219e-09
2.55003e-06
-3.68895e-09
2.94206e-06
-4.68996e-09
3.33399e-06
-5.85553e-09
3.72603e-06
-7.23075e-09
4.11925e-06
-8.9189e-09
4.51657e-06
-1.10176e-08
4.932e-06
-1.189e-08
5.38893e-06
5.08978e-06
-5.79825e-11
1.9623e-07
-2.3191e-10
5.88692e-07
-5.21615e-10
9.81157e-07
-9.2672e-10
1.37362e-06
-1.44659e-09
1.76607e-06
-2.08072e-09
2.15847e-06
-2.83e-09
2.55078e-06
-3.70018e-09
2.94293e-06
-4.70515e-09
3.33499e-06
-5.87496e-09
3.7272e-06
-7.25365e-09
4.12063e-06
-8.94047e-09
4.51826e-06
-1.10211e-08
4.93408e-06
-1.17735e-08
5.38968e-06
5.07801e-06
-5.81257e-11
1.96288e-07
-2.3249e-10
5.88866e-07
-5.22907e-10
9.81447e-07
-9.29012e-10
1.37403e-06
-1.45017e-09
1.76659e-06
-2.08597e-09
2.15911e-06
-2.83746e-09
2.55153e-06
-3.71056e-09
2.94381e-06
-4.71922e-09
3.336e-06
-5.8929e-09
3.72837e-06
-7.27461e-09
4.12201e-06
-8.95972e-09
4.51994e-06
-1.10218e-08
4.93615e-06
-1.16558e-08
5.39031e-06
5.06635e-06
-5.82568e-11
1.96346e-07
-2.33006e-10
5.89041e-07
-5.2407e-10
9.81739e-07
-9.31074e-10
1.37444e-06
-1.45341e-09
1.76712e-06
-2.09075e-09
2.15975e-06
-2.84428e-09
2.55228e-06
-3.7201e-09
2.94468e-06
-4.7322e-09
3.33701e-06
-5.90941e-09
3.72955e-06
-7.29369e-09
4.12339e-06
-8.97671e-09
4.52162e-06
-1.10196e-08
4.93819e-06
-1.15369e-08
5.39083e-06
5.05481e-06
-5.83697e-11
1.96405e-07
-2.33466e-10
5.89216e-07
-5.25104e-10
9.8203e-07
-9.32914e-10
1.37484e-06
-1.45632e-09
1.76764e-06
-2.09506e-09
2.16038e-06
-2.85048e-09
2.55304e-06
-3.72884e-09
2.94556e-06
-4.74412e-09
3.33803e-06
-5.92455e-09
3.73073e-06
-7.31101e-09
4.12478e-06
-8.99153e-09
4.5233e-06
-1.10148e-08
4.94021e-06
-1.1417e-08
5.39123e-06
5.0434e-06
-5.84704e-11
1.96463e-07
-2.33867e-10
5.89391e-07
-5.26009e-10
9.82322e-07
-9.34532e-10
1.37525e-06
-1.45889e-09
1.76816e-06
-2.09891e-09
2.16102e-06
-2.85608e-09
2.55379e-06
-3.7368e-09
2.94644e-06
-4.75504e-09
3.33905e-06
-5.93839e-09
3.73191e-06
-7.32667e-09
4.12617e-06
-9.0043e-09
4.52498e-06
-1.10074e-08
4.94222e-06
-1.12962e-08
5.39152e-06
5.0321e-06
-5.85533e-11
1.96522e-07
-2.34211e-10
5.89567e-07
-5.2678e-10
9.82615e-07
-9.35922e-10
1.37566e-06
-1.46113e-09
1.76869e-06
-2.1023e-09
2.16167e-06
-2.86109e-09
2.55455e-06
-3.74401e-09
2.94732e-06
-4.76498e-09
3.34007e-06
-5.951e-09
3.7331e-06
-7.34076e-09
4.12756e-06
-9.01514e-09
4.52666e-06
-1.09976e-08
4.9442e-06
-1.11747e-08
5.3917e-06
5.02093e-06
-5.8622e-11
1.9658e-07
-2.34486e-10
5.89743e-07
-5.27419e-10
9.82908e-07
-9.37083e-10
1.37607e-06
-1.46302e-09
1.76921e-06
-2.10523e-09
2.16231e-06
-2.86552e-09
2.55531e-06
-3.75049e-09
2.94821e-06
-4.774e-09
3.34109e-06
-5.96243e-09
3.73429e-06
-7.35338e-09
4.12895e-06
-9.02419e-09
4.52833e-06
-1.09855e-08
4.94616e-06
-1.10526e-08
5.39176e-06
5.00987e-06
-5.86713e-11
1.96639e-07
-2.34697e-10
5.89919e-07
-5.27916e-10
9.83201e-07
-9.38004e-10
1.37648e-06
-1.46457e-09
1.76974e-06
-2.1077e-09
2.16295e-06
-2.86936e-09
2.55608e-06
-3.75626e-09
2.9491e-06
-4.78214e-09
3.34212e-06
-5.97278e-09
3.73548e-06
-7.36467e-09
4.13034e-06
-9.03161e-09
4.52999e-06
-1.09713e-08
4.9481e-06
-1.09302e-08
5.39172e-06
4.99894e-06
-5.87054e-11
1.96698e-07
-2.34835e-10
5.90095e-07
-5.28256e-10
9.83494e-07
-9.38673e-10
1.37689e-06
-1.46575e-09
1.77027e-06
-2.10969e-09
2.16359e-06
-2.87262e-09
2.55684e-06
-3.76132e-09
2.94998e-06
-4.78944e-09
3.34314e-06
-5.98212e-09
3.73667e-06
-7.37471e-09
4.13173e-06
-9.03753e-09
4.53166e-06
-1.09552e-08
4.95002e-06
-1.08076e-08
5.39158e-06
4.98813e-06
-5.87169e-11
1.96757e-07
-2.34902e-10
5.90271e-07
-5.28429e-10
9.83788e-07
-9.3907e-10
1.3773e-06
-1.46654e-09
1.7708e-06
-2.11118e-09
2.16424e-06
-2.87527e-09
2.5576e-06
-3.76568e-09
2.95088e-06
-4.79593e-09
3.34417e-06
-5.99053e-09
3.73787e-06
-7.38369e-09
4.13313e-06
-9.04216e-09
4.53332e-06
-1.09375e-08
4.95191e-06
-1.06853e-08
5.39132e-06
4.97745e-06
-5.87071e-11
1.96815e-07
-2.34878e-10
5.90447e-07
-5.28419e-10
9.84081e-07
-9.39155e-10
1.37771e-06
-1.4669e-09
1.77132e-06
-2.11212e-09
2.16488e-06
-2.87728e-09
2.55837e-06
-3.76933e-09
2.95177e-06
-4.80165e-09
3.34521e-06
-5.9981e-09
3.73906e-06
-7.39173e-09
4.13452e-06
-9.04575e-09
4.53497e-06
-1.09184e-08
4.95379e-06
-1.05636e-08
5.39097e-06
4.96689e-06
-5.86698e-11
1.96874e-07
-2.34756e-10
5.90623e-07
-5.28197e-10
9.84375e-07
-9.3889e-10
1.37812e-06
-1.46677e-09
1.77185e-06
-2.11246e-09
2.16553e-06
-2.87859e-09
2.55913e-06
-3.77224e-09
2.95266e-06
-4.80663e-09
3.34624e-06
-6.00493e-09
3.74026e-06
-7.39904e-09
4.13592e-06
-9.04858e-09
4.53662e-06
-1.08983e-08
4.95564e-06
-1.0443e-08
5.39051e-06
4.95644e-06
-5.86061e-11
1.96932e-07
-2.34516e-10
5.90799e-07
-5.27734e-10
9.84668e-07
-9.38229e-10
1.37853e-06
-1.46609e-09
1.77238e-06
-2.11211e-09
2.16618e-06
-2.87914e-09
2.5599e-06
-3.77436e-09
2.95356e-06
-4.81087e-09
3.34728e-06
-6.01114e-09
3.74146e-06
-7.40587e-09
4.13731e-06
-9.05108e-09
4.53826e-06
-1.08778e-08
4.95746e-06
-1.0324e-08
5.38996e-06
4.94612e-06
-5.85084e-11
1.96991e-07
-2.34149e-10
5.90975e-07
-5.26986e-10
9.84961e-07
-9.37105e-10
1.37894e-06
-1.46475e-09
1.77291e-06
-2.11095e-09
2.16682e-06
-2.87879e-09
2.56067e-06
-3.77559e-09
2.95445e-06
-4.81435e-09
3.34832e-06
-6.01687e-09
3.74266e-06
-7.41254e-09
4.13871e-06
-9.05372e-09
4.53991e-06
-1.08576e-08
4.95927e-06
-1.02077e-08
5.38931e-06
4.93591e-06
-5.83693e-11
1.97049e-07
-2.33617e-10
5.9115e-07
-5.25884e-10
9.85253e-07
-9.35407e-10
1.37935e-06
-1.46262e-09
1.77343e-06
-2.10882e-09
2.16747e-06
-2.87738e-09
2.56144e-06
-3.7758e-09
2.95535e-06
-4.817e-09
3.34936e-06
-6.02218e-09
3.74387e-06
-7.41934e-09
4.1401e-06
-9.05706e-09
4.54154e-06
-1.08383e-08
4.96105e-06
-1.00952e-08
5.38857e-06
4.92582e-06
-5.81808e-11
1.97108e-07
-2.32895e-10
5.91325e-07
-5.2436e-10
9.85545e-07
-9.33023e-10
1.37976e-06
-1.45954e-09
1.77396e-06
-2.10551e-09
2.16811e-06
-2.87466e-09
2.56221e-06
-3.77474e-09
2.95625e-06
-4.81867e-09
3.3504e-06
-6.0271e-09
3.74508e-06
-7.42664e-09
4.1415e-06
-9.06181e-09
4.54318e-06
-1.08214e-08
4.96281e-06
-9.9883e-09
5.38773e-06
4.91583e-06
-5.79233e-11
1.97165e-07
-2.31906e-10
5.91499e-07
-5.22323e-10
9.85835e-07
-9.29807e-10
1.38017e-06
-1.4553e-09
1.77449e-06
-2.10075e-09
2.16876e-06
-2.87031e-09
2.56298e-06
-3.77208e-09
2.95715e-06
-4.81909e-09
3.35145e-06
-6.03155e-09
3.74629e-06
-7.43474e-09
4.14291e-06
-9.06896e-09
4.54481e-06
-1.0808e-08
4.96455e-06
-9.88934e-09
5.38682e-06
4.90594e-06
-5.75865e-11
1.97223e-07
-2.30627e-10
5.91672e-07
-5.19671e-10
9.86124e-07
-9.25571e-10
1.38057e-06
-1.44959e-09
1.77501e-06
-2.09414e-09
2.1694e-06
-2.86387e-09
2.56375e-06
-3.76735e-09
2.95806e-06
-4.81787e-09
3.3525e-06
-6.03539e-09
3.74751e-06
-7.44397e-09
4.14431e-06
-9.07962e-09
4.54645e-06
-1.08006e-08
4.96627e-06
-9.8019e-09
5.38582e-06
4.89614e-06
-5.71759e-11
1.9728e-07
-2.29059e-10
5.91844e-07
-5.163e-10
9.86411e-07
-9.20122e-10
1.38098e-06
-1.44213e-09
1.77553e-06
-2.08526e-09
2.17005e-06
-2.85478e-09
2.56451e-06
-3.75987e-09
2.95896e-06
-4.81434e-09
3.35355e-06
-6.03819e-09
3.74873e-06
-7.45452e-09
4.14573e-06
-9.09511e-09
4.54809e-06
-1.08018e-08
4.96797e-06
-9.73112e-09
5.38475e-06
4.88641e-06
-5.66759e-11
1.97337e-07
-2.27138e-10
5.92014e-07
-5.12144e-10
9.86696e-07
-9.13242e-10
1.38138e-06
-1.43255e-09
1.77605e-06
-2.07361e-09
2.17069e-06
-2.84231e-09
2.56528e-06
-3.74874e-09
2.95987e-06
-4.8075e-09
3.35461e-06
-6.03918e-09
3.74996e-06
-7.46636e-09
4.14716e-06
-9.11704e-09
4.54974e-06
-1.08163e-08
4.96967e-06
-9.68639e-09
5.38362e-06
4.87672e-06
-5.60838e-11
1.97393e-07
-2.24842e-10
5.92183e-07
-5.07179e-10
9.86979e-07
-9.0483e-10
1.38178e-06
-1.42056e-09
1.77657e-06
-2.05859e-09
2.17133e-06
-2.82559e-09
2.56605e-06
-3.73274e-09
2.96078e-06
-4.79588e-09
3.35568e-06
-6.0369e-09
3.7512e-06
-7.47877e-09
4.1486e-06
-9.14649e-09
4.55141e-06
-1.08473e-08
4.97137e-06
-9.67694e-09
5.38245e-06
4.86704e-06
-5.53675e-11
1.97448e-07
-2.22062e-10
5.9235e-07
-5.0118e-10
9.87258e-07
-8.9464e-10
1.38217e-06
-1.40574e-09
1.77708e-06
-2.03944e-09
2.17196e-06
-2.80352e-09
2.56681e-06
-3.71031e-09
2.96168e-06
-4.77747e-09
3.35674e-06
-6.02912e-09
3.75245e-06
-7.49017e-09
4.15006e-06
-9.18574e-09
4.5531e-06
-1.09075e-08
4.9731e-06
-9.73222e-09
5.38127e-06
4.85731e-06
-5.45251e-11
1.97503e-07
-2.18803e-10
5.92514e-07
-4.94106e-10
9.87533e-07
-8.82551e-10
1.38256e-06
-1.38783e-09
1.77758e-06
-2.01558e-09
2.17259e-06
-2.77483e-09
2.56757e-06
-3.67952e-09
2.96259e-06
-4.74938e-09
3.35781e-06
-6.01216e-09
3.75372e-06
-7.49619e-09
4.15155e-06
-9.23079e-09
4.55484e-06
-1.0988e-08
4.97485e-06
-9.86422e-09
5.38015e-06
4.84745e-06
-5.35217e-11
1.97556e-07
-2.14967e-10
5.92675e-07
-4.85742e-10
9.87804e-07
-8.68159e-10
1.38294e-06
-1.36617e-09
1.77808e-06
-1.98611e-09
2.17321e-06
-2.73816e-09
2.56833e-06
-3.63817e-09
2.96349e-06
-4.70809e-09
3.35888e-06
-5.98145e-09
3.75499e-06
-7.49242e-09
4.15306e-06
-9.29059e-09
4.55664e-06
-1.11543e-08
4.97672e-06
-1.01926e-08
5.37919e-06
4.83725e-06
-5.23595e-11
1.97609e-07
-2.10668e-10
5.92834e-07
-4.75996e-10
9.88069e-07
-8.51274e-10
1.38332e-06
-1.34034e-09
1.77857e-06
-1.95025e-09
2.17382e-06
-2.69198e-09
2.56907e-06
-3.58343e-09
2.96438e-06
-4.64798e-09
3.35995e-06
-5.92744e-09
3.75627e-06
-7.45713e-09
4.15459e-06
-9.31421e-09
4.55849e-06
-1.12136e-08
4.97862e-06
-1.05681e-08
5.37854e-06
4.82669e-06
-5.09445e-11
1.9766e-07
-2.05815e-10
5.92989e-07
-4.65039e-10
9.88329e-07
-8.32004e-10
1.38368e-06
-1.31051e-09
1.77905e-06
-1.90826e-09
2.17442e-06
-2.63668e-09
2.5698e-06
-3.51582e-09
2.96526e-06
-4.57046e-09
3.361e-06
-5.85559e-09
3.75756e-06
-7.41475e-09
4.15615e-06
-9.43507e-09
4.56051e-06
-1.18574e-08
4.98104e-06
-1.19287e-08
5.37861e-06
4.81476e-06
-2.29233e-10
1.97889e-07
-9.22776e-10
5.93682e-07
-2.08757e-09
9.89493e-07
-3.73259e-09
1.38533e-06
-5.87636e-09
1.78119e-06
-8.55021e-09
2.17709e-06
-1.1805e-08
2.57305e-06
-1.57192e-08
2.96917e-06
-2.04086e-08
3.36569e-06
-2.60254e-08
3.76317e-06
-3.27905e-08
4.16291e-06
-4.09071e-08
4.56863e-06
-4.87708e-08
4.9889e-06
-2.11216e-08
5.35096e-06
4.61926e-06
1.74375e-07
-1.79214e-10
1.98068e-07
-7.12618e-10
5.94215e-07
-1.59944e-09
9.9038e-07
-2.83814e-09
1.38657e-06
-4.42812e-09
1.78278e-06
-6.37007e-09
2.17903e-06
-8.66887e-09
2.57535e-06
-1.13342e-08
2.97184e-06
-1.43718e-08
3.36873e-06
-1.77734e-08