/*--------------------------------*- C++ -*----------------------------------*\
  =========                 |
  \\      /  F ield         | OpenFOAM: The Open Source CFD Toolbox
   \\    /   O peration     | Website:  https://openfoam.org
    \\  /    A nd           | Version:  7
     \\/     M anipulation  |
\*---------------------------------------------------------------------------*/
FoamFile
{
    version     2.0;
    format      ascii;
    class       volVectorField;
    location    "100";
    object      U;
}
// * * * * * * * * * * * * * * * * * * * * * * * * * * * * * * * * * * * * * //

dimensions      [0 1 -1 0 0 0 0];

internalField   nonuniform List<vector> 
32100
(
(-3.11914e-06 8.71884e-17 1.6)
(-7.07064e-06 -2.35107e-16 1.6)
(-1.09081e-05 6.64846e-18 1.6)
(-1.41943e-05 -5.52132e-17 1.6)
(-1.61737e-05 1.60596e-17 1.6)
(-1.58412e-05 -5.12786e-18 1.6)
(-1.13354e-05 -2.31475e-16 1.6)
(1.09261e-06 -2.35789e-16 1.6)
(3.0229e-05 1.70738e-16 1.59999)
(9.49063e-05 1.15579e-17 1.59999)
(0.000237624 1.27075e-16 1.59998)
(0.000895762 1.08968e-17 1.59993)
(0.00345332 -1.1455e-16 1.59832)
(-0.00877673 2.39515e-17 1.5995)
(0.068534 -1.42082e-16 1.60054)
(-9.10619e-06 1.92915e-16 1.60001)
(-2.13265e-05 4.82333e-16 1.60001)
(-3.30077e-05 1.67085e-16 1.60001)
(-4.31319e-05 6.01062e-16 1.60001)
(-4.94539e-05 4.21861e-17 1.60001)
(-4.91585e-05 3.26762e-17 1.6)
(-3.69866e-05 -1.61644e-15 1.59999)
(-2.88932e-06 -2.78263e-16 1.59998)
(7.55123e-05 2.10494e-16 1.59994)
(0.000256291 3.9852e-17 1.59985)
(0.000584962 1.21748e-16 1.59967)
(0.00109572 1.09486e-15 1.59924)
(0.00867925 -8.45304e-16 1.59336)
(-0.0204855 -1.49294e-16 1.59631)
(0.0818804 -9.63706e-16 1.60944)
(-1.5195e-05 5.27001e-16 1.60004)
(-3.62492e-05 3.09045e-15 1.60004)
(-5.62686e-05 5.39046e-15 1.60003)
(-7.40847e-05 4.06339e-15 1.60003)
(-8.61788e-05 4.54078e-17 1.60002)
(-8.85831e-05 5.0203e-17 1.60001)
(-7.39818e-05 5.65226e-16 1.59998)
(-2.92893e-05 -1.47546e-15 1.59993)
(6.79452e-05 2.60862e-16 1.59984)
(0.000284527 -6.09199e-17 1.59963)
(0.000771351 2.06293e-16 1.59909)
(-5.23395e-05 -8.23008e-17 1.59849)
(0.0117451 2.42994e-16 1.59004)
(-0.0260669 1.23433e-16 1.59236)
(0.0716043 2.63717e-16 1.61813)
(-2.16697e-05 3.71313e-16 1.60008)
(-5.22889e-05 2.47469e-15 1.60007)
(-8.15169e-05 2.92328e-16 1.60007)
(-0.000108524 1.73315e-17 1.60006)
(-0.000128787 2.60741e-17 1.60004)
(-0.000138155 3.03445e-17 1.60002)
(-0.000129276 1.1878e-17 1.59997)
(-8.91583e-05 2.14275e-16 1.59988)
(-2.59217e-06 1.69675e-16 1.59972)
(0.000147515 -1.4457e-15 1.59941)
(0.00089065 2.51076e-16 1.59852)
(-0.00157573 7.73789e-17 1.59794)
(0.0129571 6.72493e-17 1.58907)
(-0.0278668 2.46806e-17 1.58925)
(0.0596349 -3.11106e-17 1.62303)
(-2.86092e-05 2.99002e-16 1.60013)
(-6.97353e-05 1.48322e-16 1.60012)
(-0.000109259 -4.59246e-17 1.60012)
(-0.000147123 -6.20011e-17 1.6001)
(-0.00017824 8.30401e-18 1.60008)
(-0.000199025 -1.13728e-17 1.60004)
(-0.000203537 -3.13304e-16 1.59997)
(-0.000180976 -1.30423e-16 1.59985)
(-0.000113271 -4.28329e-16 1.59964)
(-0.000107028 2.80208e-16 1.59928)
(0.00097654 3.73432e-16 1.59813)
(-0.00290347 -4.16422e-16 1.59752)
(0.0129783 -1.03449e-15 1.58938)
(-0.0279437 -1.56095e-16 1.58751)
(0.0495487 -1.24066e-16 1.62486)
(-3.60581e-05 5.64251e-16 1.6002)
(-8.85463e-05 3.11389e-15 1.60019)
(-0.000139487 8.25393e-16 1.60018)
(-0.000189839 -3.1914e-15 1.60016)
(-0.000234161 2.62686e-17 1.60013)
(-0.00026978 -4.08759e-17 1.60008)
(-0.000292528 -3.14124e-16 1.6)
(-0.000296943 -1.8589e-15 1.59985)
(-0.000239992 7.51262e-16 1.59959)
(-0.00041874 3.13112e-16 1.59922)
(0.0010015 3.04994e-16 1.59793)
(-0.00391664 -4.92521e-16 1.59714)
(0.0124064 9.28758e-17 1.59007)
(-0.0272551 2.62702e-16 1.58686)
(0.041333 -3.58511e-16 1.62517)
(-4.40446e-05 4.91388e-16 1.60028)
(-0.000108622 2.73725e-15 1.60027)
(-0.000171878 9.16724e-16 1.60026)
(-0.000236052 6.92416e-16 1.60024)
(-0.000295319 6.95679e-17 1.6002)
(-0.000348029 -6.25587e-17 1.60014)
(-0.000390996 1.59127e-15 1.60005)
(-0.000429472 -2.40207e-16 1.59989)
(-0.000372178 7.14555e-16 1.59959)
(-0.000744742 2.32393e-16 1.59922)
(0.000952159 -2.14046e-17 1.59787)
(-0.00465571 8.30625e-16 1.59686)
(0.0116021 1.11394e-15 1.59083)
(-0.026145 1.20254e-15 1.58729)
(0.0345438 -1.12669e-15 1.62427)
(-5.23998e-05 5.05415e-16 1.60038)
(-0.000129785 8.26255e-15 1.60037)
(-0.000205991 1.48258e-15 1.60036)
(-0.000284836 1.24829e-15 1.60033)
(-0.000360113 1.27149e-16 1.60029)
(-0.000431379 -8.69998e-17 1.60023)
(-0.000494573 -5.17639e-16 1.60012)
(-0.00057197 -1.41794e-15 1.59996)
(-0.000506692 2.29721e-15 1.59964)
(-0.00105855 2.40523e-16 1.59927)
(0.000844213 -1.15526e-15 1.59792)
(-0.00517528 -4.9403e-16 1.59668)
(0.0106973 -1.24912e-16 1.5916)
(-0.0247978 6.5327e-16 1.58839)
(0.0288882 4.20084e-16 1.62248)
(-6.09396e-05 4.69909e-16 1.6005)
(-0.000151614 1.76904e-15 1.60049)
(-0.000241264 2.07333e-15 1.60048)
(-0.000335298 1.25636e-15 1.60045)
(-0.000427022 1.71758e-16 1.60041)
(-0.000517651 -1.20295e-16 1.60034)
(-0.000599843 -5.97385e-16 1.60023)
(-0.000718181 6.39585e-16 1.60007)
(-0.000641197 4.65701e-16 1.59973)
(-0.00134574 2.75456e-16 1.59935)
(0.000698293 2.11262e-16 1.59804)
(-0.00552172 -4.29356e-17 1.59662)
(0.00973908 -1.97866e-16 1.59238)
(-0.0233473 -6.33672e-16 1.5899)
(0.0241541 -5.29369e-16 1.62001)
(-6.96396e-05 2.9067e-16 1.60064)
(-0.000173705 1.17953e-15 1.60063)
(-0.000277053 2.04077e-15 1.60062)
(-0.000386526 5.02874e-15 1.60059)
(-0.000494643 2.2555e-16 1.60054)
(-0.000604845 -1.3762e-16 1.60048)
(-0.000704143 -6.75772e-16 1.60036)
(-0.000862737 -5.68503e-16 1.6002)
(-0.00077323 2.30397e-15 1.59987)
(-0.00160048 3.45629e-16 1.59947)
(0.000527816 -5.63069e-16 1.59821)
(-0.00573258 1.3965e-16 1.59664)
(0.00876155 -1.43443e-16 1.59318)
(-0.0218882 -1.67667e-16 1.59167)
(0.0201658 -2.66783e-16 1.61707)
(-7.84452e-05 2.16565e-16 1.6008)
(-0.000195842 5.89772e-16 1.60079)
(-0.000312763 1.44992e-15 1.60077)
(-0.000437587 1.10313e-15 1.60075)
(-0.000561675 2.63081e-16 1.6007)
(-0.000691172 -1.20441e-16 1.60063)
(-0.000805542 -2.08021e-15 1.60052)
(-0.00100184 -5.76177e-16 1.60037)
(-0.000901039 2.48381e-15 1.60003)
(-0.00182189 3.96553e-16 1.59962)
(0.000340897 7.74795e-16 1.59843)
(-0.00584006 -2.9459e-16 1.59674)
(0.00779545 9.67633e-16 1.59397)
(-0.0204758 -3.55469e-16 1.59362)
(0.0167815 -6.42892e-16 1.61378)
(-8.7111e-05 2.99013e-16 1.60097)
(-0.000217802 7.87167e-16 1.60096)
(-0.000347945 1.31947e-15 1.60095)
(-0.000487749 -2.03829e-15 1.60092)
(-0.000627081 3.23784e-16 1.60088)
(-0.000775175 -1.26664e-16 1.60082)
(-0.000902754 7.73777e-17 1.60071)
(-0.00113318 3.48344e-16 1.60056)
(-0.0010237 8.23004e-16 1.60023)
(-0.00201146 4.29157e-16 1.5998)
(0.000143903 -7.36606e-16 1.59867)
(-0.00587189 -3.61838e-16 1.5969)
(0.00686238 -3.92126e-16 1.59476)
(-0.0191388 -3.97816e-16 1.59568)
(0.0138913 -1.10376e-15 1.61025)
(-9.54436e-05 4.47897e-16 1.60117)
(-0.000239251 1.41353e-15 1.60116)
(-0.000382233 1.0887e-15 1.60115)
(-0.000536497 2.38101e-15 1.60112)
(-0.00069015 3.92235e-16 1.60108)
(-0.000855829 -1.81733e-16 1.60102)
(-0.000995014 8.4588e-16 1.60092)
(-0.00125549 2.62532e-16 1.60077)
(-0.00114078 2.04468e-16 1.60045)
(-0.00217192 4.8865e-16 1.6)
(-5.77081e-05 4.74112e-16 1.59893)
(-0.00585052 -1.97124e-17 1.59711)
(0.00597416 -1.68487e-15 1.59554)
(-0.0178908 -8.87813e-16 1.59778)
(0.0114094 -2.29209e-16 1.60656)
(-0.000103457 3.8017e-16 1.60138)
(-0.000259883 8.19003e-15 1.60137)
(-0.000415276 1.77173e-15 1.60136)
(-0.000583409 4.66309e-15 1.60134)
(-0.000750391 3.73461e-16 1.6013)
(-0.000932482 -1.99542e-16 1.60125)
(-0.00108194 -1.29193e-15 1.60115)
(-0.00136821 -2.75891e-16 1.601)
(-0.00125212 3.39817e-15 1.6007)
(-0.00230674 5.37961e-16 1.60023)
(-0.000259593 5.33299e-16 1.5992)
(-0.00579305 -1.64765e-16 1.59737)
(0.00513665 -2.52213e-16 1.59631)
(-0.0167374 -7.76017e-16 1.5999)
(0.00926746 -2.27378e-16 1.60273)
(-0.000111242 2.88121e-16 1.60161)
(-0.000279592 7.13922e-16 1.6016)
(-0.000446782 2.37081e-15 1.60159)
(-0.000628118 2.46754e-16 1.60157)
(-0.000807458 3.65631e-16 1.60154)
(-0.00100473 -1.43672e-16 1.60149)
(-0.00116343 -2.17137e-15 1.60139)
(-0.00147129 -3.26805e-16 1.60125)
(-0.00135768 1.30654e-15 1.60096)
(-0.00241962 5.79335e-16 1.60047)
(-0.000458607 5.35374e-16 1.5995)
(-0.00571214 -1.31649e-15 1.59767)
(0.00435258 -2.70872e-16 1.59708)
(-0.0156791 -3.40164e-16 1.602)
(0.00741045 5.09935e-16 1.59882)
(-0.000118733 4.02476e-16 1.60186)
(-0.000298405 8.01544e-15 1.60185)
(-0.000476632 7.30315e-15 1.60184)
(-0.000670386 2.66177e-15 1.60182)
(-0.000861155 4.70061e-16 1.60179)
(-0.00107238 -8.64519e-17 1.60175)
(-0.00123956 1.71421e-16 1.60166)
(-0.00156506 -1.4484e-15 1.60152)
(-0.00145752 2.97486e-16 1.60123)
(-0.00251412 6.50966e-16 1.60073)
(-0.000652594 6.95157e-16 1.5998)
(-0.00561716 1.06467e-16 1.598)
(0.00362253 -3.24357e-16 1.59784)
(-0.0147126 -2.93306e-16 1.60407)
(0.00579371 -9.30337e-16 1.59484)
(-0.000125774 4.29714e-16 1.60212)
(-0.000316295 1.31012e-15 1.60211)
(-0.000504825 1.98842e-15 1.60211)
(-0.000710159 2.71622e-15 1.60209)
(-0.00091146 5.44102e-16 1.60207)
(-0.00113541 -9.27093e-17 1.60202)
(-0.00131051 1.43372e-15 1.60194)
(-0.00165009 5.54707e-16 1.60181)
(-0.00155179 1.95339e-15 1.60152)
(-0.00259339 8.02195e-16 1.60101)
(-0.000840101 6.31404e-16 1.60011)
(-0.00551507 -3.32358e-16 1.59836)
(0.00294539 1.66586e-16 1.5986)
(-0.0138328 7.41037e-16 1.6061)
(0.00438108 -1.69911e-15 1.59083)
(-0.00013228 3.9483e-16 1.6024)
(-0.000333139 2.68829e-16 1.60239)
(-0.00053137 2.36901e-15 1.60239)
(-0.000747495 2.10118e-15 1.60237)
(-0.000958474 5.75673e-16 1.60235)
(-0.00119393 -1.23403e-16 1.60231)
(-0.00137659 -8.78597e-16 1.60223)
(-0.00172712 7.40895e-17 1.6021)
(-0.0016407 1.65655e-15 1.60183)
(-0.00266021 6.04205e-16 1.6013)
(-0.00102017 6.16207e-16 1.60043)
(-0.0054109 -5.14214e-16 1.59875)
(0.00231872 -1.82084e-15 1.59936)
(-0.0130337 -6.50434e-16 1.60807)
(0.00314287 -1.88387e-16 1.58678)
(-0.000138348 9.25006e-16 1.60269)
(-0.000348864 -3.28193e-15 1.60268)
(-0.000556226 1.36522e-15 1.60268)
(-0.000782445 4.77098e-15 1.60267)
(-0.00100235 5.72044e-16 1.60265)
(-0.00124815 -1.31143e-16 1.60261)
(-0.0014381 -7.32342e-16 1.60254)
(-0.00179691 -1.80432e-15 1.60241)
(-0.00172451 1.14297e-15 1.60214)
(-0.00271693 4.23832e-16 1.6016)
(-0.00119221 1.82004e-15 1.60077)
(-0.00530807 -6.69498e-16 1.59917)
(0.00173968 -4.01735e-16 1.60012)
(-0.0123092 -8.30365e-16 1.61)
(0.00205449 -4.78094e-16 1.58271)
(-0.000144088 1.03233e-15 1.60299)
(-0.000363532 4.99032e-15 1.60299)
(-0.000579391 1.79168e-15 1.60298)
(-0.000815033 8.14828e-16 1.60298)
(-0.00104322 5.89866e-16 1.60296)
(-0.00129832 -1.33515e-16 1.60293)
(-0.00149538 1.27558e-15 1.60286)
(-0.00186025 2.26544e-16 1.60273)
(-0.0018035 8.3367e-16 1.60246)
(-0.00276555 4.52258e-16 1.60191)
(-0.00135591 3.42583e-16 1.60111)
(-0.00520877 -1.418e-15 1.5996)
(0.00120527 -2.80684e-16 1.60088)
(-0.011653 -1.73386e-15 1.61187)
(0.00109537 1.79955e-16 1.57864)
(-0.000149527 6.35401e-16 1.60331)
(-0.000377268 8.08391e-15 1.6033)
(-0.000600964 1.60011e-15 1.6033)
(-0.000845346 -6.60885e-16 1.6033)
(-0.00108123 6.78974e-16 1.60328)
(-0.00134469 -1.47087e-16 1.60325)
(-0.00154873 -9.67606e-16 1.60319)
(-0.00191784 -5.44472e-16 1.60306)
(-0.00187795 -4.3661e-16 1.60279)
(-0.0028077 5.27282e-16 1.60223)
(-0.00151123 1.60643e-15 1.60146)
(-0.0051144 4.31268e-17 1.60006)
(0.000712502 4.04033e-17 1.60164)
(-0.011059 -1.218e-15 1.61368)
(0.000248458 -1.09081e-15 1.57455)
(-0.000154611 6.71393e-16 1.60363)
(-0.000390138 1.31205e-15 1.60363)
(-0.000621116 1.6422e-15 1.60363)
(-0.000873544 3.36593e-15 1.60363)
(-0.00111656 7.47125e-16 1.60362)
(-0.00138754 -1.3764e-16 1.60359)
(-0.00159849 -2.95147e-15 1.60353)
(-0.00197034 -7.14016e-16 1.60339)
(-0.00194811 1.49574e-15 1.60313)
(-0.00284475 5.68839e-16 1.60257)
(-0.00165832 1.74217e-16 1.60183)
(-0.00502584 8.22239e-16 1.60053)
(0.000258315 3.63414e-16 1.60241)
(-0.0105211 -3.81501e-16 1.61544)
(-0.000500478 -8.56889e-16 1.57047)
(-0.000159322 6.16983e-16 1.60397)
(-0.000402151 8.24367e-15 1.60397)
(-0.000639925 -1.72992e-15 1.60397)
(-0.000899812 5.30269e-15 1.60397)
(-0.00114949 7.48324e-16 1.60396)
(-0.00142723 -7.98776e-17 1.60394)
(-0.00164494 -3.17456e-16 1.60387)
(-0.00201834 3.45113e-16 1.60374)
(-0.00201424 1.78893e-15 1.60347)
(-0.00287777 6.46846e-16 1.60291)
(-0.00179744 3.50465e-16 1.6022)
(-0.00494359 -6.89908e-16 1.60101)
(-0.000160253 -1.1979e-15 1.60317)
(-0.0100339 -7.9946e-16 1.61714)
(-0.00116345 -9.4377e-16 1.5664)
(-0.000163669 8.24715e-16 1.60432)
(-0.000413334 1.53065e-15 1.60432)
(-0.000657465 3.01003e-15 1.60432)
(-0.000924302 1.37078e-15 1.60432)
(-0.00118025 7.36599e-16 1.60431)
(-0.00146406 -6.48664e-17 1.60429)
(-0.00168839 -6.11661e-16 1.60423)
(-0.00206241 3.55717e-16 1.60409)
(-0.00207661 1.44818e-15 1.60383)
(-0.00290761 7.28618e-16 1.60327)
(-0.00192895 4.34525e-16 1.60258)
(-0.0048679 -2.37129e-16 1.6015)
(-0.000546212 -1.74926e-15 1.60393)
(-0.00959245 -8.17921e-16 1.61878)
(-0.00175081 -1.01321e-15 1.56232)
(-0.000167716 9.01252e-16 1.60467)
(-0.000423762 2.5246e-15 1.60467)
(-0.000673829 -1.11687e-15 1.60468)
(-0.000947133 1.5467e-15 1.60468)
(-0.00120899 7.77226e-16 1.60467)
(-0.00149827 -7.86399e-17 1.60465)
(-0.0017291 -9.20795e-16 1.60459)
(-0.00210305 2.1839e-16 1.60446)
(-0.00213549 2.06401e-15 1.60419)
(-0.00293495 7.65287e-16 1.60363)
(-0.00205321 3.99428e-16 1.60297)
(-0.00479885 -1.96257e-16 1.60201)
(-0.000902428 -2.87929e-16 1.60469)
(-0.00919241 -5.69161e-16 1.62036)
(-0.00227141 -1.02698e-15 1.55826)
(-0.000171509 1.2379e-15 1.60504)
(-0.000433496 3.84043e-15 1.60504)
(-0.000689122 3.72408e-15 1.60504)
(-0.000968426 -6.22817e-16 1.60505)
(-0.00123584 9.16305e-16 1.60504)
(-0.00153009 -6.43393e-17 1.60502)
(-0.00176731 -7.44806e-16 1.60496)
(-0.0021407 6.16478e-17 1.60482)
(-0.00219113 7.34561e-16 1.60455)
(-0.00296032 -4.59926e-16 1.604)
(-0.00217057 -7.70937e-16 1.60337)
(-0.00473627 -3.12345e-16 1.60253)
(-0.0012316 -6.05342e-16 1.60546)
(-0.00882977 -5.25199e-16 1.62189)
(-0.00273287 -1.00544e-15 1.5542)
(-0.00017509 1.47011e-15 1.60541)
(-0.000442593 4.80242e-15 1.60541)
(-0.000703415 9.21287e-16 1.60542)
(-0.000988307 4.26196e-15 1.60542)
(-0.00126096 1.02774e-15 1.60542)
(-0.00155973 -3.89233e-17 1.6054)
(-0.00180321 -5.95326e-16 1.60534)
(-0.00217571 -3.13166e-16 1.6052)
(-0.00224377 1.31597e-15 1.60493)
(-0.00298413 1.01023e-15 1.60438)
(-0.00228133 6.00843e-16 1.60378)
(-0.00467975 -9.42169e-17 1.60305)
(-0.00153597 -7.74569e-16 1.60622)
(-0.00850093 -1.46953e-15 1.62336)
(-0.00314172 -9.89186e-16 1.55016)
(-0.000178453 1.43911e-15 1.60579)
(-0.00045111 4.28333e-15 1.60579)
(-0.000716785 5.5188e-15 1.6058)
(-0.0010069 3.21634e-15 1.6058)
(-0.00128452 1.06579e-15 1.6058)
(-0.00158742 -1.62075e-17 1.60578)
(-0.00183699 -5.31934e-16 1.60573)
(-0.0022084 -1.31332e-15 1.60558)
(-0.00229362 1.13499e-15 1.60531)
(-0.0030067 -2.14169e-16 1.60476)
(-0.00238583 5.99082e-16 1.6042)
(-0.00462879 -2.46535e-16 1.60359)
(-0.00181753 -1.91014e-15 1.60699)
(-0.00820248 -1.45252e-16 1.62478)
(-0.00350368 -1.17628e-15 1.54613)
(-0.000181614 1.40906e-15 1.60618)
(-0.000459116 3.80458e-15 1.60618)
(-0.000729335 -7.28001e-16 1.60619)
(-0.00102432 3.27222e-15 1.60619)
(-0.00130667 1.11251e-15 1.60619)
(-0.00161335 8.92478e-18 1.60617)
(-0.00186882 -4.49039e-16 1.60612)
(-0.002239 6.32218e-16 1.60597)
(-0.00234087 -1.82852e-16 1.60569)
(-0.00302831 7.81954e-16 1.60516)
(-0.00248445 5.96198e-16 1.60463)
(-0.00458292 -2.02143e-16 1.60413)
(-0.00207801 -3.57249e-16 1.60776)
(-0.0079314 -4.93737e-16 1.62615)
(-0.00382367 -5.0815e-16 1.54212)
(-0.000184568 1.38606e-15 1.60657)
(-0.000466644 3.76378e-15 1.60657)
(-0.00074116 9.04415e-15 1.60658)
(-0.00104068 3.21217e-15 1.60659)
(-0.00132751 1.15544e-15 1.60659)
(-0.00163768 3.69469e-17 1.60657)
(-0.00189884 -3.85202e-16 1.60651)
(-0.00226774 2.96258e-16 1.60636)
(-0.00238568 -5.09965e-17 1.60608)
(-0.00304913 -1.28214e-16 1.60556)
(-0.00257758 6.54433e-16 1.60506)
(-0.00454177 3.60564e-16 1.60468)
(-0.00231916 -3.86244e-16 1.60852)
(-0.00768488 -4.46745e-16 1.62747)
(-0.00410597 9.86958e-16 1.53812)
(-0.000187339 1.32459e-15 1.60697)
(-0.000473715 3.51478e-15 1.60697)
(-0.000752291 2.77136e-15 1.60698)
(-0.00105608 3.08606e-15 1.60699)
(-0.00134715 1.18737e-15 1.60699)
(-0.00166055 6.7197e-17 1.60697)
(-0.00192721 -3.26308e-16 1.60691)
(-0.00229482 3.58862e-16 1.60676)
(-0.00242823 2.69473e-15 1.60648)
(-0.00306932 2.03569e-15 1.60597)
(-0.0026656 7.14894e-16 1.6055)
(-0.00450503 1.4154e-15 1.60523)
(-0.00254253 -4.54992e-16 1.60929)
(-0.00746049 -4.80994e-16 1.62874)
(-0.00435432 -2.12576e-15 1.53413)
(-0.000189937 1.2418e-15 1.60738)
(-0.000480361 3.27568e-15 1.60738)
(-0.000762774 2.86401e-15 1.60739)
(-0.00107059 2.94063e-15 1.6074)
(-0.0013657 1.20566e-15 1.6074)
(-0.00168209 9.72482e-17 1.60738)
(-0.00195404 -2.71866e-16 1.60732)
(-0.0023204 3.53731e-16 1.60716)
(-0.00246863 -3.90916e-16 1.60688)
(-0.00308895 1.24584e-15 1.60638)
(-0.00274887 7.21872e-16 1.60595)
(-0.00447238 -9.38682e-16 1.6058)
(-0.00274962 -4.33264e-16 1.61006)
(-0.007256 -4.90018e-16 1.62996)
(-0.00457206 -1.98185e-15 1.53017)
(-0.000192392 1.16648e-15 1.60779)
(-0.000486622 3.21414e-15 1.60779)
(-0.000772655 -2.70997e-16 1.6078)
(-0.00108426 2.93554e-15 1.60781)
(-0.00138323 1.22147e-15 1.60781)
(-0.00170242 1.27935e-16 1.60779)
(-0.00197946 -2.1931e-16 1.60773)
(-0.00234462 3.96799e-16 1.60757)
(-0.00250702 1.33612e-15 1.60729)
(-0.00310808 9.44003e-16 1.6068)
(-0.00282767 7.06147e-16 1.60641)
(-0.00444352 6.72539e-16 1.60636)
(-0.00294178 -4.34185e-16 1.61082)
(-0.00706948 -5.32861e-16 1.63113)
(-0.00476212 7.85993e-17 1.52622)
(-0.000194707 1.07883e-15 1.6082)
(-0.000492523 3.60746e-15 1.60821)
(-0.000781984 8.12038e-15 1.60822)
(-0.00109714 3.26523e-15 1.60823)
(-0.0013998 1.23485e-15 1.60823)
(-0.00172162 1.56655e-16 1.60821)
(-0.00200355 -1.76669e-16 1.60814)
(-0.0023676 4.85112e-16 1.60798)
(-0.00254351 9.48136e-16 1.6077)
(-0.00312671 1.25547e-15 1.60723)
(-0.00290227 7.24255e-16 1.60687)
(-0.00441812 2.01075e-15 1.60693)
(-0.00312027 -4.26949e-16 1.61159)
(-0.00689916 -5.36218e-16 1.63225)
(-0.00492711 -9.34783e-16 1.52229)
(-0.000196905 6.35564e-16 1.60863)
(-0.000498093 1.1687e-15 1.60863)
(-0.000790795 1.44226e-15 1.60864)
(-0.00110931 1.90308e-15 1.60865)
(-0.00141547 1.15639e-15 1.60865)
(-0.00173978 1.76199e-16 1.60863)
(-0.0020264 -1.77541e-16 1.60856)
(-0.00238946 -2.79993e-16 1.6084)
(-0.00257822 7.81045e-16 1.60812)
(-0.00314486 1.18597e-15 1.60766)
(-0.00297285 7.40551e-16 1.60734)
(-0.00439584 5.28021e-16 1.60751)
(-0.00328615 -4.33875e-16 1.61235)
(-0.00674349 -5.59421e-16 1.63332)
(-0.00506935 4.81429e-16 1.51837)
(-0.000198982 5.88151e-16 1.60905)
(-0.00050337 5.39937e-16 1.60906)
(-0.000799133 1.79776e-15 1.60906)
(-0.00112081 9.25329e-16 1.60907)
(-0.0014303 1.08077e-15 1.60908)
(-0.00175695 1.91014e-16 1.60905)
(-0.00204808 -2.39698e-16 1.60898)
(-0.00241025 -2.06079e-16 1.60882)
(-0.00261126 -7.74632e-16 1.60854)
(-0.00316254 1.19095e-15 1.6081)
(-0.00303962 7.3071e-16 1.60782)
(-0.00437632 1.52858e-16 1.60808)
(-0.0034404 -5.31836e-16 1.61311)
(-0.00660101 -6.76318e-16 1.63435)
(-0.00519094 3.77149e-16 1.51448)
(-0.000200953 6.728e-16 1.60948)
(-0.000508371 2.14063e-15 1.60949)
(-0.000807029 -3.3229e-15 1.6095)
(-0.00113168 1.53258e-15 1.6095)
(-0.00144434 1.08771e-15 1.60951)
(-0.00177322 2.30601e-16 1.60948)
(-0.00206866 -2.15463e-15 1.60941)
(-0.00243005 2.29706e-16 1.60925)
(-0.00264271 7.19364e-16 1.60897)
(-0.00317975 1.26705e-15 1.60855)
(-0.00310274 7.34613e-16 1.6083)
(-0.00435922 2.01721e-16 1.60867)
(-0.00358383 -1.48425e-15 1.61387)
(-0.00647045 -8.3016e-16 1.63533)
(-0.0052937 -1.40548e-17 1.51062)
(-0.000202819 6.73876e-16 1.60992)
(-0.000513086 2.61551e-15 1.60992)
(-0.000814511 1.67137e-15 1.60993)
(-0.00114199 2.95099e-15 1.60994)
(-0.00145764 1.13639e-15 1.60994)
(-0.00178862 2.80303e-16 1.60992)
(-0.00208818 1.27048e-16 1.60984)
(-0.00244893 4.60387e-17 1.60968)
(-0.00267265 8.54472e-16 1.6094)
(-0.00319649 1.19104e-15 1.60899)
(-0.0031624 7.18922e-16 1.60878)
(-0.00434422 4.52202e-16 1.60925)
(-0.00371726 -1.82571e-16 1.61463)
(-0.00635061 -1.26676e-15 1.63627)
(-0.00537928 4.07593e-17 1.50677)
(-0.000204603 3.19097e-16 1.61035)
(-0.000517549 2.3545e-16 1.61036)
(-0.00082159 5.2715e-15 1.61037)
(-0.00115176 1.63529e-15 1.61038)
(-0.00147025 1.12644e-15 1.61038)
(-0.0018032 3.09069e-16 1.61035)
(-0.00210671 -3.40159e-18 1.61028)
(-0.00246692 -1.69068e-15 1.61011)
(-0.00270117 1.31042e-15 1.60984)
(-0.00321278 -1.74779e-16 1.60945)
(-0.00321881 8.3564e-16 1.60928)
(-0.00433102 1.32964e-15 1.60984)
(-0.00384131 -5.2987e-16 1.61539)
(-0.00624047 -8.64879e-16 1.63717)
(-0.00544916 1.30083e-15 1.50295)
(-0.000206276 4.31725e-16 1.6108)
(-0.00052179 1.0513e-17 1.6108)
(-0.000828299 5.25013e-15 1.61081)
(-0.00116099 1.49298e-15 1.61082)
(-0.00148219 1.13741e-15 1.61082)
(-0.00181701 3.53227e-16 1.61079)
(-0.00212429 -2.41209e-16 1.61072)
(-0.00248407 4.08251e-16 1.61055)
(-0.00272831 1.44718e-15 1.61028)
(-0.00322859 1.40002e-15 1.60991)
(-0.00327217 8.12284e-16 1.60977)
(-0.00431944 -1.55697e-16 1.61043)
(-0.00395659 -2.47623e-16 1.61614)
(-0.00613906 -6.4551e-18 1.63802)
(-0.00550475 -3.74741e-16 1.49915)
(-0.000207842 5.96724e-16 1.61124)
(-0.000525798 1.79412e-15 1.61125)
(-0.000834643 1.28237e-15 1.61126)
(-0.00116971 -5.53047e-18 1.61126)
(-0.00149349 1.07979e-15 1.61126)
(-0.00183009 3.26407e-16 1.61124)
(-0.00214094 5.20821e-16 1.61116)
(-0.0025004 4.87498e-16 1.61099)
(-0.00275413 1.30373e-15 1.61073)
(-0.0032439 2.84536e-15 1.61037)
(-0.00332263 7.67703e-16 1.61027)
(-0.00430934 1.79927e-16 1.61103)
(-0.0040637 9.5244e-16 1.61689)
(-0.00604551 -2.12612e-16 1.63882)
(-0.00554725 -4.25853e-16 1.49537)
(-0.000209312 6.4051e-16 1.61169)
(-0.000529567 1.59039e-15 1.6117)
(-0.000840646 7.24634e-16 1.61171)
(-0.00117798 3.42968e-16 1.61171)
(-0.0015042 1.06916e-15 1.61171)
(-0.00184248 -1.81907e-15 1.61168)
(-0.00215671 6.37469e-16 1.6116)
(-0.00251593 4.35647e-16 1.61143)
(-0.0027787 1.54539e-15 1.61117)
(-0.00325871 1.26965e-16 1.61084)
(-0.00337035 1.39115e-15 1.61078)
(-0.00430056 1.49112e-16 1.61162)
(-0.00416326 -1.96355e-15 1.61764)
(-0.00595901 -7.28334e-16 1.63959)
(-0.0055777 -4.87752e-16 1.49162)
(-0.000210719 6.41281e-16 1.61214)
(-0.000533133 1.45483e-15 1.61215)
(-0.000846311 5.24743e-16 1.61216)
(-0.00118579 1.29487e-15 1.61217)
(-0.00151432 1.11742e-15 1.61216)
(-0.0018542 7.61535e-16 1.61213)
(-0.00217163 1.15601e-16 1.61205)
(-0.00253068 3.97152e-16 1.61188)
(-0.00280203 2.49321e-15 1.61163)
(-0.00327301 1.59084e-15 1.61131)
(-0.00341544 1.34e-15 1.61129)
(-0.0042929 -1.06875e-15 1.61222)
(-0.00425573 -5.75875e-16 1.61838)
(-0.00587883 -7.56168e-16 1.64031)
(-0.0055971 -1.36271e-15 1.4879)
(-0.000212042 6.1713e-16 1.6126)
(-0.000536509 1.29429e-15 1.6126)
(-0.000851663 -1.09396e-15 1.61261)
(-0.00119315 1.23868e-15 1.61262)
(-0.00152387 1.15016e-15 1.61262)
(-0.00186526 8.23428e-16 1.61259)
(-0.00218576 1.66646e-16 1.6125)
(-0.00254469 3.35899e-16 1.61233)
(-0.00282418 1.59853e-15 1.61208)
(-0.00328677 2.80159e-15 1.61179)
(-0.00345802 9.99099e-16 1.6118)
(-0.00428621 1.16455e-15 1.61282)
(-0.00434158 -4.12473e-16 1.61913)
(-0.00580438 -7.63774e-16 1.64099)
(-0.00560639 1.66274e-16 1.4842)
(-0.000213294 5.8916e-16 1.61306)
(-0.000539684 1.2751e-15 1.61306)
(-0.000856707 -5.20194e-15 1.61307)
(-0.00120009 1.27242e-15 1.61308)
(-0.00153287 1.16249e-15 1.61307)
(-0.0018757 7.64312e-16 1.61304)
(-0.00219911 1.94461e-16 1.61296)
(-0.00255797 2.97661e-16 1.61279)
(-0.00284516 1.36924e-16 1.61254)
(-0.00329997 1.39937e-15 1.61227)
(-0.00349822 1.02826e-15 1.61232)
(-0.00428036 5.18388e-16 1.61342)
(-0.00442122 -4.03024e-16 1.61986)
(-0.00573509 -7.954e-16 1.64162)
(-0.0056064 -5.88117e-17 1.48053)
(-0.000214477 5.67999e-16 1.61352)
(-0.000542658 1.35331e-15 1.61352)
(-0.000861456 -2.18102e-15 1.61353)
(-0.00120663 1.38055e-15 1.61354)
(-0.00154135 1.16782e-15 1.61353)
(-0.00188555 7.32928e-16 1.6135)
(-0.00221171 2.02434e-16 1.61341)
(-0.00257054 2.63826e-16 1.61324)
(-0.00286502 -1.09565e-16 1.61301)
(-0.00331258 1.16707e-15 1.61275)
(-0.00353615 9.63333e-16 1.61284)
(-0.00427525 -1.49527e-16 1.61402)
(-0.00449509 -4.15413e-16 1.6206)
(-0.00567049 -8.04753e-16 1.64222)
(-0.00559792 -1.17381e-16 1.47688)
(-0.000215605 5.49551e-16 1.61398)
(-0.000545469 1.32685e-15 1.61398)
(-0.000865911 1.6436e-16 1.61399)
(-0.00121278 1.25851e-15 1.614)
(-0.00154933 1.15889e-15 1.61399)
(-0.00189483 7.47442e-16 1.61396)
(-0.0022236 2.22612e-16 1.61387)
(-0.00258243 2.51144e-16 1.6137)
(-0.00288379 -2.22459e-16 1.61347)
(-0.00332459 4.20157e-16 1.61324)
(-0.00357188 9.18953e-16 1.61337)
(-0.00427076 1.0606e-15 1.61463)
(-0.00456353 -3.7495e-16 1.62133)
(-0.0056101 -7.65218e-16 1.64278)
(-0.00558164 4.85617e-16 1.47327)
(-0.000216646 4.98755e-16 1.61444)
(-0.000548124 1.88084e-15 1.61445)
(-0.000870095 -1.17112e-15 1.61446)
(-0.00121852 7.37933e-16 1.61446)
(-0.00155682 1.11735e-15 1.61446)
(-0.00190352 5.69674e-16 1.61442)
(-0.00223478 2.31827e-16 1.61433)
(-0.00259366 2.53583e-16 1.61417)
(-0.00290152 1.6805e-15 1.61394)
(-0.00333597 1.2309e-15 1.61373)
(-0.00360548 8.28242e-16 1.61389)
(-0.00426674 1.29514e-15 1.61523)
(-0.00462683 -3.21418e-16 1.62205)
(-0.0055535 -6.41587e-16 1.64329)
(-0.00555823 -6.56365e-16 1.46969)
(-0.000217618 5.61697e-17 1.61491)
(-0.000550601 6.3752e-15 1.61492)
(-0.000874021 -3.62038e-16 1.61492)
(-0.00122391 -1.35893e-15 1.61493)
(-0.00156383 1.15438e-15 1.61492)
(-0.00191167 -1.8429e-15 1.61489)
(-0.00224527 2.49799e-16 1.6148)
(-0.00260425 2.48001e-16 1.61463)
(-0.00291825 2.07709e-16 1.61442)
(-0.00334672 1.52064e-15 1.61422)
(-0.003637 -2.38638e-17 1.61442)
(-0.00426308 1.16868e-15 1.61584)
(-0.00468523 -2.8556e-16 1.62278)
(-0.00550026 7.29882e-17 1.64377)
(-0.00552826 -1.40968e-16 1.46613)
(-0.000218528 3.12616e-17 1.61538)
(-0.000552901 -1.18955e-15 1.61538)
(-0.000877698 -1.05262e-15 1.61539)
(-0.00122895 2.42313e-15 1.6154)
(-0.00157036 1.19049e-15 1.61539)
(-0.00191928 8.94503e-16 1.61535)
(-0.0022551 2.94059e-16 1.61526)
(-0.00261419 2.03254e-16 1.6151)
(-0.00293402 1.09209e-15 1.61489)
(-0.00335684 1.90013e-15 1.61472)
(-0.00366653 1.47469e-15 1.61495)
(-0.0042597 1.75333e-15 1.61644)
(-0.00473903 -2.40441e-16 1.62349)
(-0.00545003 -1.24792e-15 1.64421)
(-0.00549229 6.71687e-16 1.46261)
(-0.000219384 1.61735e-16 1.61585)
(-0.000555049 3.13294e-16 1.61586)
(-0.000881107 -2.63343e-15 1.61586)
(-0.00123363 1.21976e-15 1.61587)
(-0.00157644 1.14755e-15 1.61586)
(-0.00192637 8.83178e-16 1.61582)
(-0.00226429 3.24964e-16 1.61573)
(-0.00262351 1.77317e-16 1.61557)
(-0.00294884 -8.3337e-16 1.61537)
(-0.00336635 1.14344e-15 1.61521)
(-0.00369416 1.08321e-15 1.61549)
(-0.00425652 1.216e-15 1.61705)
(-0.0047885 -2.14065e-16 1.6242)
(-0.00540247 -8.63262e-16 1.6446)
(-0.00545078 1.27053e-16 1.45911)
(-0.000220161 3.28705e-16 1.61632)
(-0.000557045 2.16636e-16 1.61633)
(-0.00088426 -7.07004e-15 1.61634)
(-0.00123798 1.06249e-15 1.61634)
(-0.0015821 1.03616e-15 1.61633)
(-0.00193295 7.30484e-16 1.61629)
(-0.00227285 3.1334e-16 1.6162)
(-0.0026322 2.16466e-16 1.61604)
(-0.00296275 4.06556e-16 1.61585)
(-0.00337527 1.88521e-15 1.61571)
(-0.00371998 1.07712e-15 1.61602)
(-0.00425348 -7.61854e-16 1.61765)
(-0.00483388 -1.54843e-16 1.62491)
(-0.00535736 -9.43006e-16 1.64496)
(-0.00540425 8.19181e-18 1.45565)
(-0.000220879 1.23457e-15 1.6168)
(-0.00055889 -2.44865e-16 1.6168)
(-0.000887183 -7.37405e-16 1.61681)
(-0.001242 9.89576e-16 1.61682)
(-0.00158733 8.94047e-16 1.6168)
(-0.00193904 7.17568e-16 1.61676)
(-0.00228081 3.95362e-16 1.61667)
(-0.00264029 2.33047e-16 1.61651)
(-0.00297577 -1.5294e-17 1.61633)
(-0.00338359 2.33226e-15 1.61622)
(-0.00374407 1.05736e-15 1.61656)
(-0.0042505 1.34352e-15 1.61826)
(-0.00487539 -2.89858e-16 1.62561)
(-0.00531445 -8.98122e-16 1.64529)
(-0.00535314 8.51209e-16 1.45222)
(-0.000221533 -2.8978e-15 1.61727)
(-0.000560579 -4.65708e-15 1.61728)
(-0.000889878 3.63016e-15 1.61729)
(-0.00124568 8.84802e-16 1.61729)
(-0.00159213 1.71407e-15 1.61728)
(-0.00194465 7.29176e-16 1.61724)
(-0.00228817 2.25899e-16 1.61714)
(-0.00264779 2.30841e-16 1.61699)
(-0.00298793 -1.62536e-16 1.61682)
(-0.00339133 -5.15698e-16 1.61672)
(-0.00376654 1.06058e-15 1.6171)
(-0.00424758 1.90794e-15 1.61886)
(-0.00491326 -1.62194e-16 1.62631)
(-0.00527354 -8.65071e-16 1.64557)
(-0.00529789 1.01401e-15 1.44883)
(-0.000222144 -2.71258e-15 1.61775)
(-0.000562114 1.68936e-15 1.61776)
(-0.000892329 -3.35271e-15 1.61776)
(-0.00124907 6.51872e-16 1.61777)
(-0.00159655 1.44502e-15 1.61775)
(-0.0019498 6.76474e-16 1.61771)
(-0.00229496 1.17883e-16 1.61762)
(-0.00265471 1.89039e-16 1.61747)
(-0.00299924 -4.22388e-16 1.6173)
(-0.00339849 2.38498e-15 1.61723)
(-0.00378744 1.09841e-15 1.61764)
(-0.00424467 1.80432e-15 1.61947)
(-0.00494768 1.34823e-16 1.627)
(-0.00523435 -8.33899e-16 1.64582)
(-0.00523881 1.08511e-15 1.44546)
(-0.000222692 -3.37055e-16 1.61823)
(-0.000563518 2.42822e-17 1.61824)
(-0.000894559 -4.59631e-15 1.61824)
(-0.00125213 4.58436e-16 1.61824)
(-0.00160056 7.49903e-16 1.61823)
(-0.00195448 5.92237e-16 1.61819)
(-0.00230119 2.23995e-17 1.61809)
(-0.00266108 1.38977e-16 1.61795)
(-0.00300975 9.41756e-16 1.61779)
(-0.00340506 1.58771e-15 1.61774)
(-0.00380684 1.16178e-15 1.61818)
(-0.00424175 3.093e-15 1.62007)
(-0.00497879 2.66597e-16 1.62768)
(-0.00519675 -8.01971e-16 1.64603)
(-0.00517632 1.41265e-15 1.44213)
(-0.000223182 -1.43796e-16 1.61871)
(-0.000564782 4.36536e-16 1.61872)
(-0.000896567 -9.72389e-16 1.61872)
(-0.00125488 4.88454e-16 1.61872)
(-0.00160418 1.17512e-15 1.61871)
(-0.00195872 5.5033e-16 1.61866)
(-0.00230688 2.03214e-16 1.61857)
(-0.0026669 1.41601e-16 1.61843)
(-0.00301946 -1.55749e-15 1.61828)
(-0.00341104 1.69993e-15 1.61825)
(-0.0038248 1.17102e-15 1.61873)
(-0.00423879 1.51963e-15 1.62068)
(-0.00500678 4.35552e-16 1.62836)
(-0.00516051 -7.84517e-16 1.64621)
(-0.00511073 2.30326e-16 1.43883)
(-0.000223609 -1.79468e-17 1.61919)