/*--------------------------------*- C++ -*----------------------------------*\
  =========                 |
  \\      /  F ield         | OpenFOAM: The Open Source CFD Toolbox
   \\    /   O peration     | Website:  https://openfoam.org
    \\  /    A nd           | Version:  7
     \\/     M anipulation  |
\*---------------------------------------------------------------------------*/
FoamFile
{
    version     2.0;
    format      ascii;
    class       volScalarField;
    location    "3.2";
    object      T;
}
// * * * * * * * * * * * * * * * * * * * * * * * * * * * * * * * * * * * * * //

dimensions      [0 0 0 1 0 0 0];

internalField   nonuniform List<scalar> 
32100
(
2.56772e+90
-2.35285e+89
1.55163e+88
2.92786e+87
-3.01382e+86
-4.33985e+85
4.37873e+84
-3.08263e+83
-6.04149e+82
7.10139e+81
6.35703e+80
-2.15636e+79
1.49759e+77
1.38799e+77
4.50573e+76
-2.60699e+89
1.57064e+88
3.13874e+87
-3.06237e+86
-4.53638e+85
4.53036e+84
-3.10528e+83
-6.20153e+82
7.68225e+81
1.3098e+81
1.60223e+80
-2.98516e+79
9.66052e+77
1.19102e+77
3.71819e+76
1.53861e+88
3.45584e+87
-3.12916e+86
-4.76603e+85
4.76582e+84
-3.16476e+83
-6.55363e+82
7.50501e+81
1.01285e+81
-1.41244e+80
1.90703e+79
-1.77752e+79
1.34796e+78
1.0949e+77
2.91859e+76
3.90731e+87
-3.17901e+86
-5.16555e+85
5.28737e+84
-2.71428e+83
-7.23563e+82
6.26179e+81
1.00457e+81
-1.57229e+80
3.7807e+78
-7.95099e+78
-6.87297e+78
1.2908e+78
1.1186e+77
2.06379e+76
-2.69746e+86
-5.40567e+85
5.16732e+84
-6.52668e+81
-2.7903e+82
2.52845e+81
-3.03218e+80
-2.1243e+80
7.2739e+78
-3.93416e+78
-3.28885e+78
-1.34854e+78
9.79121e+77
9.83007e+76
1.06537e+76
-1.73738e+85
8.87487e+84
-4.60603e+83
2.17674e+83
5.10802e+82
-3.51366e+81
-1.5651e+81
-5.78632e+79
-5.53005e+78
-1.95772e+78
2.67312e+77
3.8255e+77
6.12378e+77
6.75335e+76
2.50909e+75
4.9907e+85
2.97629e+84
-2.40501e+83
2.81965e+83
4.55383e+82
-4.20288e+81
-1.38819e+81
-8.08922e+79
-6.50486e+78
-1.54074e+78
5.74653e+77
5.24203e+77
3.12676e+77
3.32955e+76
-2.31429e+75
3.99345e+85
3.36717e+84
-1.63256e+83
2.56283e+83
4.50058e+82
-3.36044e+81
-1.38165e+81
-8.9694e+79
-6.13421e+78
-1.78251e+78
2.76491e+77
2.81369e+77
1.23664e+77
8.6913e+75
-3.94669e+75
3.68332e+85
3.59784e+84
-1.75138e+83
2.34914e+83
4.57752e+82
-2.68028e+81
-1.35028e+81
-9.66177e+79
-5.90939e+78
-1.90363e+78
4.68662e+76
1.03266e+77
3.39502e+76
-2.52436e+75
-3.48218e+75
3.3781e+85
3.69721e+84
-1.7687e+83
2.1476e+83
4.60883e+82
-1.97625e+81
-1.30776e+81
-1.03392e+80
-5.67786e+78
-1.85151e+78
-3.90338e+76
4.8344e+76
4.81732e+75
-4.4841e+75
-2.2363e+75
3.08546e+85
3.77543e+84
-1.72048e+83
1.94663e+83
4.61779e+82
-1.27564e+81
-1.25657e+81
-1.09635e+80
-5.51741e+78
-1.73081e+78
-6.91571e+76
3.65549e+76
7.22596e+74
-2.78375e+75
-1.0962e+75
2.81368e+85
3.81774e+84
-1.5815e+83
1.75003e+83
4.6099e+82
-5.92472e+80
-1.19791e+81
-1.15156e+80
-5.4693e+78
-1.58888e+78
-8.26024e+76
3.1196e+76
2.51082e+75
-9.19101e+74
-3.75147e+74
2.5471e+85
3.76314e+84
-1.13287e+83
1.59212e+83
4.56805e+82
5.76486e+79
-1.13419e+81
-1.19755e+80
-5.53808e+78
-1.44607e+78
-9.04861e+76
2.50688e+76
2.9417e+75
-7.84513e+73
-6.4777e+73
2.19526e+85
3.25721e+84
-5.3629e+82
1.2814e+83
4.08725e+82
5.84971e+80
-1.05952e+81
-1.23051e+80
-5.70368e+78
-1.31006e+78
-1.00408e+77
2.06251e+76
2.36108e+75
3.95503e+73
-7.47582e+72
1.5022e+85
2.58159e+84
-3.62469e+82
9.43379e+82
3.35207e+82
8.70912e+80
-9.02033e+80
-1.1883e+80
-5.83844e+78
-1.20767e+78
-1.15759e+77
2.05931e+76
2.68081e+75
9.54652e+73
8.65041e+72
1.11487e+85
2.23144e+84
-3.62881e+82
7.25719e+82
2.87759e+82
1.14581e+81
-7.54828e+80
-1.14771e+80
-6.08286e+78
-1.14106e+78
-1.33955e+77
2.07206e+76
3.57432e+75
1.52021e+74
1.89232e+73
9.65479e+84
2.06887e+84
-3.28774e+82
6.00851e+82
2.67972e+82
1.50712e+81
-6.6993e+80
-1.16046e+80
-6.57355e+78
-1.08386e+78
-1.4987e+77
1.83111e+76
4.1432e+75
2.03685e+74
2.61666e+73
8.43022e+84
1.98352e+84
-2.444e+82
5.20493e+82
2.5895e+82
1.84608e+81
-6.04512e+80
-1.1939e+80
-7.2985e+78
-1.02995e+78
-1.63048e+77
1.48076e+76
4.41253e+75
2.49165e+74
3.00851e+73
7.4568e+84
1.91116e+84
-1.06e+82
4.51559e+82
2.49633e+82
2.1829e+81
-5.40212e+80
-1.23552e+80
-8.21375e+78
-9.8079e+77
-1.73632e+77
1.07892e+76
4.47539e+75
2.87648e+74
3.12032e+73
6.61187e+84
1.83781e+84
5.18565e+81
3.84042e+82
2.39067e+82
2.52044e+81
-4.70282e+80
-1.27425e+80
-9.29558e+78
-9.39859e+77
-1.81755e+77
6.72524e+75
4.54535e+75
3.28714e+74
3.09988e+73
5.82626e+84
1.75145e+84
2.14846e+82
3.18803e+82
2.27396e+82
2.8538e+81
-3.92781e+80
-1.30492e+80
-1.05441e+79
-9.12908e+77
-1.87335e+77
2.46182e+75
4.49208e+75
3.66739e+74
2.97192e+73
5.0794e+84
1.64837e+84
3.75461e+82
2.58561e+82
2.14636e+82
3.17943e+81
-3.07093e+80
-1.32714e+80
-1.19874e+79
-9.07059e+77
-1.90929e+77
-1.8432e+75
4.2258e+75
3.91991e+74
2.74809e+73
4.38288e+84
1.53525e+84
5.30914e+82
2.0498e+82
2.00923e+82
3.49119e+81
-2.13156e+80
-1.33973e+80
-1.36636e+79
-9.30644e+77
-1.93644e+77
-6.01915e+75
3.95265e+75
4.14709e+74
2.53353e+73
3.7448e+84
1.41743e+84
6.79183e+82
1.58363e+82
1.86124e+82
3.76818e+81
-1.11094e+80
-1.34083e+80
-1.56009e+79
-9.91677e+77
-1.96367e+77
-1.01847e+76
3.72274e+75
4.43483e+74
2.40484e+73
3.17419e+84
1.30197e+84
8.19056e+82
1.19379e+82
1.70494e+82
4.00469e+81
-8.04266e+77
-1.32561e+80
-1.78191e+79
-1.09645e+78
-1.99087e+77
-1.45398e+76
3.50108e+75
4.82122e+74
2.40513e+73
2.66999e+84
1.18972e+84
9.48242e+82
8.85886e+81
1.5434e+82
4.2013e+81
1.17478e+80
-1.28718e+80
-2.03311e+79
-1.2566e+78
-2.01894e+77
-1.93964e+76
3.26355e+75
5.35925e+74
2.5717e+73
2.23632e+84
1.08168e+84
1.06448e+83
6.58056e+81
1.37914e+82
4.35438e+81
2.43569e+80
-1.21965e+80
-2.31242e+79
-1.48641e+78
-2.04441e+77
-2.46996e+76
2.92296e+75
5.99005e+74
2.8842e+73
1.86869e+84
9.83418e+83
1.17231e+83
5.11434e+81
1.21488e+82
4.45765e+81
3.77184e+80
-1.11572e+80
-2.61052e+79
-1.81728e+78
-2.07166e+77
-2.99182e+76
2.38011e+75
6.52873e+74
3.27306e+73
1.55226e+84
8.95212e+83
1.27578e+83
4.53388e+81
1.05298e+82
4.50923e+81
5.18346e+80
-9.67976e+79
-2.91963e+79
-2.27214e+78
-2.11881e+77
-3.51479e+76
1.66925e+75
7.02344e+74
3.76713e+73
1.27507e+84
8.09275e+83
1.36695e+83
4.88846e+81
8.94981e+81
4.50399e+81
6.66589e+80
-7.66836e+79
-3.23844e+79
-2.87618e+78
-2.21299e+77
-4.04631e+76
7.72015e+74
7.49992e+74
4.38665e+73
1.03221e+84
7.16633e+83
1.42386e+83
6.07489e+81
7.44418e+81
4.43396e+81
8.21185e+80
-4.99005e+79
-3.55527e+79
-3.68403e+78
-2.39977e+77
-4.50937e+76
-3.34293e+74
7.73885e+74
5.0467e+73
8.26408e+83
6.20069e+83
1.43146e+83
7.90515e+81
6.06651e+81
4.29404e+81
9.79922e+80
-1.48354e+79
-3.84187e+79
-4.74531e+78
-2.76313e+77
-4.86573e+76
-1.54554e+75
7.8172e+74
5.84815e+73
6.61034e+83
5.34635e+83
1.42194e+83
1.02724e+82
4.84764e+81
4.0779e+81
1.13765e+81
3.01363e+79
-4.04151e+79
-6.12504e+78
-3.45717e+77
-5.3275e+76
-3.01797e+75
8.09434e+74
7.17324e+73
5.26327e+83
4.68458e+83
1.4353e+83
1.32206e+82
3.82767e+81
3.78959e+81
1.28878e+81
8.5764e+79
-4.07033e+79
-7.8593e+78
-4.70045e+77
-6.07915e+76
-5.19169e+75
8.57901e+74
9.529e+73
4.13667e+83
4.11631e+83
1.45299e+83
1.6781e+82
3.07592e+81
3.43876e+81
1.42316e+81
1.51307e+80
-3.82514e+79
-9.95873e+78
-6.81693e+77
-6.95817e+76
-8.27e+75
8.75885e+74
1.344e+74
3.21329e+83
3.53968e+83
1.43821e+83
2.08633e+82
2.66424e+81
3.02883e+81
1.51503e+81
2.24826e+80
-3.18685e+79
-1.23284e+79
-1.02846e+78
-8.12408e+76
-1.25071e+76
7.74817e+74
1.95559e+74
2.46138e+83
2.9964e+83
1.40031e+83
2.53794e+82
2.66872e+81
2.57498e+81
1.55434e+81
3.04339e+80
-2.04725e+79
-1.47197e+79
-1.56099e+78
-1.00601e+77
-1.80787e+76
3.8515e+74
2.83559e+74
1.84455e+83
2.51913e+83
1.35793e+83
3.02517e+82
3.17219e+81
2.1184e+81
1.54517e+81
3.86586e+80
-3.20794e+78
-1.67695e+79
-2.31262e+78
-1.33277e+77
-2.39933e+76
-4.91829e+74
3.89252e+74
1.3456e+83
2.09542e+83
1.30675e+83
3.52041e+82
4.21983e+81
1.69913e+81
1.48505e+81
4.66539e+80
2.01578e+79
-1.78876e+79
-3.27315e+78
-1.93825e+77
-2.93439e+76
-2.01e+75
4.83281e+74
9.49985e+82
1.71606e+83
1.24205e+83
3.98463e+82
5.7149e+81
1.36483e+81
1.37095e+81
5.37169e+80
4.85887e+79
-1.73479e+79
-4.37412e+78
-3.00909e+77
-3.40952e+76
-4.37776e+75
5.03704e+74
6.4753e+82
1.36706e+83
1.15099e+83
4.33834e+82
7.47478e+81
1.16734e+81
1.20744e+81
5.84888e+80
8.01574e+79
-1.47167e+79
-5.49598e+78
-4.71931e+77
-3.79558e+76
-7.63184e+75
3.20868e+74
4.28338e+82
1.04918e+83
1.02886e+83
4.50492e+82
9.38444e+81
1.1465e+81
1.01649e+81
6.09172e+80
1.14151e+80
-1.00054e+79
-6.43555e+78
-7.02041e+77
-3.93518e+76
-1.01218e+76
-1.26977e+74
2.79021e+82
7.79702e+82
8.83764e+82
4.49997e+82
1.13155e+82
1.31599e+81
8.20392e+80
5.98661e+80
1.50311e+80
-3.43642e+78
-6.83712e+78
-9.25269e+77
-4.23068e+76
-1.10899e+76
-7.57575e+74
1.80101e+82
5.70294e+82
7.38965e+82
4.39326e+82
1.31472e+82
1.66435e+81
6.46262e+80
5.602e+80
1.73128e+80
4.29159e+78
-6.82568e+78
-1.12888e+78
-5.05687e+76
-1.09511e+76
-1.47653e+75
1.15591e+82
4.15773e+82
6.14162e+82
4.22679e+82
1.48153e+82
2.16584e+81
5.14644e+80
5.04674e+80
1.83419e+80
1.14965e+79
-6.65052e+78
-1.27952e+78
-5.95621e+76
-1.12205e+76
-3.21291e+75
7.37454e+81
3.03017e+82
5.09726e+82
4.01476e+82
1.62992e+82
2.79471e+81
4.35344e+80
4.44089e+80
1.89659e+80
1.76063e+79
-5.70151e+78
-1.25714e+78
-5.92012e+76
-6.17422e+75
-2.07142e+75
4.65764e+81
2.19641e+82
4.23095e+82
3.78653e+82
1.75814e+82
3.5346e+81
4.15608e+80
3.91969e+80
1.9209e+80
2.31028e+79
-4.62631e+78
-1.17824e+78
-5.62477e+76
-3.22551e+75
-1.04059e+75
2.93764e+81
1.57396e+82
3.48869e+82
3.54395e+82
1.86141e+82
4.3572e+81
4.58772e+80
3.48251e+80
1.97162e+80
2.82022e+79
-3.91382e+78
-1.1629e+78
-5.69084e+76
-2.07458e+75
-7.72284e+74
1.84215e+81
1.10227e+82
2.82412e+82
3.26577e+82
1.9281e+82
5.20152e+81
5.60034e+80
3.07425e+80
2.02621e+80
3.36177e+79
-3.33117e+78
-1.19096e+78
-6.21643e+76
-1.76319e+75
-8.03163e+74
1.1676e+81
7.52044e+81
2.24381e+82
2.9662e+82
1.96015e+82
6.04237e+81
7.10673e+80
2.66713e+80
2.04333e+80
3.91009e+79
-2.75106e+78
-1.23415e+78
-6.98851e+76
-1.90941e+75
-9.87223e+74
7.62591e+80
4.98978e+81
1.75873e+82
2.6651e+82
1.9685e+82
6.90906e+81
9.19132e+80
2.28731e+80
2.02922e+80
4.44119e+79
-2.11979e+78
-1.26544e+78
-7.74087e+76
-2.41122e+75
-1.24864e+75
5.28089e+80
3.20903e+81
1.35073e+82
2.34275e+82
1.95521e+82
7.8096e+81
1.20592e+81
1.98526e+80
1.98991e+80
4.93866e+79
-1.40569e+78
-1.25042e+78
-8.16966e+76
-3.1786e+75
-1.52462e+75
3.91932e+80
1.99712e+81
9.99088e+81
2.00832e+82
1.91764e+82
8.74654e+81
1.58154e+81
1.80924e+80
1.92027e+80
5.39864e+79
-6.56439e+77
-1.18234e+78
-8.15668e+76
-4.20508e+75
-1.9501e+75
3.06538e+80
1.19761e+81
7.0916e+81
1.68564e+82
1.86541e+82
9.71366e+81
2.05862e+81
1.81593e+80
1.81325e+80
5.78506e+79
5.31519e+76
-1.07019e+78
-7.73695e+76
-5.52788e+75
-2.94704e+75
2.5084e+80
6.93128e+80
4.86036e+81
1.38481e+82
1.78709e+82
1.06454e+82
2.64792e+81
2.08797e+80
1.66853e+80
6.06534e+79
6.33504e+77
-9.15516e+77
-6.96811e+76
-6.94215e+75
-4.60085e+75
2.11017e+80
3.95135e+80
3.15323e+81
1.0996e+82
1.66352e+82
1.14677e+82
3.35817e+81
2.72021e+80
1.491e+80
6.21191e+79
9.55121e+77
-7.09286e+77
-6.01142e+76
-6.35105e+75
-4.98811e+75
1.75119e+80
2.35719e+80
1.89044e+81
8.28847e+81
1.49836e+82
1.21107e+82
4.20245e+81
3.85923e+80
1.2905e+80
6.00327e+79
9.24485e+77
-4.36474e+77
-4.40489e+76
-4.37829e+75
-4.61554e+75
1.37376e+80
1.61611e+80
1.02325e+81
5.85902e+81
1.29526e+82
1.24621e+82
5.15358e+81
5.68165e+80
1.09332e+80
5.43909e+79
6.51674e+77
-1.58491e+77
-3.72903e+76
-5.61561e+75
-4.66766e+75
9.90459e+79
1.30782e+80
4.82644e+80
3.78306e+81
1.06042e+82
1.24191e+82
6.1871e+81
8.28919e+80
9.24766e+79
4.74688e+79
3.91808e+77
2.53479e+76
-5.22909e+76
-1.00035e+76
-6.40483e+75
6.39782e+79
1.14496e+80
1.98466e+80
2.12376e+81
8.0945e+81
1.19201e+82
7.27577e+81
1.16471e+81
8.64951e+79
5.54631e+79
1.06223e+78
2.3144e+76
-6.19471e+76
-2.88926e+76
-1.66284e+76
3.40433e+79
9.58786e+79
9.63752e+79
9.122e+80
5.57874e+81
1.09096e+82
8.34807e+81
1.56149e+81
9.89698e+79
1.00365e+80
3.91453e+78
-5.3751e+77
-2.2176e+77
-1.50925e+77
-6.45463e+76
1.04651e+79
6.43373e+79
1.06063e+80
1.56891e+80
3.19628e+81
9.33747e+81
9.27591e+81
2.02878e+81
1.05827e+80
1.17327e+80
1.38652e+79
6.96501e+77
1.28148e+78
7.1035e+77
1.73697e+77
-5.44646e+77
1.92897e+79
1.46847e+80
-1.45323e+80
1.10773e+81
7.20421e+81
9.87642e+81
2.68903e+81
1.32096e+80
1.54846e+80
3.53211e+79
9.38051e+78
8.28828e+78
7.20748e+78
3.17665e+78
-1.06525e+78
3.07106e+78
1.26606e+80
-5.43702e+79
-4.62449e+80
4.65833e+81
9.94412e+81
3.5081e+81
2.0068e+80
1.8432e+80
9.95251e+79
6.4438e+79
7.27952e+79
9.38107e+79
6.23541e+79
4.56583e+78
3.60291e+78
1.0066e+80
1.46266e+80
-1.26573e+81
2.05142e+81
9.35557e+81
4.21329e+81
3.12896e+80
1.45377e+80
1.78227e+80
1.47884e+80
1.90526e+80
1.84939e+80
1.07044e+80
1.06144e+79
3.29166e+78
1.50207e+80
1.00831e+80
-1.36241e+81
4.62154e+78
8.15329e+81
4.59305e+81
4.94388e+80
2.93267e+79
4.27671e+79
6.93347e+79
9.51569e+79
9.71723e+79
9.85054e+79
2.03532e+81
8.44264e+80
4.84824e+80
-2.75499e+80
-1.42845e+81
-8.8432e+80
6.78905e+81
4.61105e+81
7.70985e+80
3.71343e+78
-2.66494e+78
7.11199e+77
1.75777e+79
3.95757e+79
8.66086e+79
-2.64355e+82
-1.06968e+82
-4.21256e+81
-2.02219e+81
-2.02965e+81
1.2887e+80
6.82372e+81
4.55507e+81
1.20795e+81
3.52139e+80
1.04223e+80
4.63857e+79
2.92764e+79
3.04366e+79
7.06572e+79
1.53237e+83
5.20919e+82
8.74251e+81
-2.55097e+81
-3.60241e+81
6.11749e+81
1.28508e+82
5.4444e+81
1.73535e+81
5.67464e+80
2.0246e+80
8.65078e+79
4.58692e+79
3.08016e+79
5.96991e+79
3.14503e+84
8.44833e+83
3.83858e+83
2.0683e+83
1.20477e+83
7.20579e+82
3.56984e+82
1.39196e+82
4.256e+81
1.24432e+81
3.94399e+80
1.50585e+80
6.96061e+79
3.78898e+79
4.48655e+79
1.13265e+84
1.86715e+84
2.22109e+84
1.30424e+84
7.79311e+83
4.63425e+83
2.01112e+83
5.77064e+82
1.52561e+82
4.12893e+81
1.27946e+81
4.99673e+80
2.42139e+80
1.37598e+80
2.47842e+80
-5.92492e+86
-7.85253e+85
-1.25415e+85
-1.2482e+84
7.9098e+83
7.24467e+83
3.01722e+83
9.04031e+82
2.50526e+82
7.32668e+81
2.44842e+81
9.9196e+80
4.87982e+80
3.09811e+80
5.28161e+80
3.38384e+87
-2.65405e+86
-1.64395e+86
-3.9052e+85
-6.22504e+84
-9.38685e+82
2.53732e+83
6.08036e+82
2.36545e+81
-1.09229e+82
-1.19354e+82
-9.53427e+81
-6.32203e+81
-3.40801e+81
-2.36959e+81
-8.39166e+87
2.71303e+87
-3.14212e+86
-1.13907e+86
-9.31785e+84
-3.66121e+83
-1.53188e+83
-1.45185e+83
-1.58559e+83
-1.23784e+83
-8.8388e+82
-6.07925e+82
-3.85367e+82
-2.14402e+82
-1.40289e+82
-3.42434e+89
-1.06349e+88
2.75027e+87
-8.32162e+86
1.0271e+84
6.35495e+84
-1.41481e+84
-1.3991e+84
-1.07362e+84
-8.51666e+83
-6.33287e+83
-4.43529e+83
-2.79696e+83
-1.49608e+83
-6.50858e+82
-1.47251e+89
-3.37795e+89
-4.67223e+87
2.31088e+87
-8.30362e+86
-3.28347e+84
-1.33141e+85
-1.88816e+85
-1.61796e+85
-1.30795e+85
-1.01053e+85
-7.20577e+84
-4.49749e+84
-2.31131e+84
-8.43163e+83
3.27971e+91
-3.16602e+89
-3.13968e+89
-4.20284e+87
1.82671e+87
-9.37419e+86
-1.01723e+86
-7.49541e+85
-5.39468e+85
-3.28085e+85
-1.86535e+85
-1.07325e+85
-6.70516e+84
-4.5646e+84
-1.95142e+84
-8.59354e+91
3.02435e+91
-3.97032e+89
-3.0156e+89
-3.2021e+87
2.69086e+87
1.50956e+86
9.48004e+86
8.95816e+86
7.8891e+86
6.54886e+86
4.95388e+86
3.21352e+86
1.64592e+86
6.17621e+85
-5.601e+92
-6.44739e+91
2.82594e+91
-4.13505e+89
-2.75415e+89
1.06945e+88
1.31395e+88
8.23897e+87
6.98472e+87
5.20196e+87
3.72723e+87
2.59957e+87
1.69683e+87
9.86442e+86
4.23129e+86
1.77486e+94
-5.53534e+92
-5.04943e+91
2.71492e+91
-3.48124e+89
-2.24449e+89
4.23164e+88
3.68805e+88
2.68963e+88
2.14582e+88
1.60128e+88
1.15456e+88
7.88294e+87
4.95578e+87
2.46459e+87
-1.63189e+95
4.9054e+94
-1.49656e+93
-1.76662e+92
8.01983e+91
7.16741e+89
4.35414e+89
1.16938e+90
1.10398e+90
9.73387e+89
8.22843e+89
6.59811e+89
4.89442e+89
3.50013e+89
2.58548e+89
-2.49569e+96
-1.5812e+95
4.66542e+94
-1.35941e+93
-2.02014e+92
8.92455e+91
9.16421e+90
6.44457e+90
6.19831e+90
5.13956e+90
3.60265e+90
2.40642e+90
1.6405e+90
1.11128e+90
6.65789e+89
1.35455e+97
-2.40113e+96
-1.31044e+95
4.53119e+94
-9.22622e+92
-1.60474e+92
1.23915e+92
3.52056e+91
2.33428e+91
1.78716e+91
1.28809e+91
8.62728e+90
5.18308e+90
2.78325e+90
1.55686e+90
5.52511e+97
1.12083e+97
-2.38411e+96
-1.5923e+95
4.34387e+94
3.47885e+93
-2.07296e+92
2.4353e+92
1.46143e+92
7.92682e+91
5.04984e+91
3.02963e+91
1.59719e+91
7.31816e+90
3.59369e+90
-1.90517e+99
6.10783e+97
1.00815e+97
-2.19043e+96
-1.05698e+95
3.3609e+94
-9.22981e+92
-3.49707e+91
1.15367e+92
6.05163e+91
4.62862e+91
3.51454e+91
2.42814e+91
1.44728e+91
8.58724e+90
6.15527e+97
1.14647e+97
-2.51846e+96
-1.48048e+95
3.9933e+94
-2.34187e+93
-6.32417e+92
-5.27799e+91
-1.42095e+91
1.62694e+91
2.59139e+91
2.90599e+91
2.5187e+91
1.91026e+91
1.37977e+91
1.45291e+97
-2.46336e+96
-2.63993e+95
1.01846e+94
-3.75029e+93
-1.92763e+93
-6.82948e+92
-2.43213e+92
-7.60563e+91
-1.41706e+91
9.45438e+90
2.53529e+91
2.57943e+91
2.24477e+91
1.75933e+91
-1.57396e+96
-2.48456e+95
-5.87538e+94
-1.72826e+94
-5.12649e+93
-1.55276e+93
-4.42593e+92
-8.76955e+91
1.93519e+91
4.43072e+91
4.91914e+91
5.99538e+91
4.00217e+91
2.66306e+91
1.70355e+91
-1.09224e+95
-1.43019e+94
1.80717e+93
2.16059e+93
1.42368e+93
8.86792e+92
5.48546e+92
3.40845e+92
2.14457e+92
1.52278e+92
1.35891e+92
1.61606e+92
1.3509e+91
2.29661e+90
6.93224e+89
1.3318e+94
3.69291e+93
1.45514e+93
7.13021e+92
3.80856e+92
2.15743e+92
1.29988e+92
8.37399e+91
6.43389e+91
1.24223e+92
3.66164e+91
-2.41731e+90
7.01368e+89
9.35041e+88
5.53462e+88
-5.49031e+91
1.10792e+90
-3.0005e+91
-3.29457e+91
-2.61532e+91
-1.97526e+91
-1.49621e+91
-1.18314e+91
-1.64114e+91
6.29134e+91
9.85335e+91
3.14344e+90
-3.43932e+90
-1.84278e+90
-8.87482e+89
-8.21842e+91
-3.1458e+91
-1.073e+91
-4.46453e+90
-1.79785e+90
-2.731e+89
-6.54566e+88
5.18728e+89
2.20566e+90
1.32829e+91
7.68673e+91
5.07955e+91
2.8986e+91
1.62793e+91
9.13552e+90
1.23418e+91
4.34721e+90
2.32993e+90
1.60656e+90
1.26066e+90
9.28274e+89
4.86796e+89
1.49112e+89
-1.69428e+89
-7.64411e+89
4.12095e+90
9.48761e+90
1.00831e+91
8.34243e+90
6.33811e+90
3.76275e+89
1.61779e+89
3.87209e+88
5.26358e+87
-8.54938e+87
-1.13176e+88
1.81399e+88
3.96067e+88
3.16973e+88
1.28787e+89
-1.7116e+89
-3.59278e+89
-3.43112e+89
-2.85403e+89
-2.41277e+89
-1.05026e+89
-3.62811e+88
-2.19841e+88
-1.71406e+88
-1.45884e+88
-1.15571e+88
-6.52481e+87
-1.90026e+87
2.43342e+87
2.03099e+88
5.7584e+88
4.96246e+88
3.32425e+88
2.37984e+88
1.84018e+88
-1.02842e+88
-4.72047e+87
-1.54453e+87
-3.45566e+86
1.06196e+86
1.94829e+86
-2.60229e+86
-7.06853e+86
-7.65563e+86
-2.90448e+86
7.24473e+87
1.00072e+88
8.81554e+87
7.13904e+87
5.6165e+87
2.77517e+87
1.11655e+87
4.34573e+86
2.06809e+86
1.0853e+86
4.69098e+85
1.0332e+84
-5.65294e+85
-1.89816e+86
-5.2867e+86
-9.10851e+86
-7.85824e+86
-5.74162e+86
-4.26171e+86
-3.24711e+86
-3.72069e+86
-1.38039e+86
-7.43636e+85
-5.08681e+85
-3.88652e+85
-2.74961e+85
-1.41175e+85
-3.87364e+84
-2.38629e+84
-3.19333e+85
-1.07363e+86
-1.28864e+86
-1.12057e+86
-9.01217e+85
-7.16057e+85
-7.50372e+84
-2.99218e+84
-1.17618e+83
5.02643e+83
5.6602e+83
7.94269e+82
-1.04966e+84
-1.7187e+84
-1.09133e+84
1.67142e+84
7.13555e+84
7.91013e+84
6.08666e+84
3.63131e+84
5.20322e+83
3.23116e+84
1.13594e+84
7.20854e+83
5.7299e+83
4.73694e+83
3.2458e+83
8.32381e+82
-2.60945e+83
-7.67204e+83
-1.25282e+84
-1.38261e+84
-1.16164e+84
-1.18865e+84
-1.71593e+84
-3.09693e+84
3.69356e+83
1.55356e+83
4.84528e+82
1.24102e+82
2.20673e+81
7.72555e+81
2.46242e+82
2.85094e+82
-1.15566e+82
-1.33137e+83
-3.23724e+83
-4.46466e+83
-6.49066e+83
-1.15848e+84
-2.30511e+84
-8.54767e+82
-3.31279e+82
-1.30249e+82
-6.4328e+81
-3.45094e+81
-1.12003e+81
1.97227e+81
8.80838e+81
2.43077e+82
3.66418e+82
8.20858e+81
-8.1694e+82
-2.75591e+83
-7.03143e+83
-1.59913e+84
9.87678e+81
3.68954e+81
1.9971e+81
1.37474e+81
1.03139e+81
6.83522e+80
3.88089e+80
1.25042e+81
7.0032e+81
1.51367e+82
1.61571e+81
-5.14099e+82
-1.74262e+83
-4.67457e+83
-1.09894e+84
2.01683e+80
8.08949e+79
2.27361e+78
-1.53948e+79
-1.63248e+79
9.42717e+77
1.05243e+80
1.16611e+81
6.44231e+81
1.18277e+82
2.07057e+81
-1.86975e+82
-6.76293e+82
-2.23715e+83
-6.05165e+83
-8.51901e+79
-3.14895e+79
-1.96085e+79
-1.52578e+79
-1.28165e+79
-6.11677e+78
8.47779e+79
1.29708e+81
7.44023e+81
1.28611e+82
-1.55957e+81
-2.25753e+82
-4.37342e+82
-6.89019e+82
-1.1079e+83
-7.77595e+78
-3.47947e+78
-1.16531e+78
-3.94484e+77
-4.78195e+77
2.49931e+78
9.38771e+79
1.48233e+81
8.66354e+81
1.4797e+82
-5.39979e+81
-3.18937e+82
-5.62801e+82
-7.39004e+82
-8.07936e+82
1.79188e+78
7.40513e+77
3.01481e+77
7.77922e+76
-3.49617e+77
2.66385e+78
1.00825e+80
1.67733e+81
9.87692e+81
1.72641e+82
-9.0151e+81
-4.12529e+82
-7.07597e+82
-9.20435e+82
-9.8525e+82
-1.88596e+77
-8.32294e+76
-6.70516e+76
-1.28862e+77
-5.05883e+77
2.54948e+78
1.07508e+80
1.89745e+81
1.11726e+82
2.06173e+82
-1.12328e+82
-5.01049e+82
-8.63041e+82
-1.12911e+83
-1.215e+83
-9.85299e+75
-1.39933e+76
-2.94901e+76
-1.08902e+77
-5.24996e+77
2.43334e+78
1.14714e+80
2.17726e+81
1.26457e+82
2.56061e+82
-7.63746e+81
-5.28255e+82
-9.84548e+82
-1.35458e+83
-1.53287e+83
-3.20364e+75
-1.30474e+76
-3.40352e+76
-1.20419e+77
-5.77044e+77
2.21336e+78
1.23002e+80
2.52359e+81
1.51359e+82
3.21036e+82
4.57265e+81
-4.00498e+82
-9.24612e+82
-1.4336e+83
-1.81948e+83
-5.66406e+75
-1.64578e+76
-4.16825e+76
-1.35348e+77
-6.2937e+77
1.63783e+78
1.27593e+80
2.94501e+81
1.5185e+82
3.90116e+82
2.26347e+82
-1.3504e+82
-6.17586e+82
-1.16685e+83
-1.72021e+83
-6.97915e+75
-1.98844e+76
-5.02493e+76
-1.52552e+77
-6.71015e+77
8.70491e+77
1.23658e+80
3.50753e+81
1.49658e+82
3.94482e+82
3.86689e+82
1.90613e+82
-1.34069e+82
-5.59294e+82
-1.07011e+83
-8.01381e+75
-2.32774e+76
-5.91399e+76
-1.70988e+77
-7.02482e+77
1.91631e+77
1.1045e+80
4.10923e+81
1.53725e+82
3.25504e+82
4.20471e+82
4.06348e+82
2.85838e+82
7.07813e+81
-2.39012e+82
-9.21966e+75
-2.70657e+76
-6.89463e+76
-1.91475e+77
-7.35577e+77
-2.61953e+77
9.63597e+79
4.86299e+81
1.37672e+82
2.38273e+82
3.364e+82
4.08684e+82
4.33906e+82
4.03132e+82
3.08465e+82
-1.08023e+76
-3.21762e+76
-8.24683e+76
-2.20258e+77
-7.8352e+77
-6.73524e+77
9.85457e+79
3.54709e+81
9.77582e+81
1.62241e+82
2.31464e+82
3.01948e+82
3.6739e+82
4.21204e+82
4.54626e+82
-1.28199e+76
-3.88597e+76
-1.00648e+77
-2.60284e+77
-8.42125e+77
-1.30416e+78
1.04199e+80
2.04415e+81
5.4004e+81
8.94871e+81
1.29338e+82
1.73013e+82
2.20898e+82
2.72789e+82
3.25882e+82
-1.49554e+76
-4.60745e+76
-1.20611e+77
-3.05702e+77
-8.97471e+77
-2.05394e+78
1.16955e+80
1.11216e+81
2.35288e+81
3.73418e+81
5.33905e+81
7.18794e+81
9.36294e+81
1.19221e+82
1.48415e+82
-1.71601e+76
-5.35874e+76
-1.41462e+77
-3.54124e+77
-9.6037e+77
-2.68827e+78
7.21326e+79
4.38285e+80
7.93937e+80
1.17806e+81
1.61842e+81
2.14775e+81
2.80148e+81
3.59917e+81
4.54803e+81
-1.96554e+76
-6.22125e+76
-1.65671e+77
-4.11316e+77
-1.0456e+78
-2.87736e+78
9.88478e+78
1.20449e+80
2.14906e+80
2.98323e+80
3.85682e+80
4.89331e+80
6.19387e+80
7.79907e+80
9.72856e+80
-2.24358e+76
-7.20817e+76
-1.94328e+77
-4.82223e+77
-1.17605e+78
-2.7167e+78
-2.30237e+78
1.63999e+79
3.93703e+79
5.68311e+79
7.19244e+79
8.82409e+79
1.06933e+80
1.28231e+80
1.525e+80
-2.53374e+76
-8.24457e+76
-2.25017e+77
-5.62237e+77
-1.38549e+78
-3.24308e+78
-5.99276e+78
-5.05978e+78
-8.67348e+77
3.10991e+78
6.52981e+78
9.62288e+78
1.25083e+79
1.5211e+79
1.77614e+79
-2.73881e+76
-9.16991e+76
-2.57371e+77
-6.45095e+77
-1.45083e+78
-2.74349e+78
-4.11774e+78
-4.66619e+78
-4.33077e+78
-3.67198e+78
-2.93712e+78
-2.2241e+78
-1.54592e+78
-9.03988e+77
-3.0242e+77
-2.06565e+76
-6.70902e+76
-1.76113e+77
-3.89551e+77
-7.40395e+77
-1.20257e+78
-1.62472e+78
-1.85361e+78
-1.91646e+78
-1.89619e+78
-1.82913e+78
-1.73758e+78
-1.62731e+78
-1.49953e+78
-1.35763e+78
-9.43446e+75
-2.84796e+76
-6.71521e+76
-1.29652e+77
-2.11468e+77
-3.01015e+77
-3.79607e+77
-4.3219e+77
-4.61622e+77
-4.79464e+77
-4.9036e+77
-4.94759e+77
-4.92561e+77
-4.83761e+77
-4.69043e+77
-2.0532e+75
-5.7289e+75
-1.21918e+76
-2.10522e+76
-3.09375e+76
-4.07949e+76
-4.95933e+76
-5.65269e+76
-6.16866e+76
-6.57717e+76
-6.92209e+76
-7.2044e+76
-7.41029e+76
-7.5317e+76
-7.56987e+76
-1.69138e+74
-4.25975e+74
-8.12406e+74
-1.28888e+75
-1.79086e+75
-2.28259e+75
-2.74014e+75
-3.14451e+75
-3.4964e+75
-3.81547e+75
-4.11475e+75
-4.39067e+75
-4.63328e+75
-4.83416e+75
-4.98971e+75
2.92331e+72
6.05092e+72
8.98812e+72
1.11397e+73
1.2234e+73
1.2424e+73
1.18572e+73
1.06976e+73
9.12701e+72
7.25504e+72
5.11646e+72
2.73257e+72
1.43037e+71
-2.59352e+72
-5.41263e+72
-1.61201e+71
4.01115e+70
2.99317e+71
5.47454e+71
7.66958e+71
9.53482e+71
1.10458e+72
1.22394e+72
1.32418e+72
1.41501e+72
1.49632e+72
1.5651e+72
1.61956e+72
1.65902e+72
1.68349e+72
-1.0862e+71
-1.18696e+71
-1.08505e+71
-9.50853e+70
-8.13282e+70
-6.8835e+70
-5.79414e+70
-4.8607e+70
-4.10643e+70
-3.52163e+70
-3.05016e+70
-2.65236e+70
-2.30972e+70
-2.01237e+70
-1.75684e+70
-1.49775e+70
-1.82036e+70
-1.76817e+70
-1.61641e+70
-1.42779e+70
-1.23983e+70
-1.06644e+70
-9.12859e+69
-7.86995e+69
-6.87465e+69
-6.03837e+69
-5.30311e+69
-4.64941e+69
-4.06817e+69
-3.5543e+69
-6.12236e+67
-6.91848e+68
-9.78819e+68
-1.06431e+69
-1.04043e+69
-9.64476e+68
-8.67826e+68
-7.73546e+68
-6.93769e+68
-6.25766e+68
-5.63294e+68
-5.0428e+68
-4.48797e+68
-3.97276e+68
-3.49743e+68
4.04284e+68
2.9725e+68
1.94161e+68
1.278e+68
8.46547e+67
5.63028e+67
3.73417e+67
2.45273e+67
1.58335e+67
9.86756e+66
5.70356e+66
2.76846e+66
7.17664e+65
-6.87423e+65
-1.54991e+66
9.68431e+67
7.83048e+67
5.63322e+67
4.11597e+67
3.0631e+67
2.32581e+67
1.79866e+67
1.42369e+67
1.15582e+67
9.54285e+66
7.93816e+66
6.61893e+66
5.51999e+66
4.60059e+66
3.84147e+66
1.43312e+67
1.16967e+67
8.37254e+66
6.06439e+66
4.4657e+66
3.3494e+66
2.56944e+66
2.03155e+66
1.64773e+66
1.35517e+66
1.12105e+66
9.2927e+65
7.70658e+65
6.39066e+65
5.3088e+65
1.46307e+66
1.21486e+66
8.75403e+65
6.34597e+65
4.65988e+65
3.48863e+65
2.67652e+65
2.11519e+65
1.71012e+65
1.39725e+65
1.14558e+65
9.39967e+64
7.71108e+64
6.32358e+64
5.19124e+64
8.90462e+64
7.85162e+64
5.75059e+64
4.19272e+64
3.08319e+64
2.31401e+64
1.78785e+64
1.42582e+64
1.15914e+64
9.49259e+63
7.78892e+63
6.39203e+63
5.24268e+63
4.29761e+63
3.52335e+63
-2.99432e+63
-2.83382e+62
5.48744e+62
6.94642e+62
6.30216e+62
5.30469e+62
4.44085e+62
3.73794e+62
3.12907e+62
2.59515e+62
2.13724e+62
1.752e+62
1.43153e+62
1.168e+62
9.495e+61
-2.08228e+63
-1.21794e+63
-6.5132e+62
-3.70808e+62
-2.23045e+62
-1.41388e+62
-9.45229e+61
-6.61882e+61
-4.78716e+61
-3.53333e+61
-2.6427e+61
-1.99577e+61
-1.51888e+61
-1.16318e+61
-9.01936e+60
-3.35004e+62
-2.1822e+62
-1.2626e+62
-7.72083e+61
-4.96144e+61
-3.35409e+61
-2.38293e+61
-1.75916e+61
-1.32674e+61
-1.01114e+61
-7.75248e+60
-5.96891e+60
-4.61106e+60
-3.57345e+60
-2.78396e+60
-2.61246e+61
-1.8647e+61
-1.13824e+61
-7.25817e+60
-4.83596e+60
-3.38154e+60
-2.47172e+60
-1.8615e+60
-1.42274e+60
-1.09439e+60
-8.44673e+59
-6.53425e+59
-5.06365e+59
-3.93193e+59
-3.06242e+59
-3.90255e+59
-4.62861e+59
-3.5217e+59
-2.55344e+59
-1.86007e+59
-1.39551e+59
-1.07532e+59
-8.38508e+58
-6.55927e+58
-5.12753e+58
-3.99966e+58
-3.11365e+58
-2.41996e+58
-1.87993e+58
-1.4599e+58
1.20706e+59
7.36198e+58
3.91416e+58
2.21787e+58
1.33259e+58
8.43491e+57
5.58466e+57
3.82962e+57
2.68366e+57
1.90243e+57
1.35809e+57
9.74624e+56
7.02584e+56
5.0898e+56
3.7334e+56
1.11754e+58
8.03029e+57
5.0174e+57
3.24159e+57
2.18929e+57
1.54423e+57
1.12893e+57
8.45646e+56
6.40705e+56
4.86874e+56
3.69823e+56
2.80437e+56
2.12264e+56
1.60556e+56
1.21888e+56
1.04955e+57
5.57411e+56
3.01904e+56
1.81297e+56
1.18546e+56
8.26784e+55
6.05649e+55
4.58912e+55
3.53569e+55
2.73692e+55
2.11657e+55
1.63184e+55
1.25419e+55
9.62255e+54
7.41608e+54
2.17087e+56
1.11725e+56
5.25524e+55
2.73621e+55
1.55468e+55
9.49205e+54
6.15182e+54
4.1736e+54
2.91564e+54
2.07138e+54
1.48659e+54
1.07477e+54
7.82132e+53
5.73043e+53
4.25624e+53
2.35518e+55
1.40561e+55
7.39492e+54
4.22305e+54
2.5939e+54
1.68913e+54
1.15001e+54
8.07046e+53
5.75218e+53
4.12499e+53
2.96467e+53
2.13411e+53
1.5403e+53
1.11745e+53
8.1976e+52
1.0026e+54
5.83933e+53
3.21951e+53
1.97494e+53
1.30953e+53
9.16184e+52
6.64138e+52
4.9131e+52
3.65934e+52
2.72262e+52
2.01828e+52
1.4917e+52
1.10191e+52
8.17281e+51
6.11913e+51
-1.34552e+51
-7.88402e+51
-9.28303e+51
-6.89361e+51
-4.82361e+51
-3.36977e+51
-2.38617e+51
-1.71544e+51
-1.24442e+51
-9.04908e+50
-6.57485e+50
-4.77305e+50
-3.46786e+50
-2.52591e+50
-1.86355e+50
-1.7103e+52
-7.65099e+51
-3.54135e+51
-1.85058e+51
-1.06877e+51
-6.71057e+50
-4.51393e+50
-3.19453e+50
-2.33134e+50
-1.72635e+50
-1.28558e+50
-9.59484e+49
-7.1758e+49
-5.3864e+49
-4.09518e+49
-4.19566e+51
-2.31373e+51
-1.10345e+51
-5.6916e+50
-3.16904e+50
-1.88968e+50
-1.19239e+50
-7.85133e+49
-5.31807e+49
-3.66711e+49
-2.55976e+49
-1.80424e+49
-1.28308e+49
-9.21025e+48
-6.7185e+48
-5.81852e+50
-3.10293e+50
-1.57504e+50
-8.52124e+49
-5.00443e+49
-3.14109e+49
-2.07236e+49
-1.41448e+49
-9.8423e+48
-6.91815e+48
-4.89327e+48
-3.47964e+48
-2.49012e+48
-1.79714e+48
-1.31334e+48
-1.25262e+50
-4.81245e+49
-1.88232e+49
-8.54895e+48
-4.47208e+48
-2.60606e+48
-1.64717e+48
-1.101e+48
-7.60852e+47
-5.35527e+47
-3.811e+47
-2.73425e+47
-1.97732e+47
-1.44301e+47
-1.06663e+47
-1.8733e+49
-8.20682e+48
-3.19033e+48
-1.45977e+48
-7.48275e+47
-4.16752e+47
-2.4736e+47
-1.53554e+47
-9.80965e+46
-6.38871e+46
-4.22517e+46
-2.83227e+46
-1.92196e+46
-1.32104e+46
-9.21757e+45
3.39235e+47
-9.77382e+46
-1.03309e+47
-8.11274e+46
-5.71449e+46
-3.92332e+46
-2.69299e+46
-1.85285e+46
-1.27443e+46
-8.77462e+45
-6.06776e+45
-4.22265e+45
-2.9611e+45
-2.09515e+45
-1.48834e+45
4.21933e+47
1.74003e+47
6.60266e+46
2.82746e+46
1.34943e+46
7.0459e+45
3.95516e+45
2.34461e+45
1.44355e+45
9.12378e+44
5.87634e+44
3.83667e+44
2.53246e+44
1.69003e+44
1.15306e+44
4.64329e+46
2.16773e+46
9.22654e+45
4.48477e+45
2.42903e+45
1.42805e+45
8.91416e+44
5.79058e+44
3.85589e+44
2.61246e+44
1.79281e+44
1.24187e+44
8.67782e+43
6.12188e+43
4.36122e+43
2.27678e+45
8.86747e+44
3.47738e+44
1.70377e+44
9.70434e+43
6.03763e+43
3.96702e+43
2.69008e+43
1.85684e+43
1.29815e+43
9.16948e+42
6.52688e+42
4.67796e+42
3.37647e+42
2.44532e+42
-4.65893e+43
-3.26941e+43
-1.99321e+43
-9.70737e+42
-4.98297e+42
-2.80924e+42
-1.72068e+42
-1.1199e+42
-7.57686e+41
-5.24894e+41
-3.68943e+41
-2.61476e+41
-1.86326e+41
-1.33299e+41
-9.66027e+40
-7.13725e+43
-2.49173e+43
-8.80043e+42
-3.48581e+42
-1.59196e+42
-8.23368e+41
-4.70326e+41