/*--------------------------------*- C++ -*----------------------------------*\
  =========                 |
  \\      /  F ield         | OpenFOAM: The Open Source CFD Toolbox
   \\    /   O peration     | Website:  https://openfoam.org
    \\  /    A nd           | Version:  8
     \\/     M anipulation  |
\*---------------------------------------------------------------------------*/
FoamFile
{
    version     2.0;
    format      ascii;
    class       volScalarField;
    location    "950";
    object      epsilon;
}
// * * * * * * * * * * * * * * * * * * * * * * * * * * * * * * * * * * * * * //

dimensions      [0 2 -3 0 0 0 0];

internalField   nonuniform List<scalar> 
7320
(
11607.3
10157.7
9314.43
8772.21
8390.2
8102.79
7875.93
7690.7
7535.77
7403.76
7289.61
7189.73
7101.46
7022.84
6952.31
6888.69
6831
6778.46
6730.43
6686.38
6645.85
6608.48
6573.93
6541.93
6512.24
6484.64
6458.97
6435.04
6412.73
6391.9
6372.45
6354.26
6337.25
6321.34
6306.45
6292.52
6279.48
6267.29
6255.88
6245.21
6235.24
6225.93
6217.24
6209.14
6201.6
6194.58
6188.07
6182.04
6176.46
6171.32
6166.58
6162.25
6158.28
6154.68
6151.42
6148.48
6145.87
6143.55
6141.53
6139.79
6138.31
6137.09
6136.13
6135.4
6134.9
6134.62
6134.56
6134.7
6135.05
6135.58
6136.3
6137.19
6138.26
6139.48
6140.86
6142.39
6144.07
6145.87
6147.81
6149.88
6152.07
6154.38
6156.81
6159.36
6162.04
6164.83
6167.74
6170.78
6173.95
6177.24
6180.67
6184.24
6187.94
6191.78
6195.76
6199.88
6204.13
6208.52
6213.04
6217.69
6222.45
6227.32
6232.29
6237.35
6242.48
6247.67
6252.91
6258.18
6263.46
6268.73
6273.98
6279.19
6284.34
6289.42
6294.39
6299.25
6303.98
6308.56
6312.98
6317.21
6321.12
6324.96
3749.32
3919.37
3598.69
3368.86
3210.19
3093.2
3002.11
2928.43
2867.18
2815.25
2770.5
2731.45
2697.02
2666.41
2638.99
2614.29
2591.92
2571.56
2552.97
2535.93
2520.26
2505.82
2492.48
2480.12
2468.66
2458.02
2448.11
2438.89
2430.29
2422.26
2414.76
2407.75
2401.19
2395.06
2389.33
2383.96
2378.93
2374.23
2369.83
2365.72
2361.88
2358.29
2354.93
2351.81
2348.9
2346.19
2343.68
2341.34
2339.19
2337.19
2335.36
2333.68
2332.14
2330.74
2329.47
2328.33
2327.31
2326.4
2325.61
2324.92
2324.34
2323.85
2323.46
2323.16
2322.95
2322.82
2322.78
2322.81
2322.93
2323.11
2323.37
2323.69
2324.08
2324.53
2325.04
2325.61
2326.24
2326.91
2327.64
2328.42
2329.25
2330.12
2331.04
2332.01
2333.01
2334.06
2335.16
2336.3
2337.49
2338.72
2339.99
2341.32
2342.69
2344.1
2345.57
2347.08
2348.64
2350.25
2351.9
2353.59
2355.33
2357.11
2358.92
2360.77
2362.65
2364.55
2366.47
2368.42
2370.37
2372.33
2374.29
2376.24
2378.18
2380.11
2382.01
2383.89
2385.73
2387.53
2389.28
2390.98
2392.58
2394.16
1528.99
1989.05
1884.98
1770.23
1685.89
1623.05
1574.14
1534.67
1501.95
1474.25
1450.43
1429.67
1411.39
1395.16
1380.63
1367.55
1355.71
1344.94
1335.11
1326.11
1317.83
1310.2
1303.16
1296.64
1290.59
1284.98
1279.75
1274.89
1270.35
1266.12
1262.16
1258.47
1255.01
1251.78
1248.75
1245.92
1243.27
1240.79
1238.48
1236.31
1234.28
1232.38
1230.62
1228.97
1227.43
1226
1224.67
1223.44
1222.3
1221.25
1220.28
1219.39
1218.57
1217.83
1217.16
1216.55
1216.01
1215.53
1215.1
1214.73
1214.42
1214.16
1213.95
1213.78
1213.67
1213.59
1213.56
1213.58
1213.63
1213.72
1213.85
1214.02
1214.22
1214.45
1214.71
1215.01
1215.33
1215.68
1216.06
1216.46
1216.88
1217.33
1217.8
1218.29
1218.79
1219.32
1219.87
1220.44
1221.03
1221.64
1222.28
1222.94
1223.62
1224.33
1225.06
1225.82
1226.61
1227.43
1228.27
1229.15
1230.05
1230.98
1231.93
1232.91
1233.92
1234.95
1236
1237.07
1238.15
1239.24
1240.35
1241.46
1242.57
1243.68
1244.79
1245.88
1246.97
1248.03
1249.08
1250.1
1251.07
1252.02
720.941
1168.15
1165.72
1105.65
1054.38
1014.75
983.61
958.429
937.557
919.91
904.751
891.558
879.953
869.656
860.45
852.168
844.676
837.868
831.656
825.967
820.741
815.927
811.482
807.369
803.556
800.014
796.721
793.654
790.795
788.127
785.635
783.307
781.129
779.093
777.187
775.403
773.734
772.172
770.71
769.343
768.065
766.87
765.755
764.715
763.745
762.843
762.004
761.226
760.505
759.839
759.226
758.662
758.145
757.674
757.247
756.861
756.514
756.206
755.935
755.698
755.496
755.326
755.187
755.079
755
754.95
754.927
754.93
754.958
755.011
755.088
755.187
755.308
755.45
755.611
755.791
755.988
756.201
756.429
756.67
756.925
757.193
757.472
757.762
758.064
758.377
758.701
759.037
759.385
759.747
760.123
760.513
760.921
761.345
761.789
762.251
762.735
763.24
763.767
764.317
764.889
765.485
766.103
766.743
767.404
768.085
768.784
769.5
770.231
770.974
771.727
772.487
773.252
774.018
774.782
775.541
776.292
777.031
777.754
778.459
779.132
779.778
358.82
725.629
779.829
754.392
722.982
696.536
675.147
657.664
643.11
630.786
620.195
610.98
602.879
595.694
589.274
583.502
578.284
573.544
569.221
565.264
561.63
558.284
555.195
552.337
549.689
547.229
544.943
542.813
540.829
538.977
537.247
535.631
534.12
532.707
531.384
530.146
528.987
527.903
526.888
525.939
525.051
524.221
523.446
522.722
522.048
521.42
520.836
520.294
519.792
519.328
518.899
518.505
518.144
517.815
517.515
517.244
517
516.783
516.59
516.423
516.278
516.156
516.056
515.977
515.918
515.879
515.858
515.856
515.871
515.904
515.953
516.017
516.096
516.189
516.296
516.414
516.544
516.684
516.834
516.993
517.159
517.334
517.515
517.704
517.9
518.103
518.313
518.532
518.759
518.996
519.244
519.503
519.775
520.061
520.362
520.679
521.012
521.364
521.735
522.124
522.532
522.96
523.406
523.871
524.354
524.853
525.367
525.895
526.435
526.985
527.543
528.106
528.671
529.237
529.8
530.358
530.907
531.445
531.968
532.473
532.954
533.406
180.95
454.606
539.365
539.228
522.289
504.944
489.985
477.422
466.83
457.801
450.016
443.23
437.258
431.96
427.226
422.969
419.121
415.626
412.44
409.523
406.846
404.381
402.106
400.001
398.051
396.241
394.557
392.99
391.529
390.166
388.893
387.704
386.592
385.551
384.578
383.666
382.813
382.014
381.267
380.567
379.913
379.301
378.729
378.196
377.698
377.235
376.803
376.403
376.031
375.687
375.37
375.078
374.81
374.564
374.341
374.139
373.956
373.793
373.649
373.522
373.412
373.319
373.242
373.18
373.133
373.101
373.082
373.077
373.084
373.104
373.136
373.179
373.232
373.296
373.369
373.451
373.54
373.637
373.74
373.849
373.964
374.084
374.209
374.339
374.474
374.614
374.76
374.912
375.072
375.239
375.415
375.6
375.797
376.005
376.225
376.46
376.708
376.972
377.251
377.546
377.857
378.184
378.526
378.883
379.255
379.639
380.035
380.442
380.857
381.279
381.706
382.136
382.566
382.994
383.418
383.835
384.242
384.638
385.019
385.383
385.725
386.039
91.0616
278.177
374.321
393.387
388.302
378.207
368.135
359.167
351.387
344.653
338.793
333.658
329.123
325.091
321.482
318.234
315.297
312.628
310.193
307.964
305.918
304.034
302.295
300.686
299.195
297.811
296.524
295.326
294.209
293.167
292.194
291.284
290.434
289.638
288.893
288.195
287.542
286.931
286.359
285.823
285.322
284.853
284.414
284.005
283.623
283.267
282.936
282.628
282.342
282.077
281.832
281.607
281.4
281.21
281.037
280.879
280.737
280.61
280.497
280.397
280.311
280.237
280.175
280.124
280.085
280.057
280.04
280.032
280.034
280.046
280.066
280.095
280.132
280.177
280.228
280.286
280.349
280.418
280.491
280.569
280.651
280.736
280.826
280.919
281.016
281.118
281.224
281.336
281.453
281.578
281.709
281.849
281.999
282.158
282.328
282.51
282.703
282.91
283.129
283.361
283.606
283.864
284.134
284.416
284.709
285.011
285.323
285.642
285.966
286.295
286.626
286.958
287.288
287.614
287.935
288.247
288.55
288.841
289.117
289.377
289.617
289.832
46.0967
162.189
254.261
286.985
292.083
288.344
282.427
276.399
270.841
265.871
261.463
257.553
254.072
250.96
248.165
245.642
243.355
241.274
239.374
237.632
236.033
234.559
233.198
231.938
230.77
229.686
228.677
227.738
226.862
226.045
225.281
224.568
223.9
223.275
222.69
222.142
221.629
221.149
220.699
220.278
219.883
219.514
219.169
218.846
218.545
218.264
218.003
217.759
217.533
217.324
217.13
216.951
216.786
216.635
216.497
216.372
216.258
216.156
216.065
215.984
215.914
215.853
215.802
215.76
215.726
215.702
215.685
215.676
215.675
215.681
215.694
215.713
215.739
215.77
215.806
215.848
215.893
215.943
215.996
216.053
216.113
216.176
216.242
216.311
216.384
216.46
216.54
216.625
216.715
216.811
216.913
217.022
217.14
217.265
217.4
217.545
217.699
217.864
218.039
218.225
218.421
218.628
218.844
219.069
219.302
219.543
219.79
220.041
220.297
220.554
220.812
221.069
221.323
221.572
221.815
222.049
222.274
222.487
222.686
222.87
223.038
223.182
24.139
88.6484
164.986
205.253
218.887
220.976
218.885
215.492
211.862
208.378
205.161
202.236
199.59
197.197
195.031
193.064
191.273
189.637
188.14
186.765
185.499
184.331
183.251
182.251
181.323
180.461
179.658
178.91
178.212
177.561
176.952
176.382
175.849
175.35
174.883
174.445
174.035
173.65
173.29
172.953
172.637
172.341
172.064
171.805
171.563
171.338
171.127
170.931
170.749
170.58
170.423
170.279
170.146
170.023
169.911
169.809
169.716
169.632
169.557
169.491
169.432
169.382
169.339
169.303
169.274
169.252
169.236
169.227
169.223
169.225
169.233
169.245
169.263
169.285
169.311
169.341
169.374
169.411
169.45
169.492
169.537
169.584
169.634
169.687
169.742
169.801
169.863
169.929
170
170.075
170.156
170.243
170.337
170.438
170.546
170.663
170.787
170.92
171.062
171.212
171.37
171.536
171.709
171.89
172.076
172.268
172.464
172.663
172.864
173.066
173.267
173.467
173.662
173.853
174.037
174.213
174.38
174.536
174.68
174.81
174.926
175.022
13.5084
45.5623
99.8141
140.768
160.687
168.047
169.612
168.74
166.918
164.789
162.633
160.564
158.629
156.839
155.192
153.678
152.288
151.01
149.834
148.749
147.746
146.819
145.959
145.161
144.42
143.729
143.086
142.486
141.925
141.401
140.911
140.452
140.022
139.62
139.243
138.889
138.557
138.246
137.955
137.681
137.425
137.185
136.961
136.75
136.554
136.37
136.199
136.039
135.891
135.753
135.625
135.506
135.397
135.296
135.204
135.12
135.043
134.974
134.912
134.856
134.807
134.764
134.728
134.697
134.671
134.652
134.637
134.627
134.622
134.622
134.626
134.634
134.645
134.661
134.679
134.701
134.726
134.753
134.782
134.814
134.848
134.884
134.923
134.963
135.007
135.052
135.101
135.154
135.21
135.27
135.335
135.405
135.481
135.562
135.65
135.744
135.845
135.953
136.067
136.188
136.315
136.449
136.588
136.733
136.882
137.035
137.191
137.348
137.507
137.666
137.823
137.978
138.129
138.275
138.416
138.549
138.674
138.789
138.893
138.986
139.066
139.13
8.23297
22.8776
55.2867
90.2281
113.178
124.85
129.856
131.463
131.425
130.618
129.473
128.204
126.919
125.67
124.481
123.362
122.317
121.343
120.436
119.594
118.81
118.08
117.401
116.769
116.178
115.627
115.113
114.631
114.181
113.759
113.364
112.994
112.647
112.321
112.015
111.729
111.459
111.207
110.97
110.747
110.538
110.343
110.159
109.988
109.827
109.677
109.536
109.405
109.283
109.17
109.065
108.967
108.877
108.794
108.717
108.647
108.584
108.526
108.474
108.427
108.386
108.349
108.318
108.291
108.269
108.252
108.238
108.229
108.223
108.221
108.223
108.227
108.235
108.246
108.259
108.275
108.293
108.314
108.336
108.36
108.387
108.415
108.444
108.476
108.51
108.547
108.586
108.627
108.672
108.721
108.773
108.83
108.891
108.957
109.028
109.104
109.185
109.272
109.364
109.462
109.565
109.672
109.784
109.899
110.018
110.14
110.264
110.389
110.514
110.639
110.763
110.884
111.001
111.114
111.222
111.323
111.417
111.503
111.58
111.647
111.704
111.747
5.47937
11.9932
28.2309
52.6649
74.495
88.7635
96.7042
100.69
102.44
102.969
102.841
102.365
101.714
100.983
100.226
99.4735
98.7429
98.0428
97.3776
96.7488
96.1563
95.5991
95.0758
94.5845
94.1235
93.6908
93.2848
92.9036
92.5457
92.2096
91.8938
91.5971
91.3182
91.0561
90.8097
90.5781
90.3603
90.1556
89.9633
89.7825
89.6128
89.4534
89.3039
89.1638
89.0324
88.9095
88.7945
88.6871
88.5869
88.4937
88.407
88.3265
88.2521
88.1834
88.1201
88.0621
88.0091
87.9609
87.9174
87.8783
87.8435
87.8128
87.7861
87.7633
87.7441
87.7286
87.7164
87.7076
87.7019
87.6991
87.6991
87.7017
87.7068
87.7143
87.724
87.7358
87.7495
87.765
87.7822
87.801
87.8214
87.8433
87.8669
87.8921
87.9192
87.9482
87.9794
88.013
88.0492
88.0883
88.1306
88.1762
88.2255
88.2787
88.3359
88.3973
88.463
88.5329
88.6071
88.6855
88.7678
88.8539
88.9433
89.0358
89.1308
89.2278
89.3263
89.4255
89.5247
89.6233
89.7205
89.8155
89.9074
89.9956
90.0791
90.1572
90.2292
90.2943
90.3518
90.4011
90.442
90.4722
3.95841
6.92866
14.0447
27.7128
44.4801
58.7408
68.535
74.555
78.0226
79.9011
80.8188
81.1603
81.1575
80.9504
80.6246
80.2329
79.8081
79.3708
78.9339
78.5054
78.0901
77.6909
77.3093
76.9458
76.6006
76.2734
75.9636
75.6707
75.3939
75.1325
74.8858
74.6529
74.4332
74.2259
74.0305
73.8462
73.6725
73.5089
73.3548
73.2097
73.0732
72.9448
72.8241
72.7108
72.6044
72.5047
72.4114
72.324
72.2425
72.1664
72.0956
72.0299
71.9689
71.9125
71.8606
71.8129
71.7692
71.7294
71.6934
71.6609
71.632
71.6064
71.584
71.5647
71.5485
71.5351
71.5245
71.5166
71.5113
71.5084
71.5077
71.5091
71.5125
71.5179
71.5252
71.5341
71.5446
71.5566
71.57
71.5848
71.601
71.6184
71.6372
71.6575
71.6792
71.7026
71.7277
71.7549
71.7841
71.8157
71.8498
71.8867
71.9264
71.9693
72.0154
72.0648
72.1175
72.1737
72.2332
72.296
72.3619
72.4308
72.5022
72.576
72.6518
72.7291
72.8074
72.8862
72.965
73.0431
73.12
73.195
73.2675
73.3368
73.4022
73.4632
73.5191
73.5694
73.6135
73.6508
73.6815
73.7037
3.07723
4.48267
7.4297
13.6627
23.6765
35.0257
44.8492
52.0825
56.9685
60.1185
62.0853
63.271
63.946
64.2875
64.4108
64.3915
64.2795
64.1082
63.8999
63.6698
63.4282
63.1824
62.937
62.6954
62.4598
62.2316
62.0117
61.8007
61.5987
61.4059
61.2221
61.0473
60.8811
60.7234
60.5738
60.4321
60.2979
60.1709
60.0509
59.9375
59.8305
59.7296
59.6345
59.5449
59.4607
59.3816
59.3074
59.2379
59.1728
59.112
59.0554
59.0026
58.9537
58.9084
58.8666
58.8281
58.7929
58.7608
58.7316
58.7054
58.6819
58.6611
58.6429
58.6271
58.6138
58.6029
58.5942
58.5876
58.5831
58.5806
58.5799
58.5809
58.5835
58.5877
58.5934
58.6005
58.6088
58.6185
58.6293
58.6412
58.6543
58.6685
58.6837
58.7002
58.7179
58.7369
58.7574
58.7795
58.8032
58.8288
58.8565
58.8863
58.9184
58.9529
58.99
59.0297
59.072
59.117
59.1647
59.2149
59.2676
59.3226
59.3796
59.4385
59.4989
59.5604
59.6228
59.6855
59.7482
59.8104
59.8715
59.931
59.9885
60.0434
60.0952
60.1435
60.1876
60.2271
60.2617
60.2908
60.3145
60.3318
2.55068
3.21778
4.43832
6.94254
11.6103
18.4647
26.1707
33.1843
38.7612
42.8701
45.7762
47.7853
49.1524
50.0674
50.6656
51.0415
51.2609
51.37
51.4011
51.3772
51.3148
51.2258
51.1186
50.9996
50.8734
50.7434
50.6119
50.4809
50.3516
50.225
50.1018
49.9824
49.8673
49.7566
49.6503
49.5486
49.4515
49.3588
49.2707
49.1868
49.1073
49.0319
48.9605
48.893
48.8293
48.7692
48.7127
48.6597
48.6099
48.5633
48.5197
48.4792
48.4415
48.4065
48.3743
48.3446
48.3173
48.2925
48.27
48.2497
48.2316
48.2156
48.2016
48.1895
48.1794
48.1711
48.1646
48.1598
48.1567
48.1551
48.155
48.1563
48.1588
48.1626
48.1675
48.1736
48.1807
48.1889
48.198
48.2081
48.219
48.2309
48.2436
48.2573
48.2721
48.2878
48.3048
48.3229
48.3424
48.3634
48.386
48.4102
48.4362
48.4642
48.4941
48.526
48.56
48.5961
48.6343
48.6745
48.7166
48.7605
48.806
48.8529
48.9011
48.9502
48.9999
49.0499
49.0999
49.1495
49.1982
49.2457
49.2916
49.3355
49.3768
49.4153
49.4506
49.4821
49.5097
49.533
49.552
49.5661
2.23299
2.5213
3.02004
3.97831
5.81132
8.95327
13.4245
18.6064
23.6547
28.0086
31.4918
34.1618
36.1611
37.6393
38.7238
39.5144
40.0865
40.4959
40.7841
40.9815
41.1107
41.1886
41.2279
41.238
41.2264
41.1984
41.1584
41.1096
41.0547
40.9954
40.9335
40.87
40.806
40.7421
40.6789
40.6168
40.5563
40.4974
40.4405
40.3856
40.3328
40.2823
40.234
40.1879
40.1442
40.1026
40.0633
40.0262
39.9913
39.9585
39.9278
39.8991
39.8724
39.8476
39.8247
39.8037
39.7844
39.7669
39.751
39.7369
39.7243
39.7132
39.7037
39.6957
39.6891
39.6839
39.68
39.6775
39.6762
39.6761
39.6772
39.6794
39.6826
39.6866
39.6916
39.6975
39.7041
39.7116
39.7198
39.7288
39.7385
39.7489
39.76
39.7719
39.7845
39.798
39.8123
39.8277
39.844
39.8615
39.8801
39.9001
39.9215
39.9443
39.9686
39.9945
40.0219
40.051
40.0817
40.1139
40.1476
40.1828
40.2191
40.2567
40.2951
40.3343
40.3741
40.414
40.454
40.4936
40.5326
40.5707
40.6075
40.6426
40.6759
40.7069
40.7353
40.7607
40.7831
40.8019
40.8174
40.8294
2.04415
2.12289
2.29752
2.64296
3.30166
4.4877
6.42603
9.18516
12.5445
16.0848
19.4152
22.3108
24.7067
26.6315
28.1526
29.344
30.2729
30.9955
31.5567
31.9918
32.3282
32.5874
32.7857
32.936
33.0484
33.1307
33.1891
33.2286
33.2529
33.2653
33.2683
33.2638
33.2534
33.2386
33.2203
33.1994
33.1767
33.1528
33.128
33.1028
33.0776
33.0525
33.0278
33.0037
32.9803
32.9576
32.9359
32.9151
32.8953
32.8766
32.8589
32.8424
32.827
32.8127
32.7995
32.7874
32.7764
32.7666
32.7578
32.7501
32.7435
32.7379
32.7333
32.7298
32.7272
32.7256
32.725
32.7252
32.7264
32.7285
32.7314
32.7351
32.7396
32.7447
32.7505
32.7568
32.7638
32.7713
32.7794
32.7881
32.7973
32.807
32.8172
32.8281
32.8395
32.8515
32.8641
32.8775
32.8916
32.9066
32.9225
32.9393
32.9572
32.9762
32.9963
33.0175
33.04
33.0637
33.0885
33.1146
33.1418
33.1701
33.1993
33.2295
33.2603
33.2917
33.3236
33.3556
33.3877
33.4195
33.4508
33.4814
33.5109
33.5393
33.5661
33.5911
33.6141
33.6348
33.653
33.6685
33.6813
33.6915
1.93662
1.89378
1.9091
1.99887
2.20581
2.60135
3.28857
4.38475
5.96585
7.99812
10.3235
12.7231
15.0051
17.0512
18.8156
20.3
21.5307
22.5425
23.3709
24.0479
24.6009
25.053
25.4228
25.7255
25.9736
26.1769
26.3435
26.4799
26.5915
26.6825
26.7565
26.8165
26.8647
26.9033
26.9338
26.9576
26.9758
26.9895
26.9994
27.0062
27.0105
27.0127
27.0133
27.0126
27.0108
27.0083
27.0053
27.0019
26.9983
26.9947
26.991
26.9875
26.9842
26.9812
26.9785
26.9761
26.9742
26.9727
26.9717
26.9712
26.9712
26.9717
26.9728
26.9744
26.9766
26.9793
26.9826
26.9865
26.9908
26.9958
27.0012
27.0072
27.0136
27.0205
27.0278
27.0355
27.0435
27.0519
27.0606
27.0697
27.0792
27.089
27.0991
27.1097
27.1206
27.1319
27.1437
27.156
27.1688
27.1822
27.1963
27.211
27.2265
27.2427
27.2598
27.2777
27.2965
27.3161
27.3367
27.3581
27.3804
27.4034
27.4272
27.4516
27.4766
27.502
27.5277
27.5535
27.5794
27.605
27.6303
27.6549
27.6788
27.7017
27.7234
27.7437
27.7624
27.7793
27.7941
27.8068
27.8174
27.8263
1.87971
1.76618
1.6969
1.6702
1.69599
1.79455
1.99808
2.35263
2.91532
3.74022
4.85282
6.22679
7.78258
9.41177
11.0108
12.5043
13.8504
15.0348
16.0607
16.9406
17.6911
18.3291
18.8711
19.3314
19.7227
20.0558
20.3398
20.5824
20.79
20.968
21.121
21.2527
21.3662
21.4643
21.5492
21.6228
21.6867
21.7424
21.7908
21.8332
21.8703
21.9028
21.9314
21.9567
21.9791
21.9989
22.0167
22.0326
22.047
22.0601
22.072
22.083
22.0932
22.1028
22.1119
22.1205
22.1288
22.1368
22.1446
22.1524
22.16
22.1677
22.1754
22.1831
22.1909
22.1989
22.207
22.2153
22.2237
22.2324
22.2412
22.2503
22.2595
22.269
22.2787
22.2885
22.2984
22.3084
22.3186
22.3289
22.3394
22.3501
22.3609
22.3719
22.3831
22.3946
22.4063
22.4184
22.4307
22.4434
22.4565
22.4701
22.4841
22.4987
22.5138
22.5294
22.5457
22.5626
22.5801
22.5982
22.6168
22.636
22.6558
22.6759
22.6965
22.7173
22.7383
22.7594
22.7805
22.8014
22.8219
22.842
22.8614
22.88
22.8977
22.9142
22.9294
22.9432
22.9554
22.9658
22.9745
22.9821
1.85262
1.70013
1.58443
1.50014
1.44691
1.42874
1.45383
1.53512
1.69135
1.94726
2.33147
2.87025
3.57781
4.44717
5.44734
6.52935
7.63811
8.72432
9.75159
10.698
11.554
12.3183
12.995
13.5909
14.114
14.5724
14.974
15.3259
15.6346
15.9057
16.1442
16.3544
16.5401
16.7043
16.85
16.9795
17.0948
17.1977
17.2898
17.3725
17.4467
17.5137
17.5742
17.6291
17.6789
17.7243
17.7657
17.8037
17.8386
17.8709
17.9007
17.9283
17.9541
17.9782
18.0008
18.0221
18.0423
18.0614
18.0796
18.097
18.1138
18.1299
18.1454
18.1605
18.1752
18.1896
18.2037
18.2175
18.2311
18.2445
18.2578
18.2709
18.284
18.2969
18.3098
18.3226
18.3354
18.348
18.3605
18.373
18.3854
18.3977
18.41
18.4224
18.4347
18.4471
18.4596
18.4722
18.4849
18.4978
18.5108
18.5241
18.5377
18.5515
18.5656
18.5801
18.5949
18.6101
18.6256
18.6415
18.6578
18.6744
18.6913
18.7085
18.7259
18.7434
18.7611
18.7787
18.7962
18.8135
18.8304
18.847
18.863
18.8783
18.8928
18.9064
18.9189
18.9302
18.9402
18.9487
18.956
18.9624
1.84139
1.6697
1.52946
1.4157
1.32537
1.25752
1.21298
1.19428
1.2059
1.25453
1.3495
1.50277
1.72823
2.03963
2.44734
2.95456
3.55469
4.23102
4.95936
5.71237
6.46405
7.19312
7.88439
8.52869
9.1217
9.66265
10.153
10.5957
10.9943
11.3526
11.6744
11.9636
12.2235
12.4574
12.668
12.858
13.0296
13.1848
13.3256
13.4534
13.5697
13.6757
13.7725
13.8612
13.9424
14.0171
14.0859
14.1494
14.2082
14.2626
14.3132
14.3604
14.4043
14.4455
14.4841
14.5203
14.5545
14.5867
14.6173
14.6463
14.6738
14.7001
14.7252
14.7493
14.7724
14.7947
14.8161
14.8368
14.8569
14.8764
14.8954
14.9138
14.9318
14.9494
14.9666
14.9835
15.0001
15.0163
15.0322
15.0478
15.063
15.0781
15.0928
15.1074
15.1218
15.136
15.1501
15.1641
15.1781
15.192
15.2059
15.2198
15.2337
15.2478
15.2619
15.2761
15.2905
15.305
15.3197
15.3345
15.3495
15.3646
15.3798
15.3951
15.4105
15.4258
15.4412
15.4564
15.4714
15.4862
15.5007
15.5147
15.5282
15.5411
15.5533
15.5646
15.5751
15.5845
15.5928
15.5999
15.606
15.6114
1.83747
1.65774
1.50597
1.37779
1.26982
1.17973
1.10613
1.0485
1.0071
0.982967
0.978021
0.995182
1.03851
1.11327
1.22579
1.383
1.59157
1.8566
2.1803
2.56083
2.992
3.4637
3.96324
4.47698
4.99199
5.49723
5.98422
6.44713
6.88244
7.28853
7.66513
8.01289
8.33305
8.6272
8.89711
9.14461
9.37153
9.57963
9.77057
9.94592
10.1071
10.2554
10.392
10.5181
10.6345
10.7422
10.842
10.9346
11.0206
11.1007
11.1754
11.2451
11.3103
11.3714
11.4288
11.4827
11.5335
11.5814
11.6266
11.6695
11.7101
11.7487
11.7854
11.8203
11.8537
11.8856
11.9162
11.9455
11.9737
12.0008
12.027
12.0522
12.0766
12.1002
12.1231
12.1453
12.1668
12.1878
12.2082
12.2281
12.2474
12.2662
12.2845
12.3023
12.3198
12.3368
12.3536
12.37
12.3861
12.402
12.4177
12.4332
12.4485
12.4637
12.4787
12.4937
12.5086
12.5235
12.5383
12.553
12.5677
12.5823
12.5969
12.6114
12.6258
12.6401
12.6541
12.668
12.6816
12.6948
12.7077
12.7201
12.732
12.7433
12.7539
12.7637
12.7728
12.7809
12.788
12.7941
12.7993
12.804
1.83635
1.65389
1.49762
1.36332
1.24761
1.14783
1.062
0.988661
0.926848
0.875995
0.835924
0.806832
0.789309
0.784375
0.793528
0.818789
0.862716
0.928351
1.01906
1.13827
1.28904
1.47355
1.69265
1.94546
2.22922
2.53944
2.87029
3.21516
3.56728
3.92031
4.26872
4.60806
4.93502
5.24734
5.54368
5.8234
6.08641
6.33298
6.56365
6.7791
6.98012
7.16758
7.34232
7.50523
7.65714
7.79886
7.93116
8.05475
8.17031
8.27846
8.37977
8.47476
8.56392
8.64771
8.72654
8.80079
8.87081
8.93693
8.99943
9.05859
9.11466
9.16786
9.21841
9.26649
9.31229
9.35597
9.39767
9.43754
9.4757
9.51227
9.54736
9.58107
9.61348
9.64469
9.67477
9.70379
9.73181
9.7589
9.78511
9.81049
9.83509
9.85894
9.88203
9.90439
9.92608
9.94714
9.96761
9.98753
10.0069
10.0259
10.0444
10.0625
10.0802
10.0976
10.1146
10.1313
10.1478
10.164
10.1799
10.1956
10.2111
10.2263
10.2412
10.2559
10.2703
10.2845
10.2983
10.3117
10.3248
10.3375
10.3496
10.3613
10.3724
10.3828
10.3926
10.4017
10.4099
10.4173
10.4237
10.4292
10.4339
10.4382
1.8361
1.6529
1.49526
1.35888
1.24033
1.13688
1.04634
0.966998
0.8975
0.836801
0.784121
0.738903
0.700795
0.66963
0.645428
0.628393
0.618928
0.617651
0.625408
0.643286
0.672608
0.714903
0.771843
0.845141
0.936407
1.04697
1.17771
1.32885
1.49987
1.68946
1.89555
2.11545
2.34602
2.58391
2.82576
3.06842
3.30912
3.54551
3.77573
3.99839
4.21254
4.41758
4.61322
4.79937
4.97613
5.1437
5.30236
5.45246
5.59436
5.72846
5.85518
5.97492
6.08809
6.19508
6.29628
6.39206
6.48275
6.56869
6.65018
6.7275
6.80094
6.87073
6.93711
7.0003
7.06051
7.11792
7.17271
7.22506
7.27511
7.32302
7.3689
7.4129
7.45511
7.49566
7.53463
7.57212
7.60822
7.643
7.67653
7.70888
7.74013
7.77032
7.7995
7.82774
7.85504
7.88141
7.9069
7.93159
7.9555
7.97869
8.00118
8.02304
8.04427
8.06493
8.08503
8.10461
8.12368
8.14227
8.1604
8.17807
8.19529
8.21207
8.22842
8.24432
8.25977
8.27475
8.28926
8.30327
8.31676
8.3297
8.34206
8.3538
8.36489
8.37528
8.38494
8.39383
8.4019
8.40911
8.41541
8.4208
8.4254
8.4296
1.83605
1.6527
1.49473
1.35782
1.23848
1.13393
1.04192
0.960651
0.888632
0.82467
0.767793
0.717216
0.672311
0.632587
0.597667
0.567277
0.541239
0.519467
0.501959
0.488804
0.480185
0.476377
0.477764
0.484832
0.498176
0.518492
0.546563
0.583231
0.629359
0.685782
0.753241
0.832318
0.923369
1.02647
1.14136
1.26745
1.40383
1.54927
1.70234
1.86143
2.02486
2.19096
2.35813
2.52491
2.69003
2.85242
3.01119
3.16569
3.31544
3.46009
3.59948
3.73349
3.86214
3.98546
4.10357
4.21659
4.32467
4.42799
4.52673
4.62106
4.71118
4.79729
4.87958
4.95823
5.03343
5.10536
5.17419
5.2401
5.30323
5.36374
5.42176
5.47743
5.53087
5.5822
5.63153
5.67897
5.7246
5.76852
5.81083
5.85159
5.89089
5.9288
5.96539
6.00072
6.03484
6.06784
6.09972
6.1305
6.16021
6.18891
6.21666
6.2435
6.26946
6.29458
6.31891
6.34246
6.36527
6.38737
6.40876
6.42948
6.44953
6.46892
6.48767
6.50577
6.52322
6.54002
6.55616
6.57164
6.58642
6.60051
6.61387
6.62649
6.63835
6.64941
6.65965
6.66904
6.67755
6.68517
6.69185
6.69759
6.70253
6.707
1.83603
1.65264
1.49462
1.3576
1.23811
1.13332
1.04098
0.959246
0.886595
0.821781
0.76377
0.711705
0.664871
0.622675
0.584622
0.550304
0.519386
0.491594
0.466712
0.444572
0.425055
0.408081
0.393614
0.381659
0.372259
0.365503
0.36152
0.360489
0.362632
0.368221
0.377575
0.391057
0.409065
0.432026
0.460379
0.49456
0.534977
0.581988
0.635877
0.696829
0.764907
0.840041
0.922014
1.01047
1.1049
1.2047
1.30914
1.41744
1.52877
1.64228
1.75714
1.87258
1.98787
2.10236
2.2155
2.32681
2.43591
2.54251
2.64638
2.74736
2.84536
2.94033
3.03224
3.12112
3.20699
3.28991
3.36993
3.44714
3.5216
3.59339
3.6626
3.72932
3.79363
3.85561
3.91537
3.97298
4.02853
4.0821
4.13378
4.18365
4.23179
4.27825
4.32313
4.36647
4.40835
4.44882
4.48794
4.52577
4.56234
4.59768
4.63179
4.66471
4.69648
4.72715
4.75676
4.78534
4.81293
4.83955
4.86522
4.88998
4.91383
4.93678
4.95886
4.98008
5.00042
5.01991
5.03853
5.05628
5.07317
5.08917
5.10428
5.1185
5.1318
5.14418
5.15562
5.16611
5.17562
5.18416
5.19171
5.19827
5.20397
5.2091
1.83602
1.65261
1.49457
1.35754
1.23801
1.13319
1.0408
0.958995
0.886239
0.821274
0.763051
0.710688
0.663449
0.620708
0.581938
0.54669
0.514581
0.485287
0.45853
0.434076
0.411723
0.391305
0.372681
0.355736
0.340378
0.326535
0.314157
0.30321
0.293681
0.285572
0.278905
0.273723
0.270083
0.268068
0.267776
0.26933
0.272873
0.278569
0.2866
0.297167
0.310483
0.326773
0.346263
0.369176
0.395724
0.426099
0.460463
0.49894
0.541608
0.58849
0.63955
0.694692
0.753756
0.816522
0.882715
0.952011
1.02404
1.09842
1.17473
1.25255
1.33145
1.41104
1.49092
1.57074
1.65017
1.72892
1.80674
1.88342
1.95879
2.0327
2.10505
2.17576
2.24477
2.31206
2.3776
2.4414
2.50345
2.56378
2.62241
2.67935
2.73465
2.78832
2.8404
2.89091
2.9399
2.9874
3.03343
3.07803
3.12124
3.16307
3.20359
3.24281
3.28073
3.31734
3.35266
3.38674
3.41959
3.45126
3.48175
3.51109
3.53931
3.5664
3.59239
3.61729
3.6411
3.66383
3.68549
3.70608
3.7256
3.74405
3.76143
3.77775
3.793
3.80718
3.8203
3.83235
3.84334
3.85326
3.86212
3.86994
3.87684
3.88306
1.83602
1.65258
1.49453
1.35749
1.23795
1.13313
1.04073
0.958918
0.886153
0.821175
0.76293
0.710534
0.663244
0.620428
0.581551
0.546153
0.513841
0.484276
0.457165
0.432255
0.409327
0.388188
0.368672
0.350636
0.333951
0.31851
0.304216
0.290989
0.278758
0.267465
0.25706
0.247503
0.238763
0.230816
0.223648
0.217252
0.211627
0.206783
0.202736
0.199511
0.19714
0.195665
0.195138
0.195619
0.197177
0.199891
0.203849
0.209148
0.215891
0.224188
0.234154
0.245906
0.259562
0.275238
0.293041
0.313075
0.335427
0.36017
0.38736
0.41703
0.449189
0.483822
0.520885
0.560311
0.602002
0.645839
0.691675
0.739348
0.788673
0.839456
0.89149
0.944564
0.998462
1.05297
1.10789
1.16302
1.21817
1.27316
1.32785
1.38207
1.43571
1.48865
1.5408
1.59207
1.6424
1.69172
1.74
1.78719
1.83328
1.87823
1.92204
1.9647
2.00619
2.04653
2.0857
2.12368
2.16043
2.19594
2.23022
2.26326
2.29508
2.32567
2.35503
2.38316
2.41008
2.43578
2.46026
2.48354
2.50562
2.52652
2.54623
2.56477
2.58216
2.5984
2.61352
2.62752
2.64042
2.65225
2.66301
2.67275
2.68156
2.68961
1.83601
1.65256
1.4945
1.35744
1.2379
1.13307
1.04068
0.958862
0.886097
0.821119
0.762874
0.710479
0.663188
0.620369
0.581486
0.546077
0.513746
0.484154
0.457003
0.432037
0.409031
0.387791
0.368143
0.349936
0.333036
0.317326
0.302702
0.28907
0.276348
0.264464
0.253353
0.242957
0.233225
0.224112
0.215578
0.207589
0.200113
0.193125
0.186603
0.180527
0.174883
0.169658
0.164845
0.160438
0.156435
0.152837
0.149649
0.146879
0.144537
0.142639
0.141203
0.140252
0.139811
0.139911
0.140587
0.141877
0.143823
0.146472
0.149873
0.154082
0.159152
0.165144
0.172116
0.180131
0.189247
0.199525
0.211021
0.223788
0.237875
0.253324
0.270169
0.288437
0.308142
0.329293
0.351881
0.375891
0.401292
0.428041
0.456085
0.485358
0.515782
0.547271
0.579727
0.613046
0.647119
0.681828
0.717054
0.752677
0.788574
0.824625
0.860713
0.896722
0.932544
0.968077
1.00322
1.0379
1.07204
1.10556
1.13838
1.17041
1.20162
1.23195
1.26136
1.28983
1.31734
1.34386
1.3694
1.39393
1.41747
1.44001
1.46156
1.48214
1.50174
1.52039
1.5381
1.55489
1.57077
1.58576
1.59988
1.61315
1.62563
1.63739
1.83601
1.65254
1.49448
1.35742
1.23787
1.13304
1.04064
0.958826
0.886061
0.821083
0.762838
0.710444
0.663153
0.620336
0.581454
0.546046
0.513716
0.484124
0.456972
0.432004
0.408994
0.387747
0.368088
0.349865
0.332945
0.317207
0.302545
0.288866
0.276084
0.264125
0.25292
0.24241
0.232539
0.223258
0.214524
0.206295
0.198537
0.191216
0.184303
0.177772
0.171597
0.165758
0.160235
0.155011
0.150069
0.145397
0.140981
0.136812
0.132879
0.129176
0.125696
0.122433
0.119385
0.116549
0.113924
0.11151
0.109309
0.107324
0.105559
0.104021
0.102717
0.101657
0.10085
0.100309
0.100049
0.100085
0.100436
0.10112
0.10216
0.103578
0.105401
0.107653
0.110364
0.113563
0.117281
0.121547
0.126396
0.131857
0.137963
0.144743
0.152228
0.160445
0.169418
0.17917
0.189719
0.201079
0.213261
0.226268
0.240101
0.254752
0.27021
0.286455
0.303464
0.321206
0.339646
0.358741
0.378448
0.398717
0.4195
0.440744
0.462386
0.484361
0.506602
0.529041
0.551613
0.574251
0.596893
0.619476
0.64194
0.664231
0.686294
0.708082
0.729546
0.750647
0.771345
0.791607
0.8114
0.830698
0.849477
0.867717
0.885405
0.902503
1.83601
1.65254