/*--------------------------------*- C++ -*----------------------------------*\
  =========                 |
  \\      /  F ield         | OpenFOAM: The Open Source CFD Toolbox
   \\    /   O peration     | Website:  https://openfoam.org
    \\  /    A nd           | Version:  8
     \\/     M anipulation  |
\*---------------------------------------------------------------------------*/
FoamFile
{
    version     2.0;
    format      ascii;
    class       volScalarField;
    location    "950";
    object      k;
}
// * * * * * * * * * * * * * * * * * * * * * * * * * * * * * * * * * * * * * //

dimensions      [0 2 -2 0 0 0 0];

internalField   nonuniform List<scalar> 
7320
(
6.07652
5.55942
5.24732
5.04165
4.8942
4.78178
4.69211
4.61825
4.55602
4.50265
4.45625
4.41545
4.37924
4.34686
4.31771
4.29132
4.26733
4.24542
4.22534
4.20689
4.18987
4.17415
4.15959
4.14608
4.13352
4.12184
4.11095
4.10079
4.09131
4.08244
4.07416
4.0664
4.05914
4.05234
4.04598
4.04002
4.03444
4.02921
4.02432
4.01974
4.01546
4.01146
4.00773
4.00425
4.00101
3.99799
3.99519
3.99259
3.99019
3.98797
3.98593
3.98406
3.98235
3.9808
3.97939
3.97813
3.977
3.976
3.97513
3.97438
3.97374
3.97321
3.9728
3.97248
3.97227
3.97215
3.97212
3.97218
3.97233
3.97256
3.97287
3.97326
3.97372
3.97425
3.97485
3.97551
3.97624
3.97702
3.97786
3.97875
3.97969
3.98069
3.98174
3.98283
3.98398
3.98518
3.98643
3.98773
3.98908
3.99049
3.99195
3.99347
3.99505
3.99669
3.99838
4.00014
4.00195
4.00383
4.00576
4.00774
4.00978
4.01186
4.014
4.01617
4.01837
4.02061
4.02287
4.02514
4.02743
4.02972
4.032
4.03427
4.03651
4.03873
4.04091
4.04304
4.04512
4.04714
4.0491
4.05097
4.05271
4.05442
4.84215
5.67924
5.54001
5.36046
5.21715
5.10399
5.01225
4.93597
4.87129
4.81558
4.76697
4.72412
4.68601
4.65186
4.62109
4.59321
4.56782
4.54462
4.52335
4.50378
4.48573
4.46904
4.45358
4.43924
4.4259
4.41348
4.40191
4.39112
4.38103
4.37161
4.3628
4.35455
4.34683
4.3396
4.33284
4.3265
4.32057
4.31501
4.30982
4.30495
4.30041
4.29616
4.2922
4.28851
4.28507
4.28187
4.2789
4.27615
4.27361
4.27127
4.26911
4.26714
4.26534
4.2637
4.26223
4.2609
4.25972
4.25868
4.25777
4.25699
4.25634
4.2558
4.25538
4.25507
4.25487
4.25477
4.25477
4.25487
4.25506
4.25534
4.25571
4.25616
4.25669
4.25729
4.25797
4.25871
4.25952
4.26038
4.26131
4.26228
4.26331
4.26438
4.2655
4.26666
4.26787
4.26912
4.27042
4.27177
4.27316
4.27461
4.27611
4.27767
4.27929
4.28097
4.28273
4.28456
4.28646
4.28844
4.2905
4.29264
4.29486
4.29715
4.29952
4.30196
4.30447
4.30704
4.30967
4.31234
4.31506
4.3178
4.32057
4.32335
4.32613
4.3289
4.33165
4.33436
4.33703
4.33964
4.34217
4.34463
4.34695
4.34916
3.59581
5.0514
5.15997
5.06781
4.96411
4.87324
4.79598
4.72999
4.67307
4.62344
4.57977
4.541
4.50635
4.47517
4.44698
4.42135
4.39797
4.37656
4.35689
4.33877
4.32204
4.30655
4.29219
4.27885
4.26644
4.25488
4.2441
4.23404
4.22464
4.21585
4.20763
4.19994
4.19274
4.186
4.17969
4.17378
4.16824
4.16307
4.15822
4.15369
4.14946
4.14551
4.14183
4.13839
4.1352
4.13223
4.12948
4.12694
4.12459
4.12243
4.12044
4.11863
4.11698
4.11549
4.11414
4.11294
4.11187
4.11094
4.11013
4.10945
4.10888
4.10843
4.10808
4.10784
4.1077
4.10767
4.10772
4.10787
4.10811
4.10844
4.10885
4.10933
4.1099
4.11053
4.11123
4.112
4.11281
4.11368
4.1146
4.11556
4.11655
4.11758
4.11864
4.11974
4.12086
4.12202
4.12321
4.12443
4.1257
4.12702
4.12838
4.12981
4.1313
4.13287
4.13452
4.13625
4.13808
4.14001
4.14204
4.14418
4.14643
4.14879
4.15126
4.15384
4.15652
4.1593
4.16216
4.16511
4.16813
4.17121
4.17434
4.1775
4.18067
4.18385
4.18701
4.19014
4.19322
4.19623
4.19916
4.20198
4.20465
4.20714
2.74725
4.48339
4.83294
4.83938
4.78111
4.71517
4.65355
4.59832
4.54927
4.50567
4.46677
4.43188
4.40045
4.372
4.34614
4.32254
4.30093
4.28108
4.2628
4.24593
4.23032
4.21585
4.20241
4.18991
4.17828
4.16743
4.15731
4.14786
4.13902
4.13076
4.12302
4.11579
4.10901
4.10267
4.09673
4.09117
4.08597
4.0811
4.07655
4.07229
4.06832
4.06461
4.06116
4.05794
4.05496
4.05219
4.04962
4.04725
4.04507
4.04306
4.04123
4.03956
4.03804
4.03667
4.03545
4.03436
4.0334
4.03257
4.03186
4.03127
4.03079
4.03041
4.03015
4.02998
4.02992
4.02995
4.03007
4.03028
4.03058
4.03097
4.03143
4.03197
4.03258
4.03327
4.03401
4.03481
4.03565
4.03654
4.03747
4.03843
4.03942
4.04044
4.04147
4.04253
4.0436
4.0447
4.04583
4.04699
4.04818
4.04942
4.05071
4.05207
4.0535
4.05502
4.05662
4.05834
4.06017
4.06211
4.06419
4.06641
4.06876
4.07125
4.07388
4.07665
4.07955
4.08258
4.08572
4.08897
4.09232
4.09574
4.09922
4.10275
4.1063
4.10986
4.11339
4.11689
4.12032
4.12366
4.1269
4.13
4.13293
4.13559
2.10346
3.90602
4.48941
4.61127
4.60898
4.57387
4.53133
4.489
4.44924
4.41265
4.37922
4.34873
4.32092
4.29549
4.27219
4.2508
4.23111
4.21295
4.19616
4.18061
4.16619
4.15279
4.14032
4.12871
4.11788
4.10777
4.09833
4.08951
4.08125
4.07353
4.0663
4.05953
4.05319
4.04725
4.0417
4.03649
4.03163
4.02708
4.02282
4.01885
4.01515
4.01169
4.00848
4.00549
4.00272
4.00015
3.99778
3.99559
3.99359
3.99175
3.99007
3.98855
3.98718
3.98595
3.98486
3.98389
3.98306
3.98234
3.98174
3.98125
3.98086
3.98059
3.98041
3.98033
3.98035
3.98047
3.98067
3.98096
3.98133
3.98179
3.98232
3.98293
3.9836
3.98434
3.98514
3.98598
3.98687
3.9878
3.98876
3.98974
3.99074
3.99176
3.99279
3.99384
3.9949
3.99597
3.99707
3.99819
3.99935
4.00056
4.00182
4.00316
4.00457
4.00608
4.0077
4.00944
4.01131
4.01333
4.01549
4.01781
4.02029
4.02294
4.02575
4.02873
4.03185
4.03513
4.03854
4.04207
4.04571
4.04944
4.05323
4.05708
4.06094
4.0648
4.06863
4.07241
4.0761
4.07968
4.08313
4.0864
4.08947
4.0922
1.61624
3.30894
4.10161
4.35522
4.42201
4.42574
4.40724
4.38106
4.35281
4.32483
4.29808
4.27292
4.24944
4.22762
4.20738
4.18859
4.17115
4.15496
4.13991
4.1259
4.11285
4.10069
4.08934
4.07874
4.06884
4.05958
4.05091
4.0428
4.03521
4.0281
4.02143
4.01519
4.00935
4.00388
3.99875
3.99396
3.98948
3.98528
3.98137
3.97772
3.97432
3.97115
3.96821
3.96548
3.96295
3.96062
3.95846
3.95649
3.95468
3.95304
3.95155
3.9502
3.94899
3.94792
3.94698
3.94616
3.94547
3.94488
3.94441
3.94404
3.94378
3.94362
3.94355
3.94358
3.9437
3.94391
3.94421
3.94459
3.94506
3.9456
3.94621
3.9469
3.94765
3.94846
3.94932
3.95023
3.95118
3.95216
3.95316
3.95418
3.95522
3.95626
3.95732
3.95837
3.95944
3.96052
3.96162
3.96275
3.96391
3.96512
3.96639
3.96774
3.96917
3.97071
3.97237
3.97417
3.97611
3.97821
3.98047
3.98292
3.98554
3.98834
3.99133
3.99449
3.99782
4.00132
4.00496
4.00873
4.01262
4.0166
4.02064
4.02473
4.02884
4.03293
4.03698
4.04095
4.04482
4.04854
4.0521
4.05546
4.05858
4.06131
1.26812
2.7064
3.65726
4.05358
4.20386
4.25636
4.26838
4.26267
4.24897
4.23181
4.21339
4.19484
4.17674
4.15936
4.14285
4.12725
4.11255
4.09875
4.0858
4.07365
4.06226
4.05158
4.04157
4.03219
4.02339
4.01514
4.0074
4.00014
3.99333
3.98695
3.98096
3.97535
3.97009
3.96517
3.96056
3.95624
3.95221
3.94845
3.94493
3.94166
3.93862
3.93579
3.93317
3.93074
3.92851
3.92645
3.92456
3.92284
3.92127
3.91985
3.91858
3.91744
3.91643
3.91555
3.9148
3.91415
3.91362
3.9132
3.91288
3.91267
3.91255
3.91252
3.91259
3.91275
3.91299
3.91332
3.91374
3.91423
3.9148
3.91545
3.91616
3.91695
3.91779
3.91869
3.91963
3.92062
3.92165
3.92269
3.92376
3.92484
3.92593
3.92703
3.92812
3.92922
3.93033
3.93144
3.93257
3.93373
3.93492
3.93617
3.93747
3.93886
3.94034
3.94194
3.94366
3.94552
3.94755
3.94974
3.95211
3.95467
3.95742
3.96036
3.9635
3.96683
3.97033
3.97401
3.97784
3.9818
3.98588
3.99005
3.99429
3.99856
4.00284
4.00709
4.01129
4.01539
4.01936
4.02318
4.02679
4.03017
4.03329
4.03596
1.04443
2.13048
3.15609
3.69382
3.94125
4.05401
4.10457
4.12487
4.12967
4.12622
4.11833
4.10811
4.09673
4.0849
4.07304
4.06139
4.0501
4.03924
4.02888
4.01901
4.00966
4.0008
3.99243
3.98452
3.97707
3.97005
3.96343
3.95721
3.95135
3.94585
3.94068
3.93583
3.93129
3.92702
3.92303
3.9193
3.91582
3.91257
3.90954
3.90672
3.90411
3.9017
3.89946
3.89741
3.89552
3.8938
3.89223
3.8908
3.88952
3.88838
3.88737
3.88649
3.88572
3.88507
3.88454
3.88411
3.88378
3.88356
3.88343
3.88339
3.88345
3.88359
3.88382
3.88413
3.88453
3.88501
3.88556
3.88619
3.88689
3.88767
3.8885
3.8894
3.89036
3.89137
3.89242
3.89351
3.89462
3.89576
3.89692
3.89808
3.89925
3.90042
3.90159
3.90276
3.90393
3.9051
3.90629
3.90751
3.90876
3.91006
3.91143
3.91288
3.91442
3.91609
3.91788
3.91983
3.92193
3.92422
3.92669
3.92935
3.93221
3.93528
3.93854
3.942
3.94564
3.94945
3.95342
3.95753
3.96175
3.96606
3.97043
3.97483
3.97923
3.98359
3.98788
3.99207
3.9961
3.99996
4.00359
4.00697
4.01007
4.01268
0.919762
1.62589
2.61278
3.26902
3.62244
3.80741
3.90596
3.95917
3.98747
4.00145
4.00694
4.00725
4.00438
3.99954
3.99352
3.98681
3.97977
3.97259
3.96544
3.95842
3.95158
3.94497
3.93862
3.93255
3.92675
3.92124
3.91601
3.91105
3.90637
3.90195
3.89779
3.89387
3.89019
3.88673
3.8835
3.88048
3.87766
3.87504
3.8726
3.87035
3.86826
3.86634
3.86459
3.86298
3.86152
3.8602
3.85902
3.85796
3.85704
3.85623
3.85554
3.85496
3.85449
3.85412
3.85386
3.85369
3.85361
3.85362
3.85373
3.85391
3.85418
3.85453
3.85496
3.85546
3.85604
3.8567
3.85742
3.85822
3.85908
3.86001
3.86099
3.86204
3.86313
3.86427
3.86545
3.86667
3.86791
3.86916
3.87043
3.87171
3.87298
3.87425
3.87552
3.87678
3.87804
3.87931
3.88059
3.88189
3.88323
3.88461
3.88606
3.88759
3.88922
3.89096
3.89284
3.89487
3.89706
3.89943
3.90198
3.90474
3.90769
3.91085
3.91421
3.91776
3.92151
3.92542
3.92949
3.9337
3.93801
3.94242
3.94688
3.95137
3.95585
3.96028
3.96463
3.96886
3.97294
3.97682
3.98046
3.98383
3.9869
3.98945
0.860369
1.23773
2.06198
2.78202
3.23846
3.50547
3.66218
3.75644
3.81442
3.85055
3.87304
3.88674
3.89464
3.89864
3.89999
3.89953
3.89781
3.89526
3.89213
3.88865
3.88496
3.88115
3.87732
3.87351
3.86978
3.86614
3.86262
3.85924
3.856
3.85292
3.84999
3.84722
3.8446
3.84215
3.83985
3.8377
3.8357
3.83385
3.83214
3.83057
3.82913
3.82782
3.82664
3.82559
3.82465
3.82383
3.82312
3.82251
3.82202
3.82162
3.82132
3.82112
3.82101
3.82099
3.82105
3.8212
3.82143
3.82173
3.82212
3.82257
3.8231
3.8237
3.82437
3.82511
3.82592
3.82679
3.82773
3.82873
3.82978
3.8309
3.83207
3.83328
3.83455
3.83586
3.8372
3.83857
3.83996
3.84136
3.84277
3.84419
3.8456
3.847
3.8484
3.84979
3.85117
3.85256
3.85396
3.85537
3.85682
3.85831
3.85986
3.86149
3.86321
3.86505
3.86701
3.86913
3.8714
3.87385
3.87649
3.87932
3.88235
3.88558
3.88901
3.89263
3.89644
3.90042
3.90456
3.90883
3.91321
3.91768
3.92219
3.92673
3.93126
3.93574
3.94013
3.9444
3.9485
3.95239
3.95605
3.95941
3.96248
3.96501
0.836787
0.98815
1.55966
2.25312
2.7872
3.13869
3.36248
3.50657
3.60152
3.66555
3.70958
3.74028
3.76187
3.77709
3.78779
3.79521
3.80023
3.80349
3.80544
3.80641
3.80665
3.80636
3.80567
3.8047
3.80353
3.80223
3.80084
3.79941
3.79796
3.79654
3.79514
3.79379
3.7925
3.79127
3.79012
3.78905
3.78807
3.78716
3.78635
3.78562
3.78498
3.78443
3.78396
3.78358
3.78328
3.78307
3.78294
3.7829
3.78293
3.78303
3.78322
3.78348
3.78381
3.78421
3.78468
3.78521
3.78582
3.78648
3.78721
3.788
3.78885
3.78976
3.79072
3.79175
3.79283
3.79396
3.79516
3.79641
3.7977
3.79905
3.80044
3.80188
3.80335
3.80486
3.8064
3.80796
3.80954
3.81112
3.81271
3.8143
3.81589
3.81746
3.81902
3.82057
3.82211
3.82365
3.82519
3.82675
3.82834
3.82996
3.83164
3.83339
3.83522
3.83717
3.83924
3.84144
3.8438
3.84633
3.84904
3.85194
3.85503
3.85832
3.8618
3.86547
3.86933
3.87335
3.87752
3.88183
3.88624
3.89074
3.89529
3.89986
3.90442
3.90893
3.91334
3.91764
3.92176
3.92568
3.92935
3.93274
3.93582
3.93837
0.830413
0.857509
1.16926
1.7285
2.28148
2.70333
2.99742
3.19899
3.33861
3.4372
3.50825
3.56042
3.59936
3.62883
3.65138
3.6688
3.68236
3.69298
3.70133
3.70792
3.71312
3.71725
3.72051
3.72309
3.72514
3.72675
3.72802
3.72903
3.72983
3.73046
3.73097
3.73139
3.73174
3.73204
3.73232
3.73259
3.73285
3.73313
3.73342
3.73373
3.73407
3.73445
3.73487
3.73532
3.73582
3.73636
3.73695
3.73758
3.73826
3.73899
3.73977
3.74059
3.74147
3.74239
3.74336
3.74437
3.74543
3.74654
3.74769
3.74889
3.75013
3.75141
3.75274
3.75412
3.75554
3.757
3.75851
3.76006
3.76165
3.76328
3.76495
3.76665
3.76838
3.77014
3.77192
3.77372
3.77553
3.77734
3.77915
3.78096
3.78275
3.78453
3.7863
3.78805
3.78978
3.79151
3.79324
3.79498
3.79673
3.79852
3.80035
3.80225
3.80422
3.80629
3.80848
3.81079
3.81325
3.81586
3.81865
3.82161
3.82476
3.8281
3.83162
3.83532
3.83921
3.84325
3.84744
3.85177
3.8562
3.86071
3.86527
3.86986
3.87443
3.87895
3.88339
3.88771
3.89186
3.89581
3.89952
3.90294
3.90607
3.90866
0.831632
0.801461
0.924682
1.27902
1.76057
2.20994
2.5635
2.82478
3.0153
3.15518
3.2594
3.33832
3.39906
3.44651
3.48408
3.51418
3.53856
3.5585
3.57496
3.58866
3.60014
3.60984
3.61808
3.62514
3.63123
3.63651
3.64112
3.64518
3.64878
3.652
3.65489
3.65751
3.65991
3.66213
3.66418
3.66611
3.66793
3.66967
3.67133
3.67294
3.67451
3.67604
3.67754
3.67903
3.68051
3.68199
3.68346
3.68494
3.68642
3.68792
3.68943
3.69095
3.69249
3.69405
3.69564
3.69724
3.69887
3.70052
3.70219
3.70389
3.70561
3.70736
3.70914
3.71095
3.71278
3.71465
3.71654
3.71847
3.72042
3.7224
3.72441
3.72643
3.72848
3.73055
3.73263
3.73471
3.73681
3.7389
3.74098
3.74305
3.74511
3.74714
3.74916
3.75115
3.75313
3.75509
3.75705
3.759
3.76097
3.76296
3.76498
3.76705
3.7692
3.77142
3.77375
3.77619
3.77876
3.78147
3.78435
3.78738
3.79059
3.79398
3.79754
3.80128
3.80518
3.80924
3.81344
3.81777
3.8222
3.82671
3.83128
3.83586
3.84044
3.84498
3.84943
3.85377
3.85795
3.86194
3.86569
3.86917
3.87236
3.87504
0.835915
0.782667
0.803403
0.968303
1.29566
1.69673
2.07275
2.38225
2.62383
2.80953
2.95259
3.06386
3.15146
3.22133
3.27774
3.32383
3.3619
3.39365
3.42038
3.44308
3.46251
3.47926
3.4938
3.50652
3.51771
3.52762
3.53644
3.54435
3.55147
3.55793
3.56381
3.5692
3.57417
3.57877
3.58305
3.58706
3.59082
3.59438
3.59776
3.60098
3.60407
3.60704
3.6099
3.61267
3.61537
3.618
3.62057
3.6231
3.62558
3.62802
3.63044
3.63283
3.6352
3.63756
3.6399
3.64223
3.64455
3.64687
3.64919
3.65151
3.65383
3.65616
3.65849
3.66082
3.66317
3.66553
3.6679
3.67029
3.67269
3.6751
3.67752
3.67995
3.68239
3.68483
3.68728
3.68972
3.69216
3.69459
3.69701
3.69941
3.70178
3.70413
3.70646
3.70875
3.71102
3.71327
3.71551
3.71773
3.71995
3.72219
3.72445
3.72674
3.72909
3.73151
3.73401
3.73661
3.73932
3.74216
3.74514
3.74827
3.75156
3.75501
3.75862
3.76239
3.76631
3.77039
3.7746
3.77893
3.78336
3.78787
3.79243
3.79701
3.80159
3.80614
3.8106
3.81496
3.81918
3.8232
3.82701
3.83055
3.83383
3.8366
0.841165
0.780282
0.755
0.801817
0.962762
1.23783
1.56799
1.88853
2.16639
2.39488
2.57903
2.72692
2.8462
2.94319
3.02278
3.08874
3.14394
3.19054
3.23023
3.26431
3.29379
3.31947
3.34199
3.36187
3.37951
3.39527
3.40941
3.42217
3.43374
3.44429
3.45394
3.46281
3.47101
3.47861
3.48568
3.4923
3.49851
3.50435
3.50988
3.51512
3.5201
3.52486
3.52942
3.5338
3.53802
3.54209
3.54603
3.54986
3.55358
3.55721
3.56075
3.56422
3.56762
3.57096
3.57424
3.57748
3.58067
3.58382
3.58694
3.59002
3.59308
3.59612
3.59913
3.60213
3.60511
3.60808
3.61104
3.614
3.61694
3.61989
3.62283
3.62575
3.62867
3.63158
3.63448
3.63737
3.64024
3.64309
3.64591
3.64871
3.65148
3.65421
3.65691
3.65957
3.6622
3.6648
3.66738
3.66993
3.67247
3.67501
3.67756
3.68013
3.68274
3.6854
3.68812
3.69092
3.69382
3.69683
3.69995
3.7032
3.70659
3.71013
3.71381
3.71763
3.7216
3.7257
3.72993
3.73426
3.73869
3.7432
3.74776
3.75234
3.75692
3.76147
3.76595
3.77033
3.77457
3.77865
3.78251
3.78613
3.78949
3.79238
0.846372
0.784571
0.740866
0.731421
0.780818
0.913761
1.13036
1.39676
1.66969
1.92048
2.13792
2.32135
2.47447
2.60211
2.70889
2.79873
2.87484
2.93979
2.99561
3.04393
3.08604
3.12297
3.15556
3.18449
3.2103
3.23346
3.25433
3.27323
3.29043
3.30614
3.32056
3.33383
3.3461
3.35748
3.36808
3.37798
3.38726
3.39598
3.40421
3.41198
3.41936
3.42637
3.43305
3.43944
3.44556
3.45144
3.4571
3.46255
3.46782
3.47293
3.47788
3.48269
3.48737
3.49194
3.4964
3.50076
3.50503
3.50921
3.51332
3.51736
3.52134
3.52526
3.52912
3.53293
3.5367
3.54043
3.54413
3.54779
3.55142
3.55502
3.5586
3.56214
3.56566
3.56915
3.57261
3.57604
3.57944
3.58281
3.58614
3.58943
3.59267
3.59588
3.59904
3.60215
3.60522
3.60825
3.61124
3.61419
3.61713
3.62004
3.62295
3.62587
3.6288
3.63176
3.63477
3.63783
3.64097
3.64419
3.64751
3.65093
3.65447
3.65813
3.66192
3.66583
3.66986
3.67402
3.67828
3.68264
3.68709
3.69161
3.69617
3.70076
3.70535
3.7099
3.7144
3.7188
3.72307
3.72719
3.73111
3.7348
3.73825
3.74127
0.851011
0.791143
0.741126
0.708367
0.70346
0.741579
0.838108
0.996907
1.20263
1.4285
1.65059
1.85477
2.03555
2.19259
2.3279
2.44426
2.54449
2.63115
2.70642
2.77214
2.82983
2.88074
2.9259
2.96617
3.00225
3.03473
3.0641
3.09076
3.11507
3.13731
3.15775
3.17659
3.19401
3.21018
3.22523
3.23928
3.25243
3.26479
3.27641
3.28739
3.29777
3.30762
3.31698
3.3259
3.33442
3.34256
3.35037
3.35787
3.36509
3.37204
3.37876
3.38525
3.39155
3.39765
3.40358
3.40934
3.41496
3.42044
3.42579
3.43102
3.43614
3.44116
3.44609
3.45092
3.45567
3.46035
3.46495
3.46949
3.47397
3.47839
3.48276
3.48708
3.49134
3.49555
3.49971
3.50382
3.50788
3.51188
3.51583
3.51973
3.52357
3.52735
3.53108
3.53474
3.53835
3.5419
3.54541
3.54886
3.55227
3.55566
3.55901
3.56235
3.56569
3.56904
3.57241
3.57581
3.57926
3.58277
3.58635
3.59001
3.59376
3.5976
3.60155
3.60559
3.60974
3.61399
3.61833
3.62275
3.62724
3.63179
3.63638
3.64099
3.6456
3.65017
3.65468
3.65911
3.66342
3.66758
3.67156
3.67533
3.67887
3.68201
0.854799
0.797919
0.746862
0.705362
0.677885
0.670753
0.692779
0.753704
0.859331
1.00619
1.18133
1.368
1.55204
1.72458
1.88152
2.02185
2.14624
2.2561
2.35311
2.43889
2.51496
2.58264
2.64307
2.69726
2.74602
2.79009
2.83005
2.86643
2.89966
2.93013
2.95815
2.98401
3.00794
3.03015
3.05083
3.07013
3.08819
3.10513
3.12106
3.13608
3.15027
3.1637
3.17644
3.18855
3.20009
3.2111
3.22162
3.2317
3.24137
3.25066
3.25959
3.26821
3.27652
3.28456
3.29233
3.29987
3.30718
3.31428
3.32119
3.32791
3.33447
3.34087
3.34712
3.35323
3.35921
3.36507
3.37081
3.37645
3.382
3.38744
3.3928
3.39808
3.40327
3.40838
3.41341
3.41837
3.42324
3.42804
3.43277
3.43742
3.44199
3.44649
3.45091
3.45526
3.45953
3.46373
3.46786
3.47193
3.47594
3.4799
3.48381
3.48769
3.49154
3.49537
3.4992
3.50304
3.5069
3.51079
3.51471
3.51869
3.52273
3.52684
3.53101
3.53526
3.53959
3.54399
3.54846
3.55299
3.55757
3.5622
3.56685
3.57151
3.57616
3.58077
3.58533
3.5898
3.59415
3.59836
3.60241
3.60624
3.60987
3.61314
0.857613
0.803838
0.754023
0.710069
0.674015
0.648368
0.636594
0.64348
0.674826
0.73588
0.828724
0.950234
1.09243
1.24518
1.3992
1.54782
1.68713
1.81538
1.93217
2.03791
2.13338
2.21952
2.29731
2.36767
2.43146
2.48942
2.54224
2.59051
2.63474
2.67539
2.71285
2.74747
2.77954
2.80934
2.83709
2.863
2.88724
2.90997
2.93134
2.95146
2.97045
2.98841
3.00543
3.02158
3.03694
3.05157
3.06553
3.07886
3.09163
3.10386
3.1156
3.12689
3.13776
3.14823
3.15834
3.1681
3.17755
3.18669
3.19556
3.20417
3.21253
3.22067
3.22858
3.2363
3.24383
3.25118
3.25836
3.26538
3.27226
3.27899
3.28559
3.29207
3.29842
3.30466
3.31079
3.3168
3.32271
3.3285
3.33419
3.33978
3.34527
3.35066
3.35595
3.36114
3.36623
3.37124
3.37615
3.38098
3.38573
3.3904
3.395
3.39955
3.40404
3.40849
3.41291
3.4173
3.42169
3.42607
3.43046
3.43487
3.4393
3.44377
3.44828
3.45282
3.45742
3.46205
3.46673
3.47144
3.47619
3.48095
3.48572
3.49048
3.49522
3.49991
3.50453
3.50907
3.51349
3.51777
3.52189
3.5258
3.52953
3.53293
0.859482
0.808378
0.760626
0.716973
0.678334
0.645749
0.620512
0.604371
0.599722
0.609658
0.637654
0.686738
0.758296
0.851094
0.961178
1.08279
1.20982
1.33698
1.46042
1.57773
1.68765
1.78972
1.88396
1.9707
2.05043
2.12369
2.19105
2.25304
2.31019
2.36296
2.41178
2.45704
2.49907
2.5382
2.57469
2.6088
2.64074
2.6707
2.69887
2.7254
2.75044
2.77409
2.7965
2.81774
2.83792
2.85712
2.87541
2.89286
2.90954
2.9255
2.94079
2.95546
2.96956
2.98311
2.99616
3.00874
3.02089
3.03262
3.04397
3.05495
3.0656
3.07592
3.08595
3.0957
3.10517
3.1144
3.12339
3.13216
3.14072
3.14907
3.15724
3.16523
3.17305
3.18071
3.18821
3.19556
3.20275
3.2098
3.21671
3.22347
3.23011
3.23661
3.24298
3.24923
3.25535
3.26135
3.26724
3.27301
3.27868
3.28424
3.28971
3.29509
3.30039
3.30562
3.31078
3.31589
3.32095
3.32597
3.33097
3.33595
3.34091
3.34588
3.35084
3.35581
3.36078
3.36577
3.37076
3.37576
3.38075
3.38574
3.39071
3.39564
3.40053
3.40536
3.41011
3.41476
3.41928
3.42367
3.42788
3.4319
3.43574
3.43928
0.860565
0.811411
0.765711
0.723439
0.684828
0.650242
0.620147
0.595142
0.57603
0.563904
0.56022
0.566795
0.585676
0.618805
0.66751
0.731993
0.81102
0.902008
1.00149
1.10577
1.21146
1.31586
1.41705
1.51381
1.60547
1.69173
1.77257
1.84814
1.91867
1.98447
2.04585
2.10313
2.15664
2.20668
2.25353
2.29744
2.33866
2.37742
2.4139
2.44831
2.48079
2.51151
2.54061
2.5682
2.5944
2.61932
2.64305
2.66567
2.68727
2.70792
2.72768
2.74662
2.76479
2.78223
2.79901
2.81515
2.83071
2.84571
2.86019
2.87418
2.88771
2.90081
2.91351
2.92582
2.93776
2.94937
2.96065
2.97162
2.98231
2.99272
3.00287
3.01278
3.02245
3.03189
3.04112
3.05015
3.05898
3.06761
3.07605
3.0843
3.09238
3.10028
3.10802
3.11559
3.123
3.13025
3.13735
3.14431
3.15113
3.15781
3.16437
3.1708
3.17711
3.18332
3.18942
3.19544
3.20137
3.20722
3.213
3.21873
3.2244
3.23003
3.23561
3.24116
3.24667
3.25215
3.2576
3.26301
3.26838
3.27371
3.27899
3.2842
3.28934
3.2944
3.29935
3.30418
3.30887
3.31341
3.31777
3.32194
3.32591
3.32963
0.861099
0.813133
0.76901
0.728261
0.690673
0.656203
0.624916
0.596953
0.57254
0.551996
0.535764
0.524447
0.518835
0.519919
0.528854
0.546863
0.575059
0.614217
0.664541
0.725514
0.795886
0.873821
0.957145
1.04364
1.13129
1.21842
1.30375
1.3864
1.4658
1.54163
1.61374
1.68211
1.74682
1.80798
1.86575
1.92031
1.97184
2.02055
2.0666
2.11017
2.15144
2.19056
2.22768
2.26294
2.29646
2.32837
2.35877
2.38776
2.41545
2.44192
2.46724
2.4915
2.51475
2.53707
2.55851
2.57912
2.59896
2.61807
2.6365
2.65428
2.67146
2.68806
2.70412
2.71967
2.73474
2.74935
2.76353
2.77729
2.79067
2.80368
2.81635
2.82868
2.84069
2.8524
2.86382
2.87497
2.88585
2.89648
2.90686
2.917
2.92691
2.93658
2.94604
2.95528
2.96431
2.97314
2.98178
2.99023
2.99849
3.00658
3.0145
3.02225
3.02985
3.0373
3.0446
3.05176
3.0588
3.06572
3.07252
3.07922
3.08582
3.09232
3.09873
3.10506
3.1113
3.11746
3.12355
3.12955
3.13547
3.14129
3.14703
3.15266
3.15819
3.16359
3.16886
3.17398
3.17893
3.18371
3.1883
3.19267
3.19685
3.20077
0.861317
0.813942
0.770775
0.731184
0.694718
0.661081
0.630095
0.601662
0.575754
0.552397
0.531673
0.513721
0.498751
0.487049
0.478999
0.475087
0.475905
0.482135
0.494503
0.513718
0.540366
0.574817
0.617121
0.666952
0.72361
0.786067
0.853079
0.923307
0.99544
1.06829
1.14087
1.21238
1.28223
1.35001
1.41546
1.47841
1.53881
1.59663
1.6519
1.70469
1.75507
1.80315
1.84902
1.8928
1.93459
1.9745
2.01264
2.0491
2.08399
2.11738
2.14938
2.18005
2.20948
2.23773
2.26488
2.29099
2.31611
2.34031
2.36363
2.38613
2.40784
2.42881
2.44908
2.46869
2.48767
2.50605
2.52387
2.54115
2.55792
2.57421
2.59004
2.60543
2.6204
2.63498
2.64917
2.663
2.67648
2.68963
2.70246
2.71497
2.72719
2.73911
2.75074
2.7621
2.77319
2.78401
2.79459
2.80492
2.81501
2.82487
2.83451
2.84394
2.85315
2.86217
2.87099
2.87962
2.88808
2.89635
2.90447
2.91242
2.92021
2.92786
2.93536
2.94272
2.94994
2.95703
2.96398
2.97079
2.97746
2.984
2.99038
2.99662
3.0027
3.00861
3.01435
3.0199
3.02525
3.0304
3.03531
3.03999
3.04446
3.04869
0.861389
0.814244
0.77153
0.732597
0.696917
0.664079
0.633769
0.605753
0.579862
0.555979
0.53403
0.513979
0.495828
0.479611
0.4654
0.453309
0.443493
0.436161
0.431574
0.430052
0.431968
0.437737
0.4478
0.462586
0.482476
0.507758
0.538578
0.574904
0.616512
0.66298
0.713718
0.768009
0.825062
0.88407
0.94426
1.00493
1.06548
1.12542
1.18436
1.242
1.29815
1.35266
1.40546
1.45649
1.50575
1.55324
1.59899
1.64303
1.68542
1.72621
1.76546
1.80324
1.83959
1.8746
1.90832
1.94081
1.97212
2.00233
2.03147
2.0596
2.08677
2.11303
2.13841
2.16297
2.18673
2.20975
2.23205
2.25367
2.27465
2.295
2.31477
2.33397
2.35264
2.37079
2.38845
2.40564
2.42238
2.43869
2.45458
2.47008
2.48519
2.49992
2.5143
2.52833
2.54201
2.55535
2.56837
2.58108
2.59348
2.60558
2.61739
2.62893
2.64019
2.65119
2.66193
2.67243
2.68268
2.69269
2.70247
2.71203
2.72137
2.7305
2.73941
2.74812
2.75663
2.76493
2.77303
2.78093
2.78863
2.79612
2.80341
2.81048
2.81734
2.82398
2.83038
2.83655
2.84248
2.84814
2.85355
2.85868
2.86356
2.8682
0.861406
0.814329
0.771776
0.733121
0.697834
0.665476
0.635686
0.608168
0.582682
0.559037
0.53708
0.516692
0.497782
0.480288
0.464168
0.449403
0.435996
0.423969
0.413369
0.404262
0.396745
0.390937
0.38699
0.385084
0.385432
0.38827
0.393857
0.402461
0.414344
0.429748
0.448872
0.471851
0.49874
0.5295
0.563988
0.601961
0.643088
0.686961
0.733122
0.781088
0.830373
0.880513
0.93108
0.981697
1.03204
1.08185
1.1309
1.17905
1.22616
1.27216
1.31699
1.36062
1.40302
1.4442
1.48417
1.52292
1.5605
1.59692
1.63221
1.6664
1.69953
1.73164
1.76276
1.79293
1.82218
1.85055
1.87808
1.9048
1.93074
1.95593
1.9804
2.00419
2.02731
2.0498
2.07168
2.09297
2.11369
2.13388
2.15354
2.1727
2.19138
2.20959
2.22734
2.24466
2.26156
2.27804
2.29412
2.3098
2.32508
2.33999
2.35453
2.36871
2.38254
2.39603
2.40919
2.42202
2.43453
2.44673
2.45863
2.47022
2.48152
2.49253
2.50325
2.51369
2.52385
2.53373
2.54333
2.55265
2.56169
2.57046
2.57894
2.58714
2.59505
2.60267
2.61
2.61702
2.62374
2.63015
2.63624
2.642
2.64748
2.65269
0.861407
0.814342
0.77183
0.73326
0.698113
0.665954
0.636417
0.609191
0.584014
0.560665
0.538959
0.518737
0.499869
0.482247
0.46578
0.450397
0.43604
0.422666
0.410246
0.398762
0.388209
0.378592
0.36993
0.362255
0.355609
0.350053
0.345657
0.342512
0.340722
0.340409
0.341709
0.344772
0.349758
0.356833
0.366159
0.377891
0.392165
0.409092
0.428747
0.45116
0.476313
0.504137
0.534507
0.567251
0.602152
0.638957
0.677388
0.717155
0.757962
0.799523
0.841566
0.883842
0.926128
0.968232
1.00999
1.05127
1.09197
1.13199
1.17129
1.2098
1.24751
1.28439
1.32043
1.35562
1.38997
1.42349
1.45617
1.48804
1.51909
1.54937
1.57886
1.60761
1.63562
1.66291
1.68951
1.71544
1.74071
1.76536
1.78939
1.81282
1.83568
1.85798
1.87974
1.90097
1.92169
1.94191
1.96164
1.98089
1.99968
2.01801
2.03588
2.05329
2.07026
2.08681
2.10293
2.11863
2.13393
2.14883
2.16334
2.17746
2.19119
2.20454
2.21752
2.23012
2.24235
2.25421
2.2657
2.27683
2.28759
2.29798
2.30801
2.31766
2.32695
2.33586
2.34441
2.35257
2.36036
2.36777
2.3748
2.38145
2.38776
2.39376
0.861405
0.814337
0.771831
0.733277
0.698164
0.666062
0.636607
0.60949
0.584448
0.561253
0.53971
0.519653
0.500935
0.483431
0.467033
0.451647
0.437194
0.423603
0.410816
0.398785
0.387468
0.376832
0.366852
0.357508
0.348789
0.340687
0.333204
0.326348
0.32013
0.314572
0.309702
0.305553
0.30217
0.299604
0.297914
0.29717
0.297449
0.298836
0.301424
0.305311
0.3106
0.317392
0.325788
0.335883
0.347762
0.361495
0.377137
0.394719
0.41425
0.435711
0.459056
0.484212
0.511079
0.539535
0.569436
0.600622
0.632923
0.666161
0.700158
0.734739
0.769734
0.804987
0.840352
0.875698
0.910911
0.945892
0.980557
1.01484
1.04868
1.08203
1.11487
1.14716
1.17888
1.21004
1.2406
1.27058
1.29998
1.32878
1.35699
1.38462
1.41167
1.43815
1.46406
1.4894
1.51418
1.53842
1.56211
1.58526
1.60789
1.62999
1.65158
1.67266
1.69323
1.71328
1.73282
1.75186
1.7704
1.78845
1.80601
1.8231
1.8397
1.85583
1.87148
1.88666
1.90138
1.91562
1.9294
1.94272
1.95558
1.96797
1.9799
1.99137
2.00239
2.01295
2.02305
2.0327
2.0419
2.05065
2.05896
2.06682
2.07429
2.08141
0.861402
0.814329
0.77182
0.733266
0.698157
0.666065
0.636627
0.609537
0.584532
0.561385
0.539902
0.519913
0.50127
0.483846
0.467525
0.45221
0.437813
0.424257
0.411474
0.399403
0.387993
0.377196
0.366972
0.357284
0.348103
0.339402
0.331157
0.323351
0.315968
0.308997
0.302429
0.296259
0.290486
0.285112
0.28014
0.275581
0.271445
0.267749
0.264512
0.261758
0.259514
0.257813
0.256693
0.256195
0.256365
0.257255
0.25892
0.261418
0.264812
0.269165
0.274542
0.281005
0.288617
0.297436
0.307512
0.318892
0.331611
0.345693
0.361151
0.377985
0.39618
0.415708
0.436523
0.458571
0.48178
0.506069
0.531348
0.557517
0.584472
0.612105
0.640306
0.668969
0.697985
0.727255
0.756683
0.786179
0.815662
0.84506
0.874305
0.903341
0.932119
0.960595
0.988734
1.01651
1.04388
1.07085
1.09739
1.12348
1.14912
1.17429
1.19899
1.22321
1.24695
1.2702
1.29296
1.3152
1.33692
1.35811
1.37876
1.39887
1.41845
1.43749
1.45599
1.47394
1.49136
1.50823
1.52457
1.54036
1.55562
1.57034
1.58454
1.59821
1.61136
1.62399
1.63611
1.64772
1.65884
1.66946
1.67959
1.68924
1.69846
1.70729
0.8614
0.814321
0.77181
0.733253
0.698143
0.66605
0.636614
0.609527
0.584528
0.561391
0.53992
0.519948
0.501326
0.483926
0.467634
0.45235
0.437986
0.424462
0.411709
0.399665
0.388273
0.377484
0.367254
0.35754
0.348309
0.339526
0.331164
0.323195
0.315596
0.308347
0.301429
0.294824
0.288519
0.282502
0.27676
0.271286
0.266072
0.261112
0.256403
0.251941
0.247725
0.243758
0.24004
0.236576
0.233372
0.230436
0.227777
0.225408
0.223341
0.221593
0.220182
0.219128
0.218455
0.218189
0.218358
0.218993
0.220126
0.221793
0.224031
0.226878
0.230376
0.234563
0.239479
0.245165
0.251659
0.258996
0.267209
0.276327
0.286374
0.297371
0.309328
0.322253
0.336144
0.350993
0.366783
0.38349
0.401083
0.419521
0.43876
0.458747
0.479425
0.50073
0.522597
0.544958
0.567742
0.590877
0.614293
0.63792
0.661689
0.685536
0.709398
0.733217
0.756938
0.780511
0.803891
0.827037
0.849921
0.872502
0.894742
0.91661
0.938082
0.959141
0.97977
0.999957
1.01969
1.03897
1.05778
1.07612
1.09399
1.11139
1.12831
1.14476
1.16073
1.17624
1.19127
1.20584
1.21994
1.23358
1.24676
1.25949
1.27179
1.28368
0.861399
0.814317
0.771804
0.733245
0.698133
0.666039
0.636602
0.609515
0.584516
0.561379
0.53991
0.51994
0.501322
0.483926
0.46764
0.452363
0.438006
0.424492
0.411749
0.399716
0.388335
0.377557
0.367336
0.357631
0.348405
0.339624
0.331258
0.323279
0.315662
0.308383
0.301421
0.294758
0.288376
0.282259
0.276392
0.270762
0.265357
0.260167
0.25518
0.250389
0.245786
0.241362
0.237113
0.233033
0.229117
0.225362
0.221764
0.218323
0.215035
0.211901
0.208922
0.206097
0.20343
0.200923
0.198581
0.196407
0.194407
0.192589
0.19096
0.18953
0.188308
0.187306
0.186537
0.186016
0.185756
0.185776
0.186095
0.186731
0.187706
0.189043
0.190766
0.1929
0.19547
0.198503
0.202027
0.206069
0.210656
0.215815
0.221574
0.227955
0.234984
0.242682
0.251067
0.260155
0.269959
0.280488
0.291746
0.303734
0.316448
0.329877
0.344009
0.358824
0.374299
0.390405
0.407111
0.424378
0.442169