/*--------------------------------*- C++ -*----------------------------------*\
  =========                 |
  \\      /  F ield         | OpenFOAM: The Open Source CFD Toolbox
   \\    /   O peration     | Website:  https://openfoam.org
    \\  /    A nd           | Version:  8
     \\/     M anipulation  |
\*---------------------------------------------------------------------------*/
FoamFile
{
    version     2.0;
    format      ascii;
    class       volScalarField;
    location    "950";
    object      nut;
}
// * * * * * * * * * * * * * * * * * * * * * * * * * * * * * * * * * * * * * //

dimensions      [0 2 -1 0 0 0 0];

internalField   nonuniform List<scalar> 
7320
(
0.000286299
0.000273847
0.000266049
0.000260783
0.000256941
0.000253973
0.00025158
0.000249592
0.000247905
0.000246449
0.000245176
0.000244051
0.000243048
0.000242148
0.000241334
0.000240596
0.000239922
0.000239306
0.000238739
0.000238217
0.000237735
0.000237288
0.000236874
0.000236489
0.000236131
0.000235797
0.000235485
0.000235194
0.000234922
0.000234667
0.000234429
0.000234206
0.000233997
0.000233801
0.000233617
0.000233445
0.000233284
0.000233132
0.000232991
0.000232858
0.000232734
0.000232618
0.00023251
0.000232409
0.000232315
0.000232227
0.000232146
0.000232071
0.000232001
0.000231936
0.000231877
0.000231823
0.000231773
0.000231728
0.000231687
0.00023165
0.000231617
0.000231588
0.000231563
0.000231541
0.000231522
0.000231507
0.000231495
0.000231485
0.000231479
0.000231476
0.000231475
0.000231477
0.000231481
0.000231488
0.000231497
0.000231508
0.000231522
0.000231538
0.000231555
0.000231575
0.000231596
0.000231619
0.000231643
0.000231669
0.000231697
0.000231726
0.000231756
0.000231788
0.000231821
0.000231855
0.000231891
0.000231928
0.000231966
0.000232006
0.000232048
0.000232091
0.000232135
0.000232181
0.000232229
0.000232279
0.00023233
0.000232383
0.000232438
0.000232495
0.000232553
0.000232613
0.000232674
0.000232737
0.000232801
0.000232867
0.000232933
0.000233001
0.000233069
0.000233137
0.000233206
0.000233275
0.000233343
0.000233411
0.000233479
0.000233545
0.00023361
0.000233674
0.000233735
0.000233795
0.000233851
0.000233907
0.000562815
0.000740638
0.000767571
0.000767651
0.000763096
0.000757975
0.000753148
0.000748779
0.000744861
0.00074135
0.000738193
0.000735345
0.000732764
0.000730416
0.000728271
0.000726307
0.000724501
0.000722838
0.000721301
0.000719879
0.00071856
0.000717334
0.000716194
0.000715131
0.00071414
0.000713215
0.00071235
0.000711541
0.000710784
0.000710076
0.000709412
0.00070879
0.000708208
0.000707662
0.000707151
0.000706672
0.000706223
0.000705803
0.000705411
0.000705044
0.000704701
0.000704381
0.000704083
0.000703806
0.000703548
0.000703309
0.000703088
0.000702884
0.000702696
0.000702524
0.000702367
0.000702223
0.000702093
0.000701977
0.000701872
0.00070178
0.000701699
0.000701629
0.000701569
0.00070152
0.000701481
0.000701451
0.00070143
0.000701419
0.000701416
0.000701421
0.000701435
0.000701457
0.000701486
0.000701522
0.000701566
0.000701617
0.000701674
0.000701736
0.000701805
0.000701878
0.000701955
0.000702036
0.00070212
0.000702207
0.000702296
0.000702386
0.000702478
0.000702571
0.000702665
0.00070276
0.000702857
0.000702957
0.000703059
0.000703165
0.000703275
0.00070339
0.000703512
0.000703641
0.000703778
0.000703926
0.000704083
0.000704252
0.000704434
0.000704628
0.000704836
0.000705057
0.000705292
0.00070554
0.000705802
0.000706077
0.000706363
0.000706661
0.000706968
0.000707284
0.000707607
0.000707935
0.000708267
0.0007086
0.000708933
0.000709263
0.000709588
0.000709907
0.000710215
0.000710512
0.000710795
0.000711049
0.00076108
0.00115457
0.00127125
0.00130573
0.00131552
0.00131688
0.00131508
0.00131204
0.00130855
0.00130497
0.00130147
0.00129811
0.00129493
0.00129193
0.00128913
0.0012865
0.00128405
0.00128176
0.00127961
0.00127761
0.00127574
0.00127398
0.00127234
0.0012708
0.00126936
0.00126801
0.00126674
0.00126555
0.00126444
0.0012634
0.00126242
0.0012615
0.00126064
0.00125984
0.00125908
0.00125838
0.00125772
0.0012571
0.00125652
0.00125599
0.00125549
0.00125502
0.00125459
0.0012542
0.00125383
0.00125349
0.00125318
0.0012529
0.00125264
0.0012524
0.00125219
0.00125201
0.00125184
0.00125169
0.00125157
0.00125146
0.00125137
0.0012513
0.00125124
0.0012512
0.00125118
0.00125117
0.00125118
0.00125121
0.00125124
0.00125129
0.00125136
0.00125144
0.00125153
0.00125163
0.00125175
0.00125188
0.00125201
0.00125216
0.00125231
0.00125247
0.00125264
0.00125281
0.00125298
0.00125315
0.00125332
0.00125348
0.00125365
0.00125381
0.00125397
0.00125413
0.00125429
0.00125445
0.00125462
0.00125479
0.00125497
0.00125516
0.00125536
0.00125559
0.00125584
0.00125611
0.00125642
0.00125675
0.00125712
0.00125753
0.00125797
0.00125845
0.00125897
0.00125953
0.00126013
0.00126076
0.00126143
0.00126213
0.00126285
0.0012636
0.00126437
0.00126515
0.00126594
0.00126674
0.00126752
0.0012683
0.00126906
0.0012698
0.00127051
0.00127118
0.00127181
0.00127235
0.00094219
0.00154866
0.00180331
0.00190635
0.0019512
0.00197187
0.00198147
0.00198555
0.00198668
0.00198617
0.00198472
0.00198276
0.00198051
0.00197813
0.00197571
0.00197331
0.00197095
0.00196867
0.00196648
0.00196438
0.00196238
0.00196047
0.00195867
0.00195695
0.00195534
0.00195381
0.00195237
0.00195101
0.00194973
0.00194852
0.00194739
0.00194633
0.00194534
0.0019444
0.00194353
0.00194272
0.00194196
0.00194125
0.0019406
0.00193999
0.00193943
0.00193891
0.00193844
0.00193801
0.00193761
0.00193725
0.00193693
0.00193664
0.00193639
0.00193616
0.00193597
0.00193581
0.00193567
0.00193556
0.00193548
0.00193542
0.00193539
0.00193538
0.00193539
0.00193543
0.00193549
0.00193556
0.00193566
0.00193578
0.00193592
0.00193608
0.00193626
0.00193645
0.00193667
0.0019369
0.00193715
0.00193742
0.00193769
0.00193798
0.00193828
0.00193859
0.0019389
0.00193921
0.00193952
0.00193982
0.00194012
0.00194041
0.00194069
0.00194096
0.00194122
0.00194147
0.00194172
0.00194197
0.00194223
0.00194249
0.00194277
0.00194307
0.00194341
0.00194377
0.00194418
0.00194465
0.00194516
0.00194574
0.00194639
0.00194711
0.0019479
0.00194877
0.00194972
0.00195074
0.00195183
0.001953
0.00195423
0.00195552
0.00195686
0.00195825
0.00195966
0.00196111
0.00196256
0.00196401
0.00196545
0.00196687
0.00196825
0.00196957
0.00197083
0.001972
0.00197309
0.001974
0.00110978
0.00189233
0.00232606
0.0025368
0.00264438
0.00270313
0.00273713
0.00275765
0.00277031
0.00277817
0.00278296
0.00278574
0.00278718
0.00278769
0.00278758
0.00278703
0.00278618
0.00278514
0.00278397
0.00278273
0.00278144
0.00278014
0.00277885
0.00277758
0.00277634
0.00277515
0.002774
0.0027729
0.00277185
0.00277085
0.00276991
0.00276903
0.0027682
0.00276742
0.00276669
0.00276602
0.0027654
0.00276483
0.00276431
0.00276383
0.0027634
0.00276302
0.00276268
0.00276238
0.00276212
0.0027619
0.00276172
0.00276157
0.00276146
0.00276139
0.00276135
0.00276134
0.00276136
0.00276142
0.0027615
0.00276161
0.00276175
0.00276192
0.00276211
0.00276233
0.00276257
0.00276284
0.00276313
0.00276345
0.00276379
0.00276416
0.00276455
0.00276496
0.0027654
0.00276586
0.00276634
0.00276683
0.00276735
0.00276787
0.00276841
0.00276895
0.00276949
0.00277003
0.00277055
0.00277107
0.00277157
0.00277205
0.00277251
0.00277295
0.00277337
0.00277377
0.00277417
0.00277456
0.00277496
0.00277536
0.00277579
0.00277626
0.00277677
0.00277734
0.00277797
0.00277869
0.0027795
0.00278042
0.00278144
0.00278258
0.00278385
0.00278523
0.00278675
0.00278839
0.00279015
0.00279203
0.00279401
0.00279609
0.00279825
0.00280049
0.00280277
0.0028051
0.00280744
0.00280977
0.00281208
0.00281434
0.00281653
0.00281863
0.00282061
0.00282245
0.00282414
0.00282552
0.00129926
0.00216764
0.00280717
0.00316585
0.00336954
0.00349116
0.00356775
0.00361825
0.00365279
0.00367709
0.00369457
0.00370734
0.00371679
0.00372385
0.00372913
0.0037331
0.00373607
0.00373829
0.00373993
0.00374111
0.00374196
0.00374253
0.0037429
0.00374312
0.00374321
0.00374322
0.00374316
0.00374305
0.00374292
0.00374276
0.0037426
0.00374245
0.00374229
0.00374216
0.00374204
0.00374194
0.00374186
0.00374181
0.00374179
0.00374179
0.00374182
0.00374189
0.00374198
0.00374211
0.00374227
0.00374245
0.00374267
0.00374292
0.00374319
0.0037435
0.00374384
0.0037442
0.00374459
0.00374502
0.00374546
0.00374594
0.00374644
0.00374696
0.00374751
0.00374809
0.00374869
0.00374931
0.00374996
0.00375064
0.00375134
0.00375207
0.00375283
0.00375361
0.00375441
0.00375524
0.0037561
0.00375697
0.00375786
0.00375876
0.00375967
0.00376058
0.00376148
0.00376237
0.00376324
0.00376409
0.0037649
0.00376568
0.00376643
0.00376714
0.00376781
0.00376846
0.00376908
0.00376969
0.0037703
0.00377092
0.00377157
0.00377227
0.00377302
0.00377387
0.00377481
0.00377587
0.00377706
0.0037784
0.00377991
0.00378159
0.00378346
0.00378551
0.00378775
0.00379018
0.00379279
0.00379558
0.00379852
0.00380162
0.00380484
0.00380816
0.00381157
0.00381503
0.00381852
0.003822
0.00382545
0.00382882
0.00383208
0.0038352
0.00383815
0.00384087
0.00384338
0.00384541
0.00158937
0.00236976
0.00321596
0.00375923
0.00409609
0.00431112
0.00445413
0.00455312
0.00462407
0.00467641
0.00471597
0.00474649
0.00477044
0.00478951
0.00480489
0.00481744
0.00482777
0.00483636
0.00484356
0.00484964
0.00485482
0.00485926
0.00486309
0.00486643
0.00486936
0.00487194
0.00487424
0.0048763
0.00487817
0.00487987
0.00488143
0.00488288
0.00488423
0.00488551
0.00488673
0.00488789
0.00488901
0.0048901
0.00489116
0.0048922
0.00489323
0.00489425
0.00489526
0.00489627
0.00489729
0.00489831
0.00489933
0.00490036
0.00490141
0.00490246
0.00490353
0.0049046
0.0049057
0.0049068
0.00490792
0.00490906
0.00491021
0.00491138
0.00491256
0.00491377
0.00491498
0.00491622
0.00491748
0.00491876
0.00492006
0.00492139
0.00492274
0.00492411
0.00492551
0.00492693
0.00492837
0.00492983
0.0049313
0.00493278
0.00493426
0.00493574
0.00493719
0.00493863
0.00494002
0.00494138
0.00494268
0.00494393
0.00494511
0.00494624
0.00494731
0.00494832
0.0049493
0.00495025
0.00495118
0.00495212
0.00495309
0.00495412
0.00495522
0.00495643
0.00495778
0.00495928
0.00496096
0.00496285
0.00496497
0.00496733
0.00496995
0.00497283
0.00497597
0.00497939
0.00498306
0.00498699
0.00499114
0.00499551
0.00500007
0.00500479
0.00500963
0.00501455
0.00501951
0.00502448
0.0050294
0.00503422
0.0050389
0.00504339
0.00504763
0.00505156
0.00505519
0.00505813
0.00212976
0.00251869
0.00352583
0.00427893
0.00478634
0.00512981
0.00536872
0.00554022
0.00566706
0.00576335
0.00583815
0.00589739
0.00594512
0.00598413
0.00601645
0.00604352
0.00606643
0.00608601
0.00610287
0.00611753
0.00613035
0.00614164
0.00615166
0.00616061
0.00616864
0.00617589
0.00618248
0.00618849
0.00619402
0.00619912
0.00620384
0.00620825
0.00621238
0.00621626
0.00621993
0.00622341
0.00622673
0.0062299
0.00623295
0.00623588
0.00623872
0.00624147
0.00624415
0.00624676
0.00624931
0.00625181
0.00625426
0.00625668
0.00625907
0.00626142
0.00626375
0.00626606
0.00626836
0.00627063
0.0062729
0.00627515
0.00627739
0.00627963
0.00628186
0.00628409
0.00628632
0.00628856
0.00629079
0.00629304
0.00629529
0.00629756
0.00629985
0.00630215
0.00630446
0.00630679
0.00630913
0.00631149
0.00631384
0.0063162
0.00631855
0.00632087
0.00632317
0.00632541
0.0063276
0.00632972
0.00633176
0.00633371
0.00633557
0.00633733
0.00633901
0.00634059
0.00634211
0.00634357
0.006345
0.00634642
0.00634787
0.00634937
0.00635096
0.00635268
0.00635456
0.00635664
0.00635896
0.00636155
0.00636444
0.00636765
0.0063712
0.00637511
0.00637938
0.00638402
0.00638901
0.00639436
0.00640002
0.00640599
0.00641222
0.00641869
0.00642533
0.0064321
0.00643895
0.00644582
0.00645264
0.00645935
0.00646588
0.00647217
0.00647813
0.0064837
0.00648885
0.00649309
0.0031541
0.00268382
0.00372393
0.00468584
0.00539542
0.00590413
0.0062731
0.00654666
0.00675434
0.00691556
0.00704326
0.00714624
0.00723059
0.00730064
0.00735953
0.00740959
0.00745254
0.00748974
0.00752221
0.00755076
0.00757604
0.00759856
0.00761874
0.00763694
0.00765342
0.00766843
0.00768215
0.00769477
0.00770641
0.0077172
0.00772723
0.0077366
0.00774539
0.00775365
0.00776144
0.00776882
0.00777583
0.0077825
0.00778888
0.00779498
0.00780085
0.00780649
0.00781193
0.0078172
0.0078223
0.00782726
0.00783208
0.00783678
0.00784136
0.00784585
0.00785025
0.00785456
0.00785879
0.00786296
0.00786706
0.0078711
0.00787509
0.00787903
0.00788292
0.00788678
0.0078906
0.00789438
0.00789815
0.00790189
0.00790562
0.00790934
0.00791305
0.00791676
0.00792046
0.00792417
0.00792787
0.00793156
0.00793524
0.0079389
0.00794253
0.00794612
0.00794965
0.0079531
0.00795647
0.00795972
0.00796286
0.00796587
0.00796873
0.00797146
0.00797404
0.0079765
0.00797883
0.00798108
0.00798326
0.0079854
0.00798755
0.00798975
0.00799204
0.00799447
0.0079971
0.00799997
0.00800314
0.00800663
0.00801051
0.00801479
0.00801952
0.00802472
0.00803038
0.00803653
0.00804316
0.00805026
0.00805779
0.00806574
0.00807405
0.00808269
0.00809159
0.00810068
0.00810991
0.00811918
0.00812842
0.00813754
0.00814646
0.00815507
0.00816329
0.00817101
0.00817821
0.0081842
0.00493181
0.00302612
0.0038337
0.00494834
0.00587406
0.00658116
0.00711649
0.00752622
0.00784508
0.00809766
0.00830115
0.00846767
0.00860586
0.00872199
0.00882068
0.0089054
0.00897879
0.0090429
0.00909931
0.00914929
0.00919386
0.00923384
0.00926988
0.00930255
0.00933229
0.00935949
0.00938448
0.00940751
0.00942884
0.00944864
0.0094671
0.00948435
0.00950054
0.00951576
0.00953012
0.0095437
0.00955659
0.00956883
0.0095805
0.00959165
0.00960231
0.00961255
0.00962238
0.00963185
0.00964099
0.00964982
0.00965837
0.00966666
0.00967472
0.00968255
0.00969017
0.00969761
0.00970488
0.00971198
0.00971893
0.00972574
0.00973243
0.00973899
0.00974543
0.00975178
0.00975803
0.00976419
0.00977027
0.00977629
0.00978224
0.00978814
0.00979399
0.00979981
0.00980558
0.00981133
0.00981703
0.0098227
0.00982833
0.0098339
0.00983941
0.00984485
0.00985019
0.00985541
0.00986049
0.00986542
0.00987017
0.00987474
0.0098791
0.00988326
0.00988721
0.00989097
0.00989455
0.00989798
0.00990129
0.00990452
0.00990773
0.00991096
0.00991428
0.00991775
0.00992143
0.00992539
0.00992969
0.0099344
0.00993956
0.00994523
0.00995146
0.00995826
0.00996567
0.0099737
0.00998235
0.0099916
0.0100014
0.0100118
0.0100227
0.010034
0.0100457
0.0100576
0.0100698
0.0100821
0.0100943
0.0101065
0.0101184
0.01013
0.0101411
0.0101516
0.0101615
0.0101698
0.00765447
0.00384129
0.0039599
0.0050637
0.00617752
0.00710148
0.0078361
0.00841791
0.00888249
0.00925803
0.00956562
0.00982082
0.0100351
0.0102171
0.0103732
0.0105082
0.0106262
0.0107298
0.0108217
0.0109035
0.0109768
0.0110429
0.0111028
0.0111573
0.011207
0.0112527
0.0112948
0.0113337
0.0113697
0.0114033
0.0114346
0.0114639
0.0114914
0.0115173
0.0115417
0.0115648
0.0115867
0.0116075
0.0116273
0.0116462
0.0116642
0.0116815
0.0116981
0.011714
0.0117293
0.011744
0.0117583
0.0117721
0.0117854
0.0117983
0.0118109
0.0118231
0.0118349
0.0118465
0.0118577
0.0118687
0.0118795
0.01189
0.0119003
0.0119103
0.0119202
0.0119299
0.0119395
0.0119489
0.0119581
0.0119672
0.0119763
0.0119852
0.011994
0.0120027
0.0120114
0.0120199
0.0120284
0.0120367
0.012045
0.0120531
0.012061
0.0120688
0.0120764
0.0120838
0.0120909
0.0120977
0.0121043
0.0121105
0.0121165
0.0121222
0.0121277
0.0121329
0.0121379
0.0121428
0.0121476
0.0121523
0.0121572
0.0121621
0.0121673
0.0121728
0.0121787
0.012185
0.0121919
0.0121994
0.0122076
0.0122164
0.012226
0.0122364
0.0122475
0.0122594
0.0122721
0.0122854
0.0122994
0.012314
0.012329
0.0123445
0.0123603
0.0123762
0.0123922
0.0124081
0.0124237
0.012439
0.0124537
0.0124677
0.0124809
0.0124923
0.0113266
0.00551803
0.00435849
0.00510578
0.00628855
0.00740978
0.00836168
0.0091471
0.00979278
0.0103264
0.0107711
0.0111453
0.0114634
0.0117362
0.0119723
0.0121782
0.0123592
0.0125193
0.0126619
0.0127896
0.0129046
0.0130086
0.0131032
0.0131896
0.0132687
0.0133415
0.0134088
0.0134711
0.0135289
0.0135829
0.0136333
0.0136805
0.0137248
0.0137666
0.013806
0.0138433
0.0138786
0.0139122
0.0139441
0.0139745
0.0140036
0.0140313
0.014058
0.0140835
0.014108
0.0141316
0.0141544
0.0141763
0.0141975
0.014218
0.0142379
0.0142571
0.0142758
0.014294
0.0143117
0.0143288
0.0143456
0.0143619
0.0143779
0.0143935
0.0144087
0.0144236
0.0144382
0.0144526
0.0144667
0.0144805
0.0144942
0.0145076
0.0145208
0.0145339
0.0145468
0.0145595
0.014572
0.0145844
0.0145965
0.0146085
0.0146202
0.0146316
0.0146428
0.0146537
0.0146642
0.0146743
0.0146841
0.0146934
0.0147024
0.0147109
0.0147191
0.014727
0.0147346
0.0147419
0.014749
0.0147561
0.0147632
0.0147704
0.0147777
0.0147854
0.0147935
0.0148021
0.0148113
0.0148212
0.0148318
0.0148433
0.0148557
0.014869
0.0148832
0.0148984
0.0149145
0.0149314
0.0149492
0.0149677
0.0149869
0.0150066
0.0150267
0.015047
0.0150675
0.0150879
0.0151081
0.0151279
0.015147
0.0151653
0.0151828
0.0151979
0.0157248
0.0083437
0.00547916
0.00531275
0.00627167
0.00748282
0.00862975
0.00963244
0.0104877
0.0112134
0.0118305
0.0123582
0.0128125
0.0132064
0.0135503
0.0138528
0.0141205
0.0143588
0.0145721
0.0147641
0.0149377
0.0150955
0.0152394
0.0153712
0.0154923
0.0156041
0.0157075
0.0158035
0.0158929
0.0159763
0.0160543
0.0161275
0.0161964
0.0162612
0.0163225
0.0163804
0.0164354
0.0164876
0.0165372
0.0165845
0.0166296
0.0166728
0.0167141
0.0167537
0.0167917
0.0168283
0.0168635
0.0168974
0.0169301
0.0169617
0.0169923
0.0170218
0.0170505
0.0170783
0.0171053
0.0171315
0.017157
0.0171818
0.017206
0.0172296
0.0172526
0.0172751
0.0172971
0.0173186
0.0173397
0.0173604
0.0173806
0.0174006
0.0174202
0.0174394
0.0174584
0.017477
0.0174954
0.0175135
0.0175312
0.0175487
0.0175657
0.0175824
0.0175987
0.0176146
0.01763
0.0176449
0.0176592
0.017673
0.0176863
0.017699
0.0177112
0.017723
0.0177343
0.0177452
0.0177559
0.0177663
0.0177767
0.0177871
0.0177977
0.0178085
0.0178197
0.0178314
0.0178438
0.0178569
0.0178709
0.0178858
0.0179018
0.0179188
0.0179368
0.017956
0.0179763
0.0179977
0.01802
0.0180432
0.0180673
0.018092
0.0181173
0.018143
0.0181688
0.0181947
0.0182203
0.0182455
0.0182701
0.0182937
0.0183162
0.018336
0.0204365
0.0122987
0.00781877
0.0061763
0.00638132
0.00739745
0.00862145
0.00980678
0.0108762
0.0118169
0.0126375
0.0133529
0.0139782
0.0145273
0.0150118
0.0154416
0.0158248
0.0161683
0.0164775
0.0167573
0.0170115
0.0172433
0.0174556
0.0176506
0.0178304
0.0179968
0.018151
0.0182945
0.0184284
0.0185535
0.0186708
0.018781
0.0188847
0.0189825
0.0190749
0.0191625
0.0192455
0.0193243
0.0193994
0.0194709
0.0195392
0.0196044
0.0196669
0.0197267
0.0197842
0.0198393
0.0198924
0.0199436
0.0199928
0.0200404
0.0200864
0.0201308
0.0201738
0.0202155
0.0202559
0.0202951
0.0203332
0.0203703
0.0204063
0.0204414
0.0204755
0.0205089
0.0205414
0.0205732
0.0206043
0.0206347
0.0206645
0.0206937
0.0207223
0.0207504
0.020778
0.0208051
0.0208318
0.0208579
0.0208836
0.0209088
0.0209335
0.0209576
0.0209811
0.0210041
0.0210264
0.021048
0.0210689
0.0210891
0.0211086
0.0211274
0.0211454
0.0211628
0.0211795
0.0211958
0.0212115
0.0212269
0.0212421
0.0212572
0.0212723
0.0212876
0.0213033
0.0213194
0.0213362
0.0213537
0.0213722
0.0213916
0.0214122
0.0214339
0.0214569
0.0214811
0.0215066
0.0215333
0.0215612
0.0215901
0.0216201
0.0216509
0.0216823
0.0217143
0.0217465
0.0217788
0.021811
0.0218427
0.0218736
0.0219036
0.0219324
0.0219578
0.024966
0.017029
0.011559
0.0083344
0.00718515
0.00746836
0.008455
0.00967289
0.0108973
0.0120408
0.0130773
0.0140053
0.014833
0.0155712
0.0162309
0.0168222
0.0173542
0.0178345
0.01827
0.0186661
0.0190279
0.0193593
0.0196641
0.0199451
0.020205
0.0204461
0.0206704
0.0208795
0.0210749
0.021258
0.0214298
0.0215915
0.0217439
0.0218879
0.022024
0.0221531
0.0222755
0.022392
0.0225029
0.0226086
0.0227095
0.022806
0.0228984
0.0229869
0.0230718
0.0231535
0.0232319
0.0233075
0.0233803
0.0234505
0.0235184
0.0235839
0.0236473
0.0237087
0.0237682
0.0238259
0.0238818
0.0239362
0.023989
0.0240404
0.0240905
0.0241392
0.0241867
0.024233
0.0242783
0.0243225
0.0243657
0.024408
0.0244495
0.0244901
0.0245299
0.0245689
0.0246072
0.0246448
0.0246816
0.0247177
0.0247531
0.0247876
0.0248214
0.0248543
0.0248864
0.0249175
0.0249477
0.024977
0.0250053
0.0250326
0.025059
0.0250845
0.0251091
0.0251329
0.0251561
0.0251786
0.0252008
0.0252226
0.0252443
0.0252661
0.025288
0.0253104
0.0253333
0.0253569
0.0253814
0.025407
0.0254336
0.0254615
0.0254908
0.0255214
0.0255533
0.0255867
0.0256213
0.0256573
0.0256943
0.0257323
0.0257712
0.0258106
0.0258505
0.0258904
0.0259303
0.0259697
0.0260083
0.0260458
0.0260821
0.0261145
0.0288721
0.0219727
0.0163572
0.0121026
0.00944208
0.00839318
0.00856599
0.00943681
0.0106072
0.0118514
0.0130626
0.0141965
0.0152393
0.0161903
0.0170549
0.0178406
0.0185555
0.0192071
0.0198026
0.0203481
0.0208492
0.0213109
0.0217373
0.0221322
0.0224988
0.02284
0.0231583
0.0234559
0.0237348
0.0239966
0.024243
0.0244751
0.0246943
0.0249016
0.025098
0.0252843
0.0254614
0.0256298
0.0257904
0.0259436
0.0260899
0.0262299
0.026364
0.0264925
0.0266159
0.0267344
0.0268484
0.0269581
0.0270639
0.0271659
0.0272644
0.0273595
0.0274515
0.0275406
0.0276268
0.0277104
0.0277915
0.0278702
0.0279467
0.028021
0.0280933
0.0281636
0.0282321
0.0282989
0.0283641
0.0284277
0.0284898
0.0285505
0.0286099
0.028668
0.0287249
0.0287806
0.0288352
0.0288887
0.0289411
0.0289925
0.0290427
0.0290919
0.0291399
0.0291868
0.0292325
0.0292771
0.0293203
0.0293623
0.029403
0.0294425
0.0294806
0.0295176
0.0295534
0.0295881
0.0296218
0.0296546
0.0296867
0.0297182
0.0297493
0.0297802
0.0298112
0.0298423
0.0298737
0.0299058
0.0299386
0.0299724
0.0300073
0.0300434
0.0300808
0.0301196
0.0301599
0.0302016
0.0302447
0.0302892
0.0303349
0.0303817
0.0304295
0.0304779
0.0305268
0.0305759
0.0306249
0.0306735
0.0307213
0.0307678
0.030813
0.0308537
0.0318859
0.0265354
0.0215162
0.0170871
0.0134893
0.0110289
0.00983786
0.0097379
0.0103766
0.011418
0.0126294
0.0138773
0.0150935
0.0162465
0.0173241
0.0183239
0.0192482
0.0201018
0.0208901
0.0216189
0.0222936
0.0229193
0.0235006
0.0240417
0.0245463
0.025018
0.0254596
0.0258739
0.0262632
0.0266297
0.0269754
0.0273019
0.0276108
0.0279035
0.0281812
0.0284451
0.0286963
0.0289356
0.0291638
0.0293819
0.0295903
0.0297899
0.0299812
0.0301647
0.0303409
0.0305103
0.0306732
0.0308302
0.0309814
0.0311274
0.0312683
0.0314044
0.031536
0.0316634
0.0317868
0.0319063
0.0320223
0.0321348
0.0322441
0.0323502
0.0324534
0.0325539
0.0326516
0.0327468
0.0328397
0.0329302
0.0330186
0.0331048
0.0331892
0.0332716
0.0333523
0.0334312
0.0335084
0.0335841
0.0336581
0.0337306
0.0338016
0.033871
0.0339389
0.0340052
0.0340699
0.0341329
0.0341944
0.0342541
0.0343122
0.0343686
0.0344233
0.0344764
0.0345279
0.0345779
0.0346265
0.0346738
0.03472
0.0347653
0.0348097
0.0348536
0.0348972
0.0349406
0.0349841
0.0350279
0.0350723
0.0351174
0.0351634
0.0352105
0.0352588
0.0353085
0.0353595
0.0354119
0.0354658
0.035521
0.0355775
0.0356352
0.0356938
0.0357532
0.035813
0.0358731
0.0359331
0.0359926
0.0360513
0.0361086
0.0361645
0.0362153
0.0339568
0.0302574
0.0262964
0.0224018
0.0187493
0.0155657
0.0131348
0.01166
0.0111401
0.0113925
0.0121663
0.0132379
0.014448
0.0156984
0.0169334
0.0181236
0.0192548
0.0203216
0.0213231
0.0222613
0.0231394
0.0239613
0.0247308
0.0254521
0.0261288
0.0267645
0.0273626
0.027926
0.0284574
0.0289594
0.0294343
0.0298842
0.0303109
0.0307161
0.0311015
0.0314684
0.0318181
0.0321519
0.0324707
0.0327757
0.0330677
0.0333476
0.033616
0.0338738
0.0341216
0.0343599
0.0345894
0.0348105
0.0350237
0.0352295
0.0354283
0.0356204
0.0358062
0.0359861
0.0361603
0.0363292
0.0364929
0.0366518
0.0368061
0.0369561
0.0371018
0.0372436
0.0373816
0.0375159
0.0376469
0.0377745
0.037899
0.0380206
0.0381393
0.0382552
0.0383686
0.0384795
0.038588
0.0386941
0.038798
0.0388996
0.0389991
0.0390964
0.0391916
0.0392846
0.0393755
0.0394642
0.0395507
0.039635
0.0397171
0.039797
0.0398747
0.0399502
0.0400236
0.040095
0.0401644
0.0402321
0.0402981
0.0403626
0.0404258
0.0404879
0.0405492
0.0406099
0.0406703
0.0407305
0.0407908
0.0408515
0.0409128
0.0409749
0.0410379
0.041102
0.0411672
0.0412338
0.0413015
0.0413706
0.0414408
0.0415121
0.0415842
0.0416571
0.0417304
0.0418039
0.0418772
0.04195
0.0420218
0.0420921
0.0421608
0.0422239
0.0352156
0.0329264
0.0301548
0.0271692
0.0241079
0.0210828
0.0182539
0.0158401
0.0140585
0.0130304
0.012737
0.0130508
0.0138009
0.0148263
0.0160022
0.0172434
0.018496
0.0197278
0.0209204
0.0220639
0.0231539
0.024189
0.0251702
0.026099
0.026978
0.0278099
0.0285976
0.0293438
0.0300513
0.0307226
0.0313602
0.0319664
0.0325433
0.0330929
0.0336169
0.0341171
0.034595
0.035052
0.0354895
0.0359086
0.0363106
0.0366965
0.0370671
0.0374235
0.0377664
0.0380967
0.0384149
0.0387219
0.0390181
0.0393043
0.0395808
0.0398483
0.0401072
0.0403578
0.0406007
0.0408363
0.0410647
0.0412865
0.0415019
0.0417112
0.0419147
0.0421127
0.0423054
0.0424931
0.0426759
0.0428541
0.0430279
0.0431975
0.0433631
0.0435248
0.0436829
0.0438374
0.0439885
0.0441363
0.0442809
0.0444224
0.0445608
0.0446963
0.0448288
0.0449584
0.0450851
0.0452089
0.0453297
0.0454477
0.0455627
0.0456749
0.0457842
0.0458906
0.0459942
0.0460951
0.0461934
0.0462892
0.0463827
0.046474
0.0465633
0.0466508
0.0467368
0.0468216
0.0469053
0.0469883
0.0470708
0.0471531
0.0472354
0.047318
0.047401
0.0474846
0.047569
0.0476542
0.0477404
0.0478275
0.0479154
0.0480042
0.0480937
0.0481836
0.0482738
0.0483639
0.0484536
0.0485427
0.0486305
0.0487167
0.0488011
0.0488791
0.0358864
0.034593
0.0328633
0.0308401
0.0286213
0.0262674
0.0238358
0.0214144
0.0191386
0.0171788
0.0156958
0.0147878
0.0144645
0.0146594
0.0152639
0.0161609
0.0172464
0.01844
0.0196844
0.0209414
0.0221859
0.0234025
0.0245816
0.025718
0.0268092
0.0278544
0.0288542
0.0298096
0.0307222
0.0315939
0.0324266
0.0332223
0.0339831
0.0347108
0.0354074
0.0360745
0.0367138
0.037327
0.0379155
0.0384807
0.0390239
0.0395464
0.0400493
0.0405336
0.0410004
0.0414506
0.041885
0.0423046
0.04271
0.043102
0.0434813
0.0438484
0.044204
0.0445487
0.0448829
0.0452071
0.0455219
0.0458276
0.0461247
0.0464135
0.0466944
0.0469677
0.0472338
0.0474931
0.0477457
0.0479919
0.0482321
0.0484665
0.0486954
0.0489189
0.0491373
0.0493507
0.0495595
0.0497637
0.0499634
0.0501588
0.0503499
0.050537
0.0507201
0.0508993
0.0510745
0.0512459
0.0514134
0.051577
0.0517369
0.051893
0.0520452
0.0521938
0.0523387
0.05248
0.0526178
0.0527522
0.0528833
0.0530114
0.0531367
0.0532592
0.0533794
0.0534973
0.0536134
0.0537278
0.0538409
0.0539529
0.0540642
0.0541748
0.0542852
0.0543954
0.0545057
0.0546161
0.0547269
0.0548379
0.0549493
0.055061
0.0551729
0.0552848
0.0553965
0.0555077
0.0556182
0.0557276
0.0558354
0.0559412
0.0560449
0.0561414
0.0361963
0.0354884
0.0345011
0.0332718
0.0318469
0.0302605
0.0285351
0.0266917
0.024764
0.0228124
0.0209309
0.0192398
0.0178631
0.0168966
0.0163857
0.0163216
0.0166534
0.0173069
0.0182017
0.0192644
0.020434
0.0216643
0.0229216
0.0241827
0.0254314
0.0266568
0.0278519
0.0290123
0.0301354
0.0312203
0.0322666
0.0332747
0.0342455
0.03518
0.0360795
0.0369453
0.0377788
0.0385814
0.0393547
0.0400998
0.0408182
0.0415111
0.0421797
0.0428252
0.0434488
0.0440514
0.044634
0.0451977
0.0457433
0.0462716
0.0467835
0.0472797
0.047761
0.0482279
0.0486811
0.0491213
0.049549
0.0499648
0.0503691
0.0507625
0.0511454
0.0515183
0.0518815
0.0522354
0.0525805
0.052917
0.0532454
0.0535659
0.0538789
0.0541847
0.0544835
0.0547757
0.0550613
0.0553408
0.0556143
0.0558819
0.0561438
0.0564
0.0566508
0.0568964
0.0571367
0.057372
0.0576021
0.0578272
0.0580473
0.0582625
0.0584727
0.0586781
0.0588787
0.0590746
0.0592658
0.0594526
0.0596349
0.0598131
0.0599872
0.0601575
0.0603242
0.0604876
0.0606479
0.0608054
0.0609604
0.0611131
0.0612639
0.061413
0.0615606
0.0617071
0.0618525
0.0619971
0.062141
0.0622842
0.0624269
0.062569
0.0627104
0.062851
0.0629907
0.0631293
0.0632663
0.0634017
0.0635348
0.0636653
0.0637932
0.0639132
0.0363185
0.0358964
0.035342
0.0346443
0.0338099
0.0328502
0.0317745
0.0305881
0.0292942
0.0278982
0.0264145
0.0248739
0.0233287
0.0218531
0.0205352
0.0194615
0.0187
0.018288
0.0182293
0.0184992
0.0190539
0.0198402
0.020804
0.0218958
0.0230737
0.0243048
0.0255638
0.0268322
0.0280965
0.0293469
0.0305766
0.0317807
0.0329559
0.0341003
0.0352127
0.0362927
0.0373403
0.0383559
0.03934
0.0402934
0.041217
0.0421116
0.0429783
0.043818
0.0446317
0.0454205
0.0461854
0.0469272
0.0476469
0.0483454
0.0490236
0.0496821
0.050322
0.0509438
0.0515484
0.0521365
0.0527086
0.0532655
0.0538077
0.0543358
0.0548504
0.0553519
0.0558409
0.0563178
0.0567832
0.0572374
0.0576808
0.058114
0.0585371
0.0589507
0.0593551
0.0597506
0.0601375
0.0605161
0.0608866
0.0612494
0.0616047
0.0619525
0.0622931
0.0626266
0.0629532
0.063273
0.0635862
0.0638929
0.064193
0.0644868
0.0647742
0.0650553
0.0653302
0.0655989
0.0658617
0.0661185
0.0663695
0.0666148
0.0668547
0.0670893
0.0673188
0.0675435
0.0677636
0.0679793
0.068191
0.068399
0.0686034
0.0688047
0.0690029
0.0691984
0.0693915
0.0695822
0.0697708
0.0699573
0.0701419
0.0703245
0.0705053
0.070684
0.0708606
0.0710349
0.0712066
0.0713756
0.0715414
0.0717036
0.0718623
0.0720123
0.0363591
0.0360515
0.0357024
0.0352937
0.0348163
0.0342669
0.0336458
0.0329534
0.032189
0.0313505
0.0304344
0.0294384
0.0283636
0.0272185
0.0260225
0.0248094
0.0236274
0.0225355
0.0215963
0.0208663
0.020387
0.0201807
0.0202495
0.0205783
0.0211397
0.021899
0.0228189
0.0238634
0.0249997
0.0262001
0.0274421
0.0287078
0.0299836
0.0312592
0.0325266
0.0337799
0.0350148
0.0362278
0.0374167
0.0385799
0.0397164
0.0408257
0.0419076
0.0429622
0.0439899
0.044991
0.0459661
0.0469156
0.0478403
0.0487407
0.0496176
0.0504717
0.0513037
0.0521144
0.0529043
0.0536743
0.054425
0.0551571
0.0558711
0.0565678
0.0572476
0.0579111
0.0585589
0.0591916
0.0598096
0.0604135
0.0610037
0.0615808
0.0621451
0.0626971
0.0632372
0.0637658
0.0642833
0.06479
0.0652863
0.0657725
0.0662488
0.0667155
0.0671729
0.0676211
0.0680603
0.0684906
0.0689123
0.0693256
0.0697306
0.0701273
0.0705159
0.0708964
0.0712689
0.0716336
0.0719905
0.0723397
0.0726814
0.0730156
0.0733426
0.0736625
0.0739754
0.0742817
0.0745815
0.074875
0.0751626
0.0754444
0.0757207
0.0759919
0.076258
0.0765195
0.0767764
0.077029
0.0772775
0.077522
0.0777627
0.0779996
0.0782327
0.078462
0.0786874
0.0789089
0.0791262
0.0793392
0.0795476
0.079751
0.0799498
0.0801387
0.0363702
0.0360998
0.0358287
0.035546
0.0352425