/*--------------------------------*- C++ -*----------------------------------*\
  =========                 |
  \\      /  F ield         | OpenFOAM: The Open Source CFD Toolbox
   \\    /   O peration     | Website:  https://openfoam.org
    \\  /    A nd           | Version:  8
     \\/     M anipulation  |
\*---------------------------------------------------------------------------*/
FoamFile
{
    version     2.0;
    format      ascii;
    class       volScalarField;
    location    "950";
    object      p;
}
// * * * * * * * * * * * * * * * * * * * * * * * * * * * * * * * * * * * * * //

dimensions      [0 2 -2 0 0 0 0];

internalField   nonuniform List<scalar> 
7320
(
159.588
153.731
151.821
150.036
148.327
146.632
144.968
143.343
141.752
140.185
138.641
137.118
135.612
134.123
132.649
131.189
129.742
128.306
126.882
125.468
124.063
122.668
121.281
119.902
118.532
117.168
115.812
114.462
113.118
111.781
110.45
109.124
107.804
106.489
105.179
103.873
102.573
101.277
99.9849
98.6974
97.414
96.1345
94.8589
93.587
92.3187
91.0539
89.7925
88.5344
87.2796
86.0279
84.7792
83.5335
82.2907
81.0507
79.8134
78.5789
77.3469
76.1176
74.8907
73.6662
72.4441
71.2244
70.0069
68.7917
67.5786
66.3676
65.1587
63.9519
62.747
61.5441
60.343
59.1439
57.9465
56.7509
55.5571
54.365
53.1745
51.9857
50.7984
49.6128
48.4287
47.2461
46.0649
44.8852
43.7069
42.53
41.3545
40.1802
39.0072
37.8354
36.6649
35.4954
34.3271
33.1598
31.9935
30.8281
29.6636
28.4999
27.337
26.1747
25.013
23.8518
22.6911
21.5307
20.3705
19.2105
18.0506
16.8906
15.7305
14.5701
13.4095
12.2483
11.0867
9.9244
8.76141
7.59754
6.43278
5.26704
4.10016
2.93259
1.7623
0.605838
158.789
153.718
151.821
150.036
148.327
146.632
144.968
143.344
141.752
140.185
138.641
137.118
135.612
134.123
132.649
131.189
129.742
128.306
126.882
125.468
124.063
122.668
121.281
119.902
118.532
117.168
115.812
114.462
113.118
111.781
110.45
109.124
107.804
106.489
105.179
103.873
102.573
101.277
99.9849
98.6974
97.414
96.1346
94.8589
93.587
92.3187
91.0539
89.7925
88.5344
87.2796
86.0279
84.7792
83.5335
82.2907
81.0507
79.8134
78.5789
77.3469
76.1176
74.8907
73.6662
72.4441
71.2244
70.0069
68.7917
67.5786
66.3676
65.1587
63.9519
62.747
61.5441
60.343
59.1438
57.9465
56.7509
55.5571
54.3649
53.1745
51.9857
50.7984
49.6128
48.4287
47.2461
46.0649
44.8852
43.7069
42.53
41.3545
40.1802
39.0072
37.8354
36.6649
35.4954
34.3271
33.1598
31.9935
30.8281
29.6636
28.4999
27.337
26.1747
25.013
23.8518
22.6911
21.5307
20.3705
19.2105
18.0506
16.8906
15.7305
14.5701
13.4095
12.2483
11.0867
9.9244
8.76141
7.59754
6.43278
5.26703
4.10016
2.93259
1.7623
0.605836
158.584
153.723
151.823
150.037
148.328
146.632
144.968
143.344
141.752
140.185
138.642
137.118
135.612
134.123
132.65
131.189
129.742
128.306
126.882
125.468
124.063
122.668
121.281
119.902
118.532
117.168
115.812
114.462
113.118
111.781
110.45
109.124
107.804
106.489
105.179
103.873
102.573
101.277
99.9849
98.6974
97.414
96.1346
94.8589
93.587
92.3187
91.0539
89.7925
88.5345
87.2796
86.0279
84.7792
83.5335
82.2907
81.0507
79.8134
78.5789
77.3469
76.1176
74.8907
73.6662
72.4441
71.2244
70.0069
68.7917
67.5786
66.3676
65.1587
63.9519
62.747
61.5441
60.343
59.1438
57.9465
56.7509
55.5571
54.3649
53.1745
51.9857
50.7984
49.6128
48.4287
47.2461
46.0649
44.8852
43.7069
42.53
41.3545
40.1802
39.0072
37.8354
36.6648
35.4954
34.3271
33.1598
31.9935
30.8281
29.6636
28.4999
27.337
26.1747
25.013
23.8518
22.6911
21.5307
20.3705
19.2105
18.0506
16.8906
15.7305
14.5701
13.4095
12.2483
11.0867
9.9244
8.7614
7.59753
6.43277
5.26703
4.10015
2.93259
1.76229
0.605834
158.57
153.73
151.824
150.038
148.329
146.633
144.968
143.344
141.752
140.186
138.642
137.118
135.613
134.124
132.65
131.189
129.742
128.307
126.882
125.468
124.063
122.668
121.281
119.903
118.532
117.168
115.812
114.462
113.119
111.781
110.45
109.124
107.804
106.489
105.179
103.873
102.573
101.277
99.985
98.6975
97.414
96.1346
94.859
93.587
92.3187
91.0539
89.7926
88.5345
87.2796
86.0279
84.7792
83.5335
82.2907
81.0507
79.8134
78.5789
77.3469
76.1176
74.8907
73.6662
72.4441
71.2244
70.0069
68.7917
67.5786
66.3676
65.1587
63.9519
62.747
61.5441
60.343
59.1438
57.9465
56.7509
55.5571
54.3649
53.1745
51.9857
50.7984
49.6128
48.4287
47.2461
46.0649
44.8852
43.7069
42.53
41.3545
40.1802
39.0072
37.8354
36.6648
35.4954
34.327
33.1597
31.9935
30.8281
29.6636
28.4999
27.337
26.1747
25.013
23.8518
22.6911
21.5307
20.3705
19.2105
18.0506
16.8906
15.7305
14.5701
13.4095
12.2483
11.0867
9.92439
8.76139
7.59753
6.43277
5.26702
4.10014
2.93258
1.76228
0.60583
158.543
153.735
151.826
150.039
148.329
146.633
144.969
143.345
141.752
140.186
138.642
137.118
135.613
134.124
132.65
131.19
129.742
128.307
126.882
125.468
124.063
122.668
121.281
119.903
118.532
117.168
115.812
114.462
113.119
111.781
110.45
109.124
107.804
106.489
105.179
103.873
102.573
101.277
99.985
98.6975
97.4141
96.1346
94.859
93.5871
92.3188
91.054
89.7926
88.5345
87.2796
86.0279
84.7792
83.5335
82.2907
81.0507
79.8135
78.5789
77.347
76.1176
74.8907
73.6662
72.4441
71.2244
70.0069
68.7917
67.5786
66.3676
65.1587
63.9519
62.747
61.5441
60.343
59.1438
57.9465
56.7509
55.5571
54.3649
53.1745
51.9857
50.7984
49.6128
48.4287
47.2461
46.0649
44.8852
43.7069
42.53
41.3544
40.1802
39.0072
37.8354
36.6648
35.4954
34.327
33.1597
31.9935
30.8281
29.6636
28.4999
27.337
26.1747
25.013
23.8518
22.6911
21.5307
20.3705
19.2105
18.0506
16.8906
15.7305
14.5701
13.4095
12.2483
11.0867
9.92438
8.76139
7.59752
6.43276
5.26701
4.10014
2.93257
1.76228
0.605825
158.501
153.739
151.829
150.041
148.33
146.634
144.97
143.345
141.753
140.186
138.642
137.119
135.613
134.124
132.65
131.19
129.742
128.307
126.882
125.468
124.063
122.668
121.281
119.903
118.532
117.168
115.812
114.462
113.119
111.781
110.45
109.124
107.804
106.489
105.179
103.873
102.573
101.277
99.985
98.6975
97.4141
96.1346
94.859
93.5871
92.3188
91.054
89.7926
88.5345
87.2796
86.0279
84.7792
83.5335
82.2907
81.0507
79.8135
78.5789
77.347
76.1176
74.8907
73.6662
72.4441
71.2244
70.0069
68.7917
67.5786
66.3676
65.1587
63.9519
62.747
61.5441
60.343
59.1438
57.9465
56.7509
55.5571
54.3649
53.1745
51.9856
50.7984
49.6128
48.4287
47.246
46.0649
44.8852
43.7069
42.53
41.3544
40.1802
39.0072
37.8354
36.6648
35.4954
34.327
33.1597
31.9934
30.8281
29.6636
28.4999
27.337
26.1747
25.013
23.8518
22.6911
21.5306
20.3705
19.2105
18.0506
16.8906
15.7305
14.5701
13.4095
12.2483
11.0867
9.92437
8.76138
7.59751
6.43275
5.267
4.10013
2.93256
1.76227
0.605819
158.466
153.744
151.831
150.043
148.332
146.635
144.97
143.346
141.753
140.187
138.643
137.119
135.613
134.124
132.65
131.19
129.743
128.307
126.882
125.468
124.064
122.668
121.281
119.903
118.532
117.168
115.812
114.462
113.119
111.781
110.45
109.124
107.804
106.489
105.179
103.873
102.573
101.277
99.9851
98.6976
97.4141
96.1347
94.859
93.5871
92.3188
91.054
89.7926
88.5345
87.2797
86.0279
84.7792
83.5335
82.2907
81.0507
79.8135
78.5789
77.347
76.1176
74.8907
73.6662
72.4442
71.2244
70.0069
68.7917
67.5786
66.3676
65.1587
63.9519
62.747
61.5441
60.343
59.1438
57.9465
56.7509
55.5571
54.3649
53.1745
51.9856
50.7984
49.6128
48.4287
47.246
46.0649
44.8852
43.7069
42.53
41.3544
40.1802
39.0072
37.8354
36.6648
35.4954
34.327
33.1597
31.9934
30.828
29.6636
28.4999
27.337
26.1746
25.013
23.8518
22.6911
21.5306
20.3705
19.2105
18.0506
16.8906
15.7305
14.5701
13.4094
12.2483
11.0866
9.92436
8.76136
7.5975
6.43273
5.26699
4.10011
2.93255
1.76225
0.60581
158.438
153.749
151.834
150.045
148.333
146.636
144.971
143.347
141.754
140.187
138.643
137.119
135.614
134.125
132.651
131.19
129.743
128.307
126.883
125.468
124.064
122.668
121.282
119.903
118.532
117.169
115.812
114.462
113.119
111.782
110.45
109.124
107.804
106.489
105.179
103.874
102.573
101.277
99.9851
98.6976
97.4142
96.1347
94.8591
93.5872
92.3188
91.054
89.7926
88.5346
87.2797
86.028
84.7793
83.5336
82.2907
81.0507
79.8135
78.5789
77.347
76.1176
74.8907
73.6662
72.4442
71.2244
70.0069
68.7917
67.5786
66.3676
65.1587
63.9519
62.747
61.5441
60.343
59.1438
57.9465
56.7509
55.5571
54.3649
53.1745
51.9856
50.7984
49.6128
48.4286
47.246
46.0649
44.8852
43.7069
42.53
41.3544
40.1801
39.0071
37.8354
36.6648
35.4953
34.327
33.1597
31.9934
30.828
29.6635
28.4999
27.3369
26.1746
25.013
23.8518
22.6911
21.5306
20.3705
19.2105
18.0506
16.8906
15.7304
14.5701
13.4094
12.2483
11.0866
9.92434
8.76135
7.59748
6.43272
5.26698
4.1001
2.93253
1.76224
0.605799
158.416
153.755
151.836
150.047
148.335
146.638
144.973
143.348
141.755
140.188
138.644
137.12
135.614
134.125
132.651
131.191
129.743
128.307
126.883
125.469
124.064
122.669
121.282
119.903
118.532
117.169
115.812
114.462
113.119
111.782
110.45
109.125
107.804
106.489
105.179
103.874
102.573
101.277
99.9852
98.6977
97.4142
96.1348
94.8591
93.5872
92.3189
91.0541
89.7927
88.5346
87.2797
86.028
84.7793
83.5336
82.2908
81.0508
79.8135
78.579
77.347
76.1176
74.8907
73.6663
72.4442
71.2244
70.0069
68.7917
67.5786
66.3676
65.1587
63.9519
62.747
61.5441
60.343
59.1438
57.9465
56.7509
55.5571
54.3649
53.1745
51.9856
50.7984
49.6128
48.4286
47.246
46.0649
44.8852
43.7069
42.53
41.3544
40.1801
39.0071
37.8354
36.6648
35.4953
34.327
33.1597
31.9934
30.828
29.6635
28.4998
27.3369
26.1746
25.0129
23.8518
22.691
21.5306
20.3705
19.2105
18.0506
16.8905
15.7304
14.5701
13.4094
12.2483
11.0866
9.92432
8.76133
7.59746
6.4327
5.26696
4.10008
2.93252
1.76222
0.605784
158.396
153.762
151.839
150.05
148.337
146.64
144.974
143.349
141.756
140.189
138.645
137.121
135.615
134.126
132.651
131.191
129.744
128.308
126.883
125.469
124.064
122.669
121.282
119.903
118.532
117.169
115.812
114.463
113.119
111.782
110.45
109.125
107.804
106.489
105.179
103.874
102.573
101.277
99.9853
98.6978
97.4143
96.1348
94.8592
93.5873
92.319
91.0541
89.7927
88.5346
87.2798
86.028
84.7793
83.5336
82.2908
81.0508
79.8136
78.579
77.347
76.1176
74.8907
73.6663
72.4442
71.2244
70.007
68.7917
67.5786
66.3676
65.1587
63.9519
62.747
61.5441
60.343
59.1438
57.9465
56.7509
55.5571
54.3649
53.1745
51.9856
50.7984
49.6127
48.4286
47.246
46.0649
44.8852
43.7069
42.53
41.3544
40.1801
39.0071
37.8353
36.6648
35.4953
34.327
33.1597
31.9934
30.828
29.6635
28.4998
27.3369
26.1746
25.0129
23.8517
22.691
21.5306
20.3704
19.2104
18.0505
16.8905
15.7304
14.57
13.4094
12.2482
11.0866
9.9243
8.76131
7.59744
6.43268
5.26694
4.10006
2.93249
1.7622
0.605765
158.376
153.77
151.841
150.052
148.34
146.642
144.976
143.35
141.757
140.19
138.646
137.121
135.616
134.126
132.652
131.192
129.744
128.308
126.884
125.469
124.065
122.669
121.282
119.904
118.533
117.169
115.813
114.463
113.119
111.782
110.451
109.125
107.804
106.489
105.179
103.874
102.573
101.277
99.9854
98.6979
97.4144
96.1349
94.8593
93.5874
92.319
91.0542
89.7928
88.5347
87.2798
86.0281
84.7794
83.5337
82.2909
81.0508
79.8136
78.579
77.3471
76.1177
74.8908
73.6663
72.4442
71.2245
70.007
68.7917
67.5786
66.3677
65.1588
63.9519
62.747
61.5441
60.343
59.1438
57.9465
56.7509
55.5571
54.3649
53.1745
51.9856
50.7984
49.6127
48.4286
47.246
46.0649
44.8852
43.7069
42.5299
41.3544
40.1801
39.0071
37.8353
36.6647
35.4953
34.3269
33.1596
31.9934
30.828
29.6635
28.4998
27.3369
26.1746
25.0129
23.8517
22.691
21.5306
20.3704
19.2104
18.0505
16.8905
15.7304
14.57
13.4094
12.2482
11.0866
9.92428
8.76129
7.59742
6.43266
5.26691
4.10003
2.93247
1.76217
0.605739
158.353
153.78
151.843
150.054
148.342
146.644
144.978
143.352
141.759
140.191
138.647
137.122
135.616
134.127
132.653
131.192
129.745
128.309
126.884
125.47
124.065
122.67
121.283
119.904
118.533
117.169
115.813
114.463
113.12
111.782
110.451
109.125
107.805
106.489
105.179
103.874
102.573
101.277
99.9855
98.698
97.4146
96.1351
94.8594
93.5875
92.3191
91.0543
89.7929
88.5348
87.2799
86.0282
84.7795
83.5337
82.2909
81.0509
79.8136
78.5791
77.3471
76.1177
74.8908
73.6663
72.4443
71.2245
70.007
68.7917
67.5786
66.3677
65.1588
63.9519
62.747
61.5441
60.343
59.1439
57.9465
56.7509
55.5571
54.3649
53.1745
51.9856
50.7984
49.6127
48.4286
47.246
46.0649
44.8851
43.7069
42.5299
41.3544
40.1801
39.0071
37.8353
36.6647
35.4953
34.3269
33.1596
31.9933
30.8279
29.6635
28.4998
27.3369
26.1745
25.0129
23.8517
22.691
21.5305
20.3704
19.2104
18.0505
16.8905
15.7304
14.57
13.4093
12.2482
11.0865
9.92425
8.76126
7.59739
6.43263
5.26688
4.1
2.93244
1.76214
0.605706
158.327
153.79
151.845
150.056
148.344
146.646
144.98
143.354
141.76
140.193
138.648
137.124
135.618
134.128
132.654
131.193
129.745
128.31
126.885
125.47
124.066
122.67
121.283
119.904
118.533
117.17
115.813
114.463
113.12
111.783
110.451
109.125
107.805
106.49
105.18
103.874
102.574
101.277
99.9857
98.6982
97.4147
96.1352
94.8595
93.5876
92.3193
91.0544
89.793
88.5349
87.28
86.0283
84.7796
83.5338
82.291
81.051
79.8137
78.5791
77.3472
76.1178
74.8909
73.6664
72.4443
71.2245
70.007
68.7918
67.5787
66.3677
65.1588
63.9519
62.747
61.5441
60.3431
59.1439
57.9465
56.7509
55.5571
54.3649
53.1745
51.9856
50.7984
49.6127
48.4286
47.246
46.0648
44.8851
43.7068
42.5299
41.3543
40.1801
39.0071
37.8353
36.6647
35.4952
34.3269
33.1596
31.9933
30.8279
29.6634
28.4997
27.3368
26.1745
25.0128
23.8517
22.6909
21.5305
20.3704
19.2104
18.0505
16.8904
15.7303
14.57
13.4093
12.2482
11.0865
9.92422
8.76123
7.59736
6.43259
5.26685
4.09997
2.9324
1.7621
0.60566
158.296
153.802
151.846
150.058
148.346
146.648
144.982
143.356
141.762
140.195
138.65
137.125
135.619
134.129
132.655
131.194
129.746
128.31
126.886
125.471
124.066
122.671
121.284
119.905
118.534
117.17
115.814
114.464
113.12
111.783
110.451
109.126
107.805
106.49
105.18
103.875
102.574
101.278
99.9859
98.6984
97.4149
96.1354
94.8597
93.5878
92.3194
91.0546
89.7932
88.535
87.2801
86.0284
84.7797
83.5339
82.2911
81.0511
79.8138
78.5792
77.3473
76.1179
74.8909
73.6665
72.4444
71.2246
70.0071
68.7918
67.5787
66.3677
65.1588
63.952
62.7471
61.5441
60.3431
59.1439
57.9465
56.7509
55.5571
54.3649
53.1745
51.9856
50.7984
49.6127
48.4286
47.246
46.0648
44.8851
43.7068
42.5299
41.3543
40.18
39.007
37.8353
36.6647
35.4952
34.3269
33.1596
31.9933
30.8279
29.6634
28.4997
27.3368
26.1745
25.0128
23.8516
22.6909
21.5305
20.3703
19.2103
18.0504
16.8904
15.7303
14.5699
13.4093
12.2481
11.0865
9.92418
8.76119
7.59732
6.43256
5.26681
4.09993
2.93236
1.76206
0.605599
158.261
153.816
151.847
150.059
148.347
146.65
144.984
143.358
141.764
140.196
138.651
137.127
135.62
134.131
132.656
131.195
129.747
128.311
126.886
125.472
124.067
122.671
121.284
119.906
118.535
117.171
115.814
114.464
113.121
111.783
110.452
109.126
107.806
106.49
105.18
103.875
102.574
101.278
99.9862
98.6987
97.4152
96.1356
94.86
93.588
92.3196
91.0548
89.7933
88.5352
87.2803
86.0285
84.7798
83.5341
82.2912
81.0512
79.8139
78.5793
77.3474
76.118
74.891
73.6666
72.4445
71.2247
70.0072
68.7919
67.5788
66.3678
65.1589
63.952
62.7471
61.5442
60.3431
59.1439
57.9466
56.751
55.5571
54.365
53.1745
51.9856
50.7984
49.6127
48.4286
47.246
46.0648
44.8851
43.7068
42.5299
41.3543
40.18
39.007
37.8352
36.6647
35.4952
34.3269
33.1595
31.9933
30.8279
29.6634
28.4997
27.3368
26.1744
25.0128
23.8516
22.6909
21.5304
20.3703
19.2103
18.0504
16.8904
15.7303
14.5699
13.4092
12.2481
11.0864
9.92414
8.76115
7.59728
6.43251
5.26676
4.09988
2.93231
1.76202
0.605516
158.219
153.832
151.848
150.06
148.349
146.651
144.985
143.36
141.766
140.198
138.653
137.128
135.622
134.132
132.657
131.197
129.749
128.313
126.888
125.473
124.068
122.672
121.285
119.906
118.535
117.172
115.815
114.465
113.121
111.784
110.452
109.127
107.806
106.491
105.181
103.875
102.575
101.278
99.9866
98.699
97.4155
96.136
94.8602
93.5883
92.3199
91.055
89.7936
88.5355
87.2805
86.0288
84.78
83.5343
82.2914
81.0514
79.8141
78.5795
77.3475
76.1181
74.8912
73.6667
72.4446
71.2248
70.0073
68.792
67.5789
66.3679
65.159
63.9521
62.7472
61.5442
60.3432
59.144
57.9466
56.751
55.5572
54.365
53.1745
51.9857
50.7984
49.6128
48.4286
47.246
46.0649
44.8851
43.7068
42.5299
41.3543
40.18
39.007
37.8352
36.6647
35.4952
34.3268
33.1595
31.9932
30.8278
29.6633
28.4997
27.3367
26.1744
25.0127
23.8516
22.6908
21.5304
20.3703
19.2103
18.0504
16.8903
15.7302
14.5698
13.4092
12.248
11.0864
9.9241
8.76111
7.59724
6.43247
5.26672
4.09984
2.93226
1.76197
0.605401
158.171
153.851
151.849
150.061
148.349
146.652
144.986
143.361
141.768
140.2
138.655
137.13
135.624
134.134
132.659
131.198
129.75
128.314
126.889
125.474
124.069
122.673
121.286
119.907
118.536
117.172
115.816
114.466
113.122
111.785
110.453
109.127
107.807
106.491
105.181
103.876
102.575
101.279
99.987
98.6994
97.4159
96.1363
94.8606
93.5886
92.3202
91.0554
89.7939
88.5357
87.2808
86.029
84.7803
83.5345
82.2916
81.0516
79.8143
78.5797
77.3477
76.1183
74.8913
73.6668
72.4447
71.2249
70.0074
68.7921
67.579
66.368
65.1591
63.9522
62.7473
61.5443
60.3433
59.1441
57.9467
56.7511
55.5572
54.3651
53.1746
51.9857
50.7985
49.6128
48.4287
47.246
46.0649
44.8852
43.7069
42.5299
41.3543
40.18
39.007
37.8352
36.6646
35.4952
34.3268
33.1595
31.9932
30.8278
29.6633
28.4996
27.3367
26.1744
25.0127
23.8515
22.6908
21.5304
20.3702
19.2102
18.0503
16.8903
15.7302
14.5698
13.4092
12.248
11.0864
9.92406
8.76107
7.59719
6.43242
5.26667
4.09979
2.93221
1.76191
0.605243
158.116
153.873
151.85
150.062
148.35
146.653
144.987
143.362
141.769
140.202
138.657
137.132
135.626
134.136
132.661
131.2
129.752
128.315
126.89
125.476
124.071
122.675
121.288
119.909
118.537
117.174
115.817
114.467
113.123
111.786
110.454
109.128
107.807
106.492
105.182
103.876
102.576
101.279
99.9876
98.7
97.4164
96.1368
94.8611
93.5891
92.3207
91.0558
89.7943
88.5361
87.2812
86.0294
84.7806
83.5348
82.292
81.0519
79.8146
78.58
77.348
76.1185
74.8916
73.6671
72.4449
71.2251
70.0076
68.7923
67.5792
66.3682
65.1593
63.9524
62.7474
61.5445
60.3434
59.1442
57.9468
56.7512
55.5573
54.3652
53.1747
51.9858
50.7986
49.6129
48.4287
47.2461
46.0649
44.8852
43.7069
42.53
41.3544
40.1801
39.007
37.8353
36.6647
35.4952
34.3268
33.1595
31.9932
30.8278
29.6633
28.4996
27.3367
26.1744
25.0127
23.8515
22.6908
21.5303
20.3702
19.2102
18.0503
16.8903
15.7301
14.5698
13.4091
12.248
11.0863
9.92401
8.76102
7.59715
6.43238
5.26662
4.09974
2.93215
1.76186
0.605022
158.052
153.9
151.852
150.063
148.351
146.653
144.988
143.362
141.769
140.202
138.658
137.133
135.627
134.137
132.662
131.202
129.753
128.317
126.892
125.477
124.072
122.676
121.289
119.91
118.539
117.175
115.818
114.468
113.124
111.787
110.455
109.129
107.808
106.493
105.183
103.877
102.576
101.28
99.9883
98.7007
97.4171
96.1375
94.8617
93.5897
92.3212
91.0563
89.7948
88.5366
87.2817
86.0298
84.7811
83.5353
82.2924
81.0523
79.815
78.5803
77.3483
76.1188
74.8919
73.6674
72.4452
71.2254
70.0079
68.7926
67.5794
66.3684
65.1595
63.9526
62.7476
61.5447
60.3436
59.1444
57.947
56.7513
55.5575
54.3653
53.1748
51.9859
50.7987
49.613
48.4288
47.2462
46.065
44.8853
43.707
42.53
41.3544
40.1801
39.0071
37.8353
36.6647
35.4952
34.3269
33.1595
31.9932
30.8278
29.6633
28.4996
27.3367
26.1744
25.0127
23.8515
22.6908
21.5303
20.3702
19.2102
18.0503
16.8902
15.7301
14.5697
13.4091
12.2479
11.0863
9.92398
8.76099
7.59711
6.43234
5.26658
4.09969
2.93209
1.76181
0.604715
157.979
153.93
151.853
150.065
148.352
146.654
144.988
143.363
141.77
140.203
138.658
137.134
135.628
134.138
132.664
131.203
129.755
128.319
126.894
125.479
124.074
122.678
121.29
119.911
118.54
117.176
115.819
114.469
113.125
111.788
110.456
109.13
107.809
106.494
105.184
103.878
102.577
101.281
99.9892
98.7015
97.4179
96.1382
94.8625
93.5904
92.3219
91.057
89.7955
88.5372
87.2823
86.0304
84.7816
83.5358
82.2929
81.0528
79.8154
78.5808
77.3487
76.1193
74.8923
73.6678
72.4456
71.2258
70.0082
68.7929
67.5798
66.3687
65.1598
63.9529
62.7479
61.5449
60.3438
59.1446
57.9472
56.7516
55.5577
54.3655
53.175
51.9861
50.7989
49.6132
48.429
47.2463
46.0652
44.8854
43.7071
42.5301
41.3545
40.1802
39.0072
37.8354
36.6648
35.4953
34.3269
33.1596
31.9933
30.8279
29.6634
28.4997
27.3367
26.1744
25.0127
23.8515
22.6908
21.5303
20.3702
19.2102
18.0503
16.8902
15.7301
14.5697
13.4091
12.2479
11.0863
9.92396
8.76096
7.59708
6.43231
5.26654
4.09965
2.93204
1.76177
0.604285
157.895
153.965
151.855
150.066
148.354
146.655
144.989
143.363
141.77
140.203
138.658
137.134
135.628
134.139
132.664
131.204
129.756
128.32
126.895
125.48
124.075
122.679
121.292
119.913
118.542
117.178
115.821
114.471
113.127
111.789
110.457
109.131
107.811
106.495
105.185
103.879
102.579
101.282
99.9902
98.7025
97.4189
96.1392
94.8634
93.5913
92.3228
91.0578
89.7963
88.538
87.283
86.0311
84.7823
83.5365
82.2935
81.0534
79.816
78.5814
77.3493
76.1198
74.8928
73.6683
72.4461
71.2263
70.0087
68.7934
67.5802
66.3691
65.1602
63.9532
62.7483
61.5453
60.3442
59.1449
57.9475
56.7519
55.558
54.3658
53.1753
51.9864
50.7991
49.6134
48.4292
47.2466
46.0654
44.8856
43.7073
42.5303
41.3547
40.1804
39.0073
37.8355
36.6649
35.4954
34.327
33.1597
31.9934
30.828
29.6635
28.4997
27.3368
26.1745
25.0128
23.8516
22.6908
21.5304
20.3702
19.2102
18.0503
16.8903
15.7301
14.5698
13.4091
12.2479
11.0863
9.92396
8.76096
7.59708
6.4323
5.26653
4.09964
2.932
1.76174
0.603686
157.8
154.005
151.857
150.068
148.356
146.656
144.99
143.364
141.771
140.203
138.659
137.134
135.628
134.139
132.665
131.204
129.756
128.321
126.896
125.481
124.076
122.681
121.293
119.914
118.543
117.179
115.822
114.472
113.128
111.791
110.459
109.133
107.812
106.497
105.186
103.881
102.58
101.283
99.9915
98.7037
97.42
96.1403
94.8645
93.5923
92.3238
91.0588
89.7972
88.539
87.2839
86.032
84.7832
83.5373
82.2944
81.0542
79.8168
78.5821
77.3501
76.1205
74.8935
73.6689
72.4468
71.2269
70.0093
68.7939
67.5808
66.3697
65.1607
63.9538
62.7488
61.5458
60.3447
59.1454
57.948
56.7523
55.5584
54.3662
53.1757
51.9868
50.7995
49.6138
48.4296
47.2469
46.0657
44.8859
43.7076
42.5306
41.355
40.1806
39.0076
37.8358
36.6651
35.4956
34.3272
33.1599
31.9936
30.8281
29.6636
28.4999
27.3369
26.1746
25.0129
23.8517
22.691
21.5305
20.3703
19.2103
18.0504
16.8903
15.7302
14.5698
13.4092
12.248
11.0863
9.92401
8.761
7.59711
6.43233
5.26655
4.09965
2.93199
1.76174
0.602854
157.693
154.049
151.86
150.07
148.358
146.658
144.991
143.365
141.772
140.204
138.659
137.135
135.629
134.139
132.665
131.204
129.757
128.321
126.896
125.481
124.077
122.681
121.294
119.915
118.544
117.18
115.824
114.474
113.13
111.792
110.46
109.134
107.814
106.498
105.188
103.882
102.581
101.285
99.9929
98.7051
97.4214
96.1416
94.8658
93.5936
92.3251
91.06
89.7984
88.5401
87.2851
86.0331
84.7843
83.5384
82.2954
81.0552
79.8178
78.5831
77.351
76.1214
74.8944
73.6698
72.4476
71.2277
70.0101
68.7947
67.5815
66.3704
65.1614
63.9544
62.7495
61.5464
60.3453
59.146
57.9486
56.7529
55.559
54.3667
53.1762
51.9873
50.8
49.6142
48.43
47.2473
46.0661
44.8864
43.708
42.531
41.3554
40.181
39.0079
37.8361
36.6655
35.496
34.3276
33.1602
31.9939
30.8284
29.6639
28.5001
27.3372
26.1748
25.0131
23.8519
22.6911
21.5307
20.3705
19.2105
18.0505
16.8905
15.7304
14.57
13.4093
12.2481
11.0864
9.92411
8.76109
7.5972
6.43241
5.26662
4.09971
2.93202
1.76177
0.601708
157.576
154.096
151.863
150.072
148.361
146.66
144.992
143.366
141.773
140.205
138.66
137.135
135.629
134.14
132.665
131.205
129.757
128.321
126.896
125.482
124.077
122.681
121.294
119.915
118.544
117.181
115.824
114.474
113.131
111.793
110.462
109.136
107.815
106.5
105.189
103.884
102.583
101.286
99.9944
98.7066
97.4229
96.1431
94.8672
93.595
92.3265
91.0614
89.7998
88.5415
87.2864
86.0344
84.7855
83.5396
82.2966
81.0564
79.819
78.5842
77.3521
76.1225
74.8955
73.6709
72.4486
71.2287
70.0111
68.7957
67.5824
66.3713
65.1623
63.9553
62.7503
61.5473
60.3461
59.1468
57.9493
56.7536
55.5597
54.3675
53.1769
51.988
50.8006
49.6149
48.4307
47.248
46.0667
44.8869
43.7086
42.5316
41.3559
40.1815
39.0085
37.8366
36.6659
35.4964
34.328
33.1606
31.9943
30.8288
29.6643
28.5005
27.3375
26.1752
25.0135
23.8522
22.6915
21.531
20.3708
19.2107
18.0508
16.8907
15.7306
14.5702
13.4095
12.2483
11.0866
9.9243
8.76127
7.59737
6.43257
5.26677
4.09985
2.93211
1.76186
0.600141
157.449
154.146
151.867
150.074
148.364
146.662
144.994
143.367
141.774
140.206
138.661
137.136
135.63
134.14
132.666
131.205
129.757
128.321
126.896
125.482
124.077
122.681
121.294
119.916
118.545
117.181
115.824
114.474
113.131
111.793
110.462
109.136
107.816
106.5
105.19
103.885
102.584
101.288
99.9957
98.708
97.4243
96.1446
94.8687
93.5966
92.328
91.0629
89.8013
88.543
87.2878
86.0359
84.787
83.541
82.298
81.0578
79.8203
78.5856
77.3534
76.1238
74.8968
73.6721
72.4499
71.2299
70.0123
68.7969
67.5836
66.3725
65.1634
63.9564
62.7514
61.5483
60.3471
59.1478
57.9503
56.7546
55.5607
54.3684
53.1778
51.9889
50.8015
49.6157
48.4315
47.2488
46.0675
44.8877
43.7093
42.5323
41.3566
40.1823
39.0092
37.8373
36.6666
35.4971
34.3286
33.1612
31.9949
30.8294
29.6648
28.5011
27.3381
26.1757
25.014
23.8527
22.6919
21.5314
20.3712
19.2112
18.0512
16.8911
15.731
14.5706
13.4099
12.2487
11.087
9.92461
8.76157
7.59766
6.43284
5.26703
4.1001
2.93229
1.76202
0.598034
157.316
154.197
151.872
150.075
148.367
146.665
144.996
143.369
141.775
140.207
138.662
137.137
135.631
134.141
132.666
131.206
129.758
128.322
126.897
125.482
124.077
122.682
121.295
119.916
118.545
117.181
115.824
114.474
113.131
111.793
110.462
109.136
107.816
106.5
105.19
103.885
102.584
101.288
99.9961
98.7085
97.425
96.1454
94.8697
93.5976
92.3292
91.0642
89.8027
88.5444
87.2893
86.0374
84.7885
83.5426
82.2996
81.0593
79.8219
78.5871
77.3549
76.1253
74.8982
73.6736
72.4513
71.2313
70.0137
68.7982
67.585
66.3738
65.1648
63.9577
62.7527
61.5496
60.3484
59.1491
57.9516
56.7558
55.5619
54.3696
53.179
51.99
50.8026
49.6169
48.4326
47.2499
46.0686
44.8888
43.7103
42.5333
41.3576
40.1832
39.0101
37.8382
36.6675
35.498
34.3295
33.1621
31.9957
30.8302
29.6656
28.5018
27.3388
26.1764
25.0147
23.8534
22.6926
21.5321
20.3719
19.2118
18.0518
16.8917
15.7315
14.5711
13.4104
12.2492
11.0874
9.92508
8.76202
7.59809
6.43326
5.26743
4.10048
2.9326
1.76227
0.595252
157.181
154.247
151.878
150.076
148.37
146.667
144.998
143.37
141.776
140.208
138.663
137.138
135.632
134.142
132.667
131.206
129.758
128.322
126.897
125.483
124.078
122.682
121.295
119.916
118.545
117.181
115.825
114.475
113.131
111.794
110.462
109.136
107.816
106.5
105.19
103.885
102.584
101.288
99.9961
98.7086
97.425
96.1455
94.8698
93.5978
92.3294
91.0645
89.8031
88.5449
87.29
86.0382
84.7894
83.5436
82.3007
81.0606
79.8232
78.5885
77.3564
76.1269
74.8998
73.6752
72.4529
71.233
70.0153
68.7999
67.5866
66.3754
65.1663
63.9593
62.7542
61.5511
60.3499
59.1505
57.953
56.7573
55.5633
54.371
53.1804
51.9914
50.804
49.6182
48.4339
47.2512
46.0699
44.89
43.7116
42.5346
41.3588
40.1844
39.0113
37.8394
36.6687
35.4991
34.3306
33.1632
31.9968
30.8313
29.6667
28.5029
27.3398
26.1774
25.0156
23.8543
22.6935
21.533
20.3727
19.2126
18.0526
16.8925
15.7323
14.5719
13.4111
12.2499
11.0881
9.92575
8.76266
7.59872
6.43386
5.26801
4.10103
2.93306
1.76263
0.591692
157.053
154.292
151.886
150.077
148.373
146.67
145
143.372
141.778
140.209
138.664
137.139
135.632
134.143
132.668
131.207
129.759
128.323
126.898
125.483
124.078
122.683
121.295
119.917
118.545
117.182
115.825
114.475
113.131
111.794
110.462
109.136
107.816
106.501
105.19
103.885
102.584
101.288
99.9963
98.7087
97.4251
96.1456
94.8698
93.5978
92.3295
91.0646
89.8031
88.5449
87.29
86.0382
84.7894
83.5437
82.3008
81.0607
79.8234
78.5888
77.3568
76.1274
74.9004
73.6759
72.4538
71.234
70.0164
68.8011
67.5879
66.3768
65.1678
63.9608
62.7558
61.5528
60.3516
59.1523
57.9547
56.759
55.565
54.3727
53.1821
51.9931
50.8057
49.6198
48.4355
47.2528
46.0714
44.8916
43.7131
42.536
41.3603
40.1859
39.0127
37.8408
36.6701
35.5005
34.332
33.1645
31.9981
30.8326
29.6679
28.5041
27.3411
26.1786
25.0168
23.8555
22.6947
21.5341
20.3738
19.2137
18.0537
16.8936
15.7333
14.5729
13.4121
12.2508
11.0891
9.92664
8.76353
7.59956
6.43468
5.2688
4.1018
2.93371
1.76312
0.58735
156.946
154.328
151.892
150.077
148.376
146.672
145.001
143.373
141.779
140.21
138.665
137.14
135.633
134.143
132.668
131.208
129.76
128.323
126.898
125.484
124.079
122.683
121.296
119.917
118.546
117.182
115.825
114.475
113.132
111.794
110.463
109.137
107.816
106.501
105.191
103.885
102.585
101.288
99.9965
98.7088
97.4253
96.1457
94.87
93.598
92.3296
91.0647
89.8032
88.545
87.2901
86.0383
84.7895
83.5437
82.3009
81.0608
79.8235
78.5889
77.3569
76.1274
74.9005
73.6759
72.4538
71.234
70.0165
68.8012
67.588
66.377
65.1681
63.9612
62.7562
61.5533
60.3522
59.153
57.9556
56.7599
55.566
54.3738
53.1833
51.9944
50.8071
49.6213
48.4371
47.2544
46.0732
44.8933
43.7149
42.5378
41.3621
40.1877
39.0146
37.8426
36.6719
35.5023
34.3337
33.1663
31.9998
30.8343
29.6696
28.5057
27.3426
26.1802
25.0183
23.857
22.6961
21.5355
20.3752
19.2151
18.055
16.8948
15.7346
14.5741
13.4132
12.252
11.0902
9.92774
8.7646
7.60061
6.4357
5.2698
4.10277
2.93458
1.76376
0.58256
156.877
154.35
151.897
150.077
148.378
146.674
145.002
143.374
141.78
140.211
138.665
137.14
135.634
134.144
132.669
131.208
129.76
128.324
126.899
125.484
124.079
122.683
121.296
119.917
118.546
117.182
115.826
114.476
113.132
111.794
110.463
109.137
107.816
106.501
105.191
103.885
102.585
101.288
99.9966
98.709
97.4255
96.1459
94.8701
93.5981
92.3297
91.0648
89.8033
88.5451
87.2902
86.0384
84.7896
83.5438
82.3009
81.0609
79.8236
78.5889
77.3569
76.1275
74.9005
73.676
72.4539
71.2341
70.0165
68.8012
67.5881
66.3771
65.1681
63.9612
62.7563
61.5533
60.3522
59.153
57.9556
56.7599
55.5661
54.3739
53.1834
51.9945
50.8072
49.6215
48.4373
47.2547
46.0735
44.8937
43.7154
42.5384
41.3627
40.1884
39.0153
37.8434
36.6728
35.5032
34.3348
33.1674
32.001
30.8355
29.6709
28.5071
27.344
26.1816
25.0198
23.8584
22.6976
21.537
20.3767
19.2165
18.0565
16.8963
15.736
14.5755
13.4147
12.2534
11.0916
9.92912
8.76595
7.60193
6.437
5.27106
4.104
2.93572
1.76469
0.578844
156.877
154.35
151.897
150.077
148.378
146.674
145.002
143.374
141.78
140.211
138.665
137.14
135.634
134.144
132.669
131.208
129.76
128.324
126.899
125.484
124.079
122.683
121.296
119.917
118.546
117.182
115.826
114.476
113.132
111.794
110.463
109.137
107.816
106.501
105.191
103.885
102.585
101.288
99.9966
98.709
97.4255
96.1459
94.8701
93.5981
92.3297
91.0648
89.8033
88.5451
87.2902
86.0384
84.7896
83.5438
82.3009
81.0609
79.8236
78.5889
77.3569