/*--------------------------------*- C++ -*----------------------------------*\
  =========                 |
  \\      /  F ield         | OpenFOAM: The Open Source CFD Toolbox
   \\    /   O peration     | Website:  https://openfoam.org
    \\  /    A nd           | Version:  8
     \\/     M anipulation  |
\*---------------------------------------------------------------------------*/
FoamFile
{
    version     2.0;
    format      ascii;
    class       surfaceScalarField;
    location    "950";
    object      phi;
}
// * * * * * * * * * * * * * * * * * * * * * * * * * * * * * * * * * * * * * //

dimensions      [0 3 -1 0 0 0 0];

internalField   nonuniform List<scalar> 
14458
(
0.00222126
0.00139905
0.00205682
0.000164437
0.00198942
6.74047e-05
0.00194726
4.2162e-05
0.00191671
3.05479e-05
0.00189296
2.37486e-05
0.00187368
1.92771e-05
0.00185758
1.61011e-05
0.00184386
1.37263e-05
0.00183197
1.18877e-05
0.00182154
1.0425e-05
0.00181231
9.23482e-06
0.00180406
8.24843e-06
0.00179664
7.41841e-06
0.00178993
6.71091e-06
0.00178383
6.10127e-06
0.00177826
5.57085e-06
0.00177315
5.10551e-06
0.00176846
4.69416e-06
0.00176413
4.32828e-06
0.00176013
4.00085e-06
0.00175643
3.70631e-06
0.00175299
3.44e-06
0.00174979
3.1983e-06
0.00174681
2.97798e-06
0.00174403
2.77645e-06
0.00174144
2.59139e-06
0.00173902
2.42109e-06
0.00173676
2.26383e-06
0.00173464
2.11826e-06
0.00173266
1.98308e-06
0.0017308
1.8574e-06
0.00172906
1.74022e-06
0.00172743
1.63077e-06
0.0017259
1.52828e-06
0.00172447
1.43222e-06
0.00172313
1.342e-06
0.00172187
1.25713e-06
0.00172069
1.17715e-06
0.00171959
1.10171e-06
0.00171856
1.03042e-06
0.0017176
9.62984e-07
0.0017167
8.99174e-07
0.00171586
8.38595e-07
0.00171508
7.81079e-07
0.00171435
7.26417e-07
0.00171368
6.74485e-07
0.00171305
6.24948e-07
0.00171248
5.77727e-07
0.00171194
5.32662e-07
0.00171145
4.89904e-07
0.00171101
4.48763e-07
0.0017106
4.09423e-07
0.00171023
3.71745e-07
0.00170989
3.35903e-07
0.00170959
3.0128e-07
0.00170932
2.68078e-07
0.00170909
2.36157e-07
0.00170888
2.06073e-07
0.0017087
1.7655e-07
0.00170856
1.48172e-07
0.00170844
1.20794e-07
0.00170834
9.49222e-08
0.00170827
6.94748e-08
0.00170823
4.49962e-08
0.00170821
2.1318e-08
0.00170821
-4.98999e-10
0.00170823
-2.25577e-08
0.00170827
-4.36904e-08
0.00170834
-6.41255e-08
0.00170842
-8.29038e-08
0.00170852
-1.01826e-07
0.00170864
-1.19901e-07
0.00170878
-1.37393e-07
0.00170893
-1.52507e-07
0.0017091
-1.68705e-07
0.00170929
-1.84175e-07
0.00170949
-1.99284e-07
0.0017097
-2.12506e-07
0.00170993
-2.2682e-07
0.00171017
-2.40644e-07
0.00171042
-2.54467e-07
0.00171069
-2.6525e-07
0.00171097
-2.78983e-07
0.00171126
-2.92462e-07
0.00171157
-3.06342e-07
0.00171189
-3.17736e-07
0.00171222
-3.32055e-07
0.00171257
-3.46145e-07
0.00171293
-3.60846e-07
0.0017133
-3.70482e-07
0.00171369
-3.85755e-07
0.00171409
-4.00481e-07
0.0017145
-4.15893e-07
0.00171493
-4.26489e-07
0.00171538
-4.41906e-07
0.00171583
-4.56102e-07
0.0017163
-4.70706e-07
0.00171678
-4.76074e-07
0.00171727
-4.89915e-07
0.00171777
-5.01732e-07
0.00171828
-5.13906e-07
0.0017188
-5.17423e-07
0.00171933
-5.27682e-07
0.00171987
-5.35013e-07
0.0017204
-5.42303e-07
0.00172094
-5.3647e-07
0.00172149
-5.41085e-07
0.00172203
-5.42327e-07
0.00172257
-5.43639e-07
0.0017231
-5.34788e-07
0.00172363
-5.3265e-07
0.00172416
-5.26874e-07
0.00172467
-5.20717e-07
0.00172517
-5.04221e-07
0.00172567
-4.94275e-07
0.00172614
-4.8139e-07
0.00172661
-4.67687e-07
0.00172705
-4.49924e-07
0.00172747
-4.25616e-07
0.00172788
-4.04936e-07
-2.12661e-07
0.00311152
0.00259572
0.00288393
0.000392019
0.00278399
0.000167352
0.00272314
0.000103006
0.0026798
7.38915e-05
0.0026464
5.71458e-05
0.00261943
4.62488e-05
0.00259697
3.85576e-05
0.00257787
3.2829e-05
0.00256135
2.84053e-05
0.00254689
2.48927e-05
0.00253408
2.2039e-05
0.00252265
1.96765e-05
0.00251238
1.76903e-05
0.00250309
1.59986e-05
0.00249465
1.45417e-05
0.00248695
1.32748e-05
0.00247989
1.21639e-05
0.0024734
1.11823e-05
0.00246742
1.03094e-05
0.00246189
9.52848e-06
0.00245677
8.82618e-06
0.00245202
8.1914e-06
0.00244761
7.61534e-06
0.00244349
7.09037e-06
0.00243966
6.61023e-06
0.00243608
6.16946e-06
0.00243274
5.76383e-06
0.00242961
5.38933e-06
0.00242669
5.04268e-06
0.00242395
4.72089e-06
0.00242139
4.42167e-06
0.00241899
4.14273e-06
0.00241673
3.8822e-06
0.00241462
3.6383e-06
0.00241265
3.4097e-06
0.00241079
3.195e-06
0.00240906
2.99306e-06
0.00240743
2.80277e-06
0.00240591
2.62328e-06
0.00240449
2.45369e-06
0.00240316
2.29327e-06
0.00240192
2.14143e-06
0.00240076
1.99734e-06
0.00239968
1.86055e-06
0.00239867
1.73056e-06
0.00239774
1.607e-06
0.00239688
1.48922e-06
0.00239608
1.37695e-06
0.00239534
1.26982e-06
0.00239466
1.16796e-06
0.00239404
1.07018e-06
0.00239348
9.76674e-07
0.00239296
8.87149e-07
0.00239249
8.01782e-07
0.00239208
7.19539e-07
0.0023917
6.40653e-07
0.00239137
5.64862e-07
0.00239109
4.92966e-07
0.00239084
4.22908e-07
0.00239064
3.55546e-07
0.00239047
2.90632e-07
0.00239033
2.28899e-07
0.00239023
1.6863e-07
0.00239017
1.1062e-07
0.00239013
5.46141e-08
0.00239013
2.21018e-09
0.00239016
-4.99134e-08
0.00239022
-9.99356e-08
0.0023903
-1.48193e-07
0.00239041
-1.93254e-07
0.00239055
-2.37946e-07
0.00239071
-2.80795e-07
0.00239089
-3.22182e-07
0.0023911
-3.59362e-07
0.00239133
-3.97802e-07
0.00239158
-4.34749e-07
0.00239185
-4.70751e-07
0.00239214
-5.0352e-07
0.00239245
-5.37738e-07
0.00239278
-5.71043e-07
0.00239313
-6.04134e-07
0.0023935
-6.32345e-07
0.00239389
-6.65112e-07
0.00239429
-6.97484e-07
0.00239472
-7.30367e-07
0.00239516
-7.59353e-07
0.00239562
-7.9286e-07
0.0023961
-8.26026e-07
0.0023966
-8.59942e-07
0.00239712
-8.85784e-07
0.00239765
-9.20345e-07
0.00239821
-9.53882e-07
0.00239878
-9.88063e-07
0.00239937
-1.01439e-06
0.00239997
-1.04783e-06
0.0024006
-1.07893e-06
0.00240123
-1.10991e-06
0.00240189
-1.12572e-06
0.00240255
-1.15421e-06
0.00240323
-1.17881e-06
0.00240392
-1.20292e-06
0.00240461
-1.21258e-06
0.00240532
-1.23188e-06
0.00240603
-1.24568e-06
0.00240674
-1.25818e-06
0.00240745
-1.24897e-06
0.00240817
-1.25523e-06
0.00240888
-1.2552e-06
0.00240959
-1.25405e-06
0.00241029
-1.23591e-06
0.00241098
-1.22728e-06
0.00241167
-1.21204e-06
0.00241234
-1.19515e-06
0.002413
-1.16098e-06
0.00241364
-1.13633e-06
0.00241426
-1.10642e-06
0.00241486
-1.07423e-06
0.00241545
-1.03509e-06
0.002416
-9.78679e-07
0.00241653
-9.38195e-07
-4.87865e-07
0.00403426
0.00368821
0.00373892
0.00068736
0.00360103
0.000305244
0.00351841
0.000185629
0.00346051
0.000131791
0.00341635
0.000101301
0.00338092
8.16799e-05
0.00335155
6.79323e-05
0.00332663
5.77421e-05
0.00330514
4.98996e-05
0.00328634
4.3688e-05
0.00326973
3.86511e-05
0.00325492
3.44874e-05
0.00324162
3.09912e-05
0.0032296
2.80163e-05
0.00321869
2.54566e-05
0.00320873
2.32322e-05
0.00319961
2.12828e-05
0.00319123
1.95613e-05
0.00318351
1.80312e-05
0.00317637
1.66629e-05
0.00316977
1.54327e-05
0.00316364
1.43212e-05
0.00315794
1.33128e-05
0.00315264
1.2394e-05
0.00314769
1.15539e-05
0.00314308
1.0783e-05
0.00313877
1.00735e-05
0.00313474
9.41869e-06
0.00313097
8.81264e-06
0.00312744
8.25018e-06
0.00312414
7.72721e-06
0.00312104
7.23976e-06
0.00311814
6.78452e-06
0.00311542
6.35843e-06
0.00311287
5.95908e-06
0.00311048
5.58407e-06
0.00310824
5.23137e-06
0.00310614
4.89907e-06
0.00310418
4.58563e-06
0.00310235
4.28951e-06
0.00310063
4.00943e-06
0.00309903
3.74431e-06
0.00309753
3.49279e-06
0.00309614
3.25404e-06
0.00309484
3.02716e-06
0.00309364
2.81147e-06
0.00309252
2.60594e-06
0.00309149
2.41004e-06
0.00309054
2.22313e-06
0.00308966
2.04521e-06
0.00308885
1.87464e-06
0.00308812
1.71154e-06
0.00308745
1.5554e-06
0.00308685
1.40633e-06
0.0030863
1.26292e-06
0.00308582
1.12538e-06
0.00308539
9.93269e-07
0.00308502
8.67489e-07
0.00308469
7.45417e-07
0.00308442
6.28064e-07
0.0030842
5.1502e-07
0.00308402
4.0716e-07
0.00308389
3.0228e-07
0.00308379
2.01352e-07
0.00308375
1.03964e-07
0.00308374
1.20427e-08
0.00308376
-7.85781e-08
0.00308383
-1.6559e-07
0.00308393
-2.49494e-07
0.00308407
-3.2854e-07
0.00308424
-4.0631e-07
0.00308444
-4.80978e-07
0.00308467
-5.5315e-07
0.00308493
-6.19439e-07
0.00308522
-6.86665e-07
0.00308553
-7.51438e-07
0.00308588
-8.146e-07
0.00308625
-8.73306e-07
0.00308664
-9.33453e-07
0.00308706
-9.92085e-07
0.00308751
-1.05024e-06
0.00308798
-1.10214e-06
0.00308848
-1.15949e-06
0.00308899
-1.21607e-06
0.00308954
-1.2732e-06
0.0030901
-1.3253e-06
0.00309069
-1.38285e-06
0.00309131
-1.43964e-06
0.00309194
-1.49717e-06
0.0030926
-1.54445e-06
0.00309329
-1.60215e-06
0.00309399
-1.65796e-06
0.00309472
-1.71413e-06
0.00309546
-1.75997e-06
0.00309623
-1.81397e-06
0.00309701
-1.8641e-06
0.00309782
-1.91332e-06
0.00309864
-1.94295e-06
0.00309947
-1.98721e-06
0.00310032
-2.0253e-06
0.00310117
-2.0618e-06
0.00310204
-2.07919e-06
0.00310292
-2.10729e-06
0.0031038
-2.12703e-06
0.00310468
-2.144e-06
0.00310557
-2.1329e-06
0.00310645
-2.1395e-06
0.00310733
-2.1367e-06
0.00310821
-2.13141e-06
0.00310908
-2.10375e-06
0.00310993
-2.08661e-06
0.00311078
-2.05986e-06
0.00311161
-2.03012e-06
0.00311243
-1.97798e-06
0.00311323
-1.93642e-06
0.00311401
-1.88729e-06
0.00311477
-1.8344e-06
0.0031155
-1.77234e-06
0.0031162
-1.67856e-06
0.00311688
-1.61671e-06
-8.36093e-07
0.00509521
0.00469385
0.00472975
0.00105283
0.00454516
0.00048983
0.00443475
0.000296043
0.00435841
0.000208123
0.00430083
0.000158889
0.00425496
0.000127546
0.00421713
0.000105763
0.00418516
8.9708e-05
0.00415766
7.74022e-05
0.00413366
6.76854e-05
0.00411249
5.98248e-05
0.00409364
5.33394e-05
0.00407673
4.7902e-05
0.00406146
4.32814e-05
0.00404761
3.93097e-05
0.00403498
3.58616e-05
0.00402342
3.28421e-05
0.00401281
3.01775e-05
0.00400303
2.78104e-05
0.00399399
2.56948e-05
0.00398563
2.37937e-05
0.00397788
2.20768e-05
0.00397067
2.05196e-05
0.00396396
1.91014e-05
0.00395771
1.7805e-05
0.00395188
1.66157e-05
0.00394643
1.55216e-05
0.00394134
1.45119e-05
0.00393657
1.35776e-05
0.00393211
1.27108e-05
0.00392794
1.19049e-05
0.00392402
1.11539e-05
0.00392035
1.04526e-05
0.00391692
9.79644e-06
0.00391369
9.18147e-06
0.00391067
8.60407e-06
0.00390784
8.06108e-06
0.00390519
7.54958e-06
0.00390271
7.06716e-06
0.00390039
6.61146e-06
0.00389822
6.18048e-06
0.00389619
5.77251e-06
0.0038943
5.38557e-06
0.00389253
5.0183e-06
0.00389089
4.66932e-06
0.00388937
4.33755e-06
0.00388795
4.02146e-06
0.00388664
3.72022e-06
0.00388543
3.43284e-06
0.00388432
3.15911e-06
0.00388329
2.8969e-06
0.00388236
2.64618e-06
0.00388151
2.40619e-06
0.00388074
2.17691e-06
0.00388005
1.95654e-06
0.00387943
1.74518e-06
0.00387888
1.54221e-06
0.0038784
1.34861e-06
0.00387798
1.16113e-06
0.00387763
9.80915e-07
0.00387734
8.07384e-07
0.0038771
6.41505e-07
0.00387692
4.80588e-07
0.0038768
3.2572e-07
0.00387673
1.76361e-07
0.0038767
3.4717e-08
0.00387673
-1.04284e-07
0.0038768
-2.3788e-07
0.00387692
-3.66646e-07
0.00387708
-4.88601e-07
0.00387728
-6.08075e-07
0.00387752
-7.22972e-07
0.0038778
-8.34059e-07
0.00387812
-9.37365e-07
0.00387848
-1.04108e-06
0.00387887
-1.14124e-06
0.00387929
-1.23888e-06
0.00387975
-1.33069e-06
0.00388024
-1.42373e-06
0.00388076
-1.51454e-06
0.00388132
-1.60435e-06
0.0038819
-1.68633e-06
0.00388252
-1.77444e-06
0.00388316
-1.86131e-06
0.00388384
-1.94844e-06
0.00388454
-2.02922e-06
0.00388527
-2.11609e-06
0.00388604
-2.20164e-06
0.00388683
-2.28754e-06
0.00388764
-2.36069e-06
0.00388849
-2.4457e-06
0.00388936
-2.52781e-06
0.00389025
-2.6096e-06
0.00389117
-2.67831e-06
0.00389211
-2.75591e-06
0.00389308
-2.82799e-06
0.00389406
-2.89796e-06
0.00389506
-2.94354e-06
0.00389608
-3.00555e-06
0.00389712
-3.05906e-06
0.00389816
-3.10948e-06
0.00389922
-3.13593e-06
0.00390029
-3.17395e-06
0.00390136
-3.20076e-06
0.00390244
-3.22303e-06
0.00390352
-3.21051e-06
0.0039046
-3.21791e-06
0.00390567
-3.21289e-06
0.00390674
-3.20372e-06
0.00390781
-3.16667e-06
0.00390886
-3.14104e-06
0.0039099
-3.10291e-06
0.00391093
-3.06025e-06
0.00391194
-2.98977e-06
0.00391294
-2.93104e-06
0.00391391
-2.86256e-06
0.00391486
-2.78852e-06
0.00391579
-2.70306e-06
0.00391668
-2.56785e-06
0.00391755
-2.48804e-06
-1.28524e-06
0.00634387
0.00561001
0.00590982
0.00148688
0.00566913
0.000730515
0.00552327
0.000441905
0.00542325
0.000308148
0.0053485
0.000233634
0.00528942
0.000186628
0.00524096
0.00015422
0.00520019
0.000130482
0.00516522
0.000112371
0.00513478
9.8121e-05
0.00510798
8.66253e-05
0.00508416
7.71621e-05
0.00506282
6.92429e-05
0.00504358
6.25236e-05
0.00502613
5.67555e-05
0.00501024
5.17534e-05
0.0049957
4.73772e-05
0.00498236
4.35186e-05
0.00497008
4.00934e-05
0.00495874
3.70341e-05
0.00494825
3.42866e-05
0.00493852
3.18066e-05
0.00492948
2.95584e-05
0.00492107
2.75117e-05
0.00491323
2.56416e-05
0.00490592
2.39266e-05
0.00489909
2.23492e-05
0.00489271
2.08941e-05
0.00488674
1.9548e-05
0.00488115
1.82995e-05
0.00487592
1.7139e-05
0.00487102
1.60578e-05
0.00486642
1.50484e-05
0.00486211
1.4104e-05
0.00485807
1.32192e-05
0.00485429
1.23885e-05
0.00485074
1.16075e-05
0.00484742
1.08719e-05
0.00484431
1.01783e-05
0.0048414
9.5231e-06
0.00483868
8.90356e-06
0.00483613
8.31712e-06
0.00483376
7.76102e-06
0.00483154
7.23326e-06
0.00482948
6.73185e-06
0.00482756
6.25516e-06
0.00482578
5.8011e-06
0.00482413
5.36842e-06
0.00482261
4.95569e-06
0.00482121
4.56239e-06
0.00481992
4.18589e-06
0.00481874
3.82592e-06
0.00481766
3.48139e-06
0.00481669
3.15208e-06
0.00481581
2.83577e-06
0.00481502
2.53245e-06
0.00481432
2.2412e-06
0.00481371
1.963e-06
0.00481318
1.69407e-06
0.00481272
1.43558e-06
0.00481234
1.18674e-06
0.00481204
9.48566e-07
0.0048118
7.17897e-07
0.00481163
4.95919e-07
0.00481152
2.81864e-07
0.00481148
7.81589e-08
0.0048115
-1.21097e-07
0.00481157
-3.12752e-07
0.0048117
-4.9749e-07
0.00481189
-6.73131e-07
0.00481212
-8.44692e-07
0.00481241
-1.00982e-06
0.00481275
-1.16958e-06
0.00481313
-1.3195e-06
0.00481356
-1.4689e-06
0.00481403
-1.61329e-06
0.00481454
-1.75406e-06
0.0048151
-1.88744e-06
0.0048157
-2.0215e-06
0.00481634
-2.15226e-06
0.00481701
-2.28134e-06
0.00481773
-2.40098e-06
0.00481848
-2.52692e-06
0.00481927
-2.65075e-06
0.0048201
-2.77438e-06
0.00482096
-2.89022e-06
0.00482185
-3.01234e-06
0.00482279
-3.13214e-06
0.00482375
-3.25179e-06
0.00482475
-3.35637e-06
0.00482577
-3.47349e-06
0.00482683
-3.58626e-06
0.00482792
-3.69795e-06
0.00482904
-3.79387e-06
0.00483018
-3.89885e-06
0.00483135
-3.99622e-06
0.00483254
-4.09033e-06
0.00483375
-4.15583e-06
0.00483499
-4.2385e-06
0.00483624
-4.30998e-06
0.0048375
-4.37696e-06
0.00483878
-4.41549e-06
0.00484008
-4.4657e-06
0.00484138
-4.50152e-06
0.00484268
-4.53114e-06
0.00484399
-4.52024e-06
0.00484531
-4.53018e-06
0.00484662
-4.52437e-06
0.00484793
-4.51286e-06
0.00484923
-4.46846e-06
0.00485052
-4.43558e-06
0.00485181
-4.38704e-06
0.00485308
-4.33248e-06
0.00485433
-4.24543e-06
0.00485557
-4.17024e-06
0.00485679
-4.08287e-06
0.00485799
-3.98801e-06
0.00485916
-3.87969e-06
0.00486029
-3.69903e-06
0.00486141
-3.60126e-06
-1.85814e-06
0.00782498
0.00642447
0.00732969
0.00198217
0.00702383
0.00103637
0.00683327
0.000632459
0.00670272
0.000438696
0.00660586
0.000330497
0.00652983
0.000262659
0.00646783
0.000216225
0.00641588
0.000182424
0.00637149
0.000156761
0.00633297
0.000136648
0.00629912
0.000120473
0.00626909
0.000107193
0.00624223
9.61035e-05
0.00621804
8.67111e-05
0.00619614
7.86606e-05
0.0061762
7.16883e-05
0.00615798
6.55954e-05
0.00614127
6.02286e-05
0.0061259
5.54687e-05
0.00611171
5.12206e-05
0.00609859
4.74081e-05
0.00608643
4.39691e-05
0.00607513
4.08532e-05
0.00606463
3.80181e-05
0.00605484
3.54288e-05
0.00604571
3.30553e-05
0.00603719
3.08732e-05
0.00602922
2.88608e-05
0.00602177
2.7e-05
0.00601479
2.52745e-05
0.00600826
2.36712e-05
0.00600214
2.21778e-05
0.0059964
2.0784e-05
0.00599103
1.94803e-05
0.00598599
1.8259e-05
0.00598126
1.71128e-05
0.00597684
1.60352e-05
0.00597269
1.50206e-05
0.0059688
1.40639e-05
0.00596517
1.31605e-05
0.00596176
1.23064e-05
0.00595858
1.14979e-05
0.00595561
1.07315e-05
0.00595284
1.00042e-05
0.00595026
9.31333e-06
0.00594786
8.65654e-06
0.00594563
8.03108e-06
0.00594356
7.43512e-06
0.00594165
6.86672e-06
0.00593989
6.32497e-06
0.00593827
5.80658e-06
0.00593678
5.311e-06
0.00593543
4.83673e-06
0.0059342
4.3833e-06
0.00593308
3.94799e-06
0.00593209
3.53058e-06
0.0059312
3.12985e-06
0.00593041
2.74674e-06
0.00592973
2.37684e-06
0.00592914
2.02133e-06
0.00592865
1.67915e-06
0.00592825
1.35136e-06
0.00592793
1.03425e-06
0.0059277
7.29079e-07
0.00592755
4.34848e-07
0.00592747
1.54217e-07
0.00592747
-1.19731e-07
0.00592754
-3.83486e-07
0.00592768
-6.37733e-07
0.00592789
-8.80107e-07
0.00592816
-1.11638e-06
0.00592849
-1.344e-06
0.00592889
-1.56425e-06
0.00592934
-1.77216e-06
0.00592985
-1.9783e-06
0.00593042
-2.17769e-06
0.00593103
-2.37196e-06
0.0059317
-2.55688e-06
0.00593242
-2.74163e-06
0.00593319
-2.92173e-06
0.00593401
-3.09905e-06
0.00593488
-3.26485e-06
0.00593579
-3.43694e-06
0.00593674
-3.60577e-06
0.00593774
-3.77356e-06
0.00593878
-3.93172e-06
0.00593987
-4.09612e-06
0.00594099
-4.25702e-06
0.00594216
-4.41688e-06
0.00594336
-4.55881e-06
0.0059446
-4.71397e-06
0.00594588
-4.86322e-06
0.00594719
-5.01031e-06
0.00594854
-5.13856e-06
0.00594991
-5.27601e-06
0.00595132
-5.40374e-06
0.00595276
-5.52678e-06
0.00595422
-5.61637e-06
0.0059557
-5.72422e-06
0.00595721
-5.81819e-06
0.00595874
-5.90603e-06
0.00596029
-5.96048e-06
0.00596185
-6.02694e-06
0.00596342
-6.07582e-06
0.005965
-6.11664e-06
0.0059666
-6.11035e-06
0.00596819
-6.12636e-06
0.00596979
-6.12322e-06
0.00597139
-6.1126e-06
0.00597299
-6.06346e-06
0.00597458
-6.02612e-06
0.00597616
-5.9698e-06
0.00597773
-5.90568e-06
0.00597929
-5.80351e-06
0.00598083
-5.7136e-06
0.00598235
-5.60887e-06
0.00598386
-5.49416e-06
0.00598534
-5.36353e-06
0.00598677
-5.13306e-06
0.00598819
-5.02138e-06
-2.5913e-06
0.00958315
0.0071223
0.00904307
0.00252225
0.0086654
0.00141405
0.00841974
0.00087812
0.00825013
0.000608299
0.00812471
0.000455923
0.00802681
0.000360556
0.0079474
0.000295639
0.00788117
0.000248652
0.00782478
0.000213153
0.00777598
0.000185444
0.00773322
0.000163237
0.00769536
0.000145056
0.00766155
0.00012991
0.00763115
0.000117108
0.00760366
0.000106155
0.00757866
9.66826e-05
0.00755584
8.8416e-05
0.00753493
8.11431e-05
0.0075157
7.46993e-05
0.00749796
6.89535e-05
0.00748157
6.38012e-05
0.00746638
5.91571e-05
0.00745229
5.49521e-05
0.00743917
5.11284e-05
0.00742697
4.7638e-05
0.00741558
4.44404e-05
0.00740495
4.1502e-05
0.00739502
3.87932e-05
0.00738573
3.62895e-05
0.00737704
3.39688e-05
0.00736889
3.18131e-05
0.00736127
2.98058e-05
0.00735412
2.79329e-05
0.00734742
2.61818e-05
0.00734113
2.45417e-05
0.00733524
2.30027e-05
0.00732972
2.15564e-05
0.00732455
2.01948e-05
0.0073197
1.89112e-05
0.00731516
1.76994e-05
0.00731091
1.65539e-05
0.00730694
1.54698e-05
0.00730323
1.44423e-05
0.00729977
1.34674e-05
0.00729654
1.25415e-05
0.00729354
1.16613e-05
0.00729074
1.08233e-05
0.00728815
1.0025e-05
0.00728576
9.26366e-06
0.00728354
8.53793e-06
0.00728151
7.84378e-06
0.00727964
7.18026e-06
0.00727793
6.54534e-06
0.00727637
5.93822e-06
0.00727497
5.3556e-06
0.0072737
4.79703e-06
0.00727257
4.26085e-06
0.00727157
3.74788e-06
0.00727069
3.25309e-06
0.00726994
2.77761e-06
0.0072693
2.32003e-06
0.00726877
1.88137e-06
0.00726834
1.45741e-06
0.00726802
1.0494e-06
0.0072678
6.56033e-07
0.00726768
2.80152e-07
0.00726764
-8.61249e-08
0.0072677
-4.39064e-07
0.00726784
-7.79399e-07
0.00726806
-1.10453e-06
0.00726837
-1.42095e-06
0.00726875
-1.72591e-06
0.00726921
-2.02105e-06
0.00726974
-2.30099e-06
0.00727034
-2.57732e-06
0.007271
-2.8446e-06
0.00727174
-3.10489e-06
0.00727253
-3.3535e-06
0.00727339
-3.60057e-06
0.00727431
-3.84111e-06
0.00727529
-4.07745e-06
0.00727632
-4.3e-06
0.00727742
-4.52817e-06
0.00727856
-4.75145e-06
0.00727976
-4.9726e-06
0.00728101
-5.18203e-06
0.00728231
-5.3972e-06
0.00728366
-5.60721e-06
0.00728506
-5.81516e-06
0.00728651
-6.00245e-06
0.007288
-6.20301e-06
0.00728953
-6.39566e-06
0.0072911
-6.58506e-06
0.00729272
-6.75263e-06
0.00729437
-6.9291e-06
0.00729606
-7.09337e-06
0.00729778
-7.25161e-06
0.00729954
-7.37214e-06
0.00730133
-7.51116e-06
0.00730314
-7.63326e-06
0.00730498
-7.74773e-06
0.00730685
-7.82419e-06
0.00730873
-7.91237e-06
0.00731064
-7.97937e-06
0.00731256
-8.03657e-06
0.00731449
-8.04085e-06
0.00731643
-8.06763e-06
0.00731838
-8.07144e-06
0.00732033
-8.06593e-06
0.00732228
-8.01652e-06
0.00732423
-7.97833e-06
0.00732618
-7.91728e-06
0.00732812
-7.84648e-06
0.00733005
-7.73247e-06
0.00733196
-7.62986e-06
0.00733386
-7.5092e-06
0.00733574
-7.37559e-06
0.0073376
-7.22348e-06
0.00733941
-6.93779e-06
0.0073412
-6.81163e-06
-3.51363e-06
0.0116649
0.00769175
0.0111083
0.00307885
0.0106583
0.00186413
0.0103471
0.00118928
0.0101283
0.000827098
0.00996616
0.000618058
0.00984002
0.0004867
0.00973813
0.000397522
0.00965352
0.000333268
0.00958173
0.000284941
0.0095198
0.00024737
0.00946568
0.000217365
0.00941786
0.000192874
0.00937524
0.000172524
0.00933699
0.000155363
0.00930244
0.000140708
0.00927106
0.000128056
0.00924245
0.000117031
0.00921625
0.000107344
0.00919217
9.87719e-05
0.00916999
9.11362e-05
0.0091495
8.42955e-05
0.00913052
7.81349e-05
0.00911291
7.25611e-05
0.00909654
6.74963e-05
0.0090813
6.28761e-05
0.0090671
5.86459e-05
0.00905384
5.47607e-05
0.00904145
5.11811e-05
0.00902987
4.78738e-05
0.00901903
4.48098e-05
0.00900888
4.19647e-05
0.00899936
3.93166e-05
0.00899045
3.68466e-05
0.00898209
3.4538e-05
0.00897426
3.23764e-05
0.00896691
3.03488e-05
0.00896003
2.84437e-05
0.00895357
2.66507e-05
0.00894752
2.49609e-05
0.00894185
2.33659e-05
0.00893655
2.18586e-05
0.00893159
2.04323e-05
0.00892695
1.90808e-05
0.00892262
1.77988e-05
0.00891858
1.65814e-05
0.00891481
1.54243e-05
0.00891132
1.43229e-05
0.00890807
1.32738e-05
0.00890506
1.22735e-05
0.00890227
1.13199e-05
0.00889971
1.04082e-05
0.00889735
9.53678e-06
0.0088952
8.70305e-06
0.00889323
7.90579e-06
0.00889144
7.14097e-06
0.00888983
6.40779e-06
0.00888839
5.70413e-06
0.00888711
5.03064e-06
0.00888598
4.38149e-06
0.008885
3.75773e-06
0.00888416
3.15755e-06
0.00888346
2.58191e-06
0.00888289
2.02592e-06
0.00888245
1.49084e-06
0.00888213
9.75001e-07
0.00888193
4.81461e-07
0.00888184
1.19704e-09
0.00888187
-4.61967e-07
0.008882
-9.08794e-07
0.00888223
-1.33631e-06
0.00888256
-1.75186e-06
0.00888299
-2.1525e-06
0.0088835
-2.54022e-06
0.00888411
-2.90912e-06
0.00888481
-3.27212e-06
0.00888559
-3.62322e-06
0.00888645
-3.96484e-06
0.00888739
-4.29182e-06
0.0088884
-4.61542e-06
0.00888949
-4.93014e-06
0.00889065
-5.23867e-06
0.00889188
-5.53042e-06
0.00889318
-5.82688e-06
0.00889455
-6.11641e-06
0.00889598
-6.40222e-06
0.00889747
-6.67368e-06
0.00889902
-6.95015e-06
0.00890063
-7.21952e-06
0.0089023
-7.48544e-06
0.00890403
-7.72726e-06
0.00890581
-7.98254e-06
0.00890764
-8.22777e-06
0.00890952
-8.4684e-06
0.00891146
-8.68372e-06
0.00891343
-8.90778e-06
0.00891546
-9.1171e-06
0.00891752
-9.31888e-06
0.00891963
-9.47783e-06
0.00892178
-9.65609e-06
0.00892396
-9.81434e-06
0.00892617
-9.96328e-06
0.00892842
-1.00689e-05
0.00893069
-1.01863e-05
0.00893299
-1.02789e-05
0.00893531
-1.03596e-05
0.00893765
-1.03803e-05
0.00894001
-1.04244e-05
0.00894238
-1.04414e-05
0.00894476
-1.04469e-05
0.00894715
-1.04021e-05
0.00894954
-1.0368e-05
0.00895192
-1.03068e-05
0.00895431
-1.02332e-05
0.00895669
-1.01099e-05
0.00895905
-9.99736e-06
0.00896141
-9.86293e-06
0.00896374
-9.71163e-06
0.00896605
-9.53837e-06
0.00896831
-9.19111e-06
0.00897055
-9.05382e-06
-4.6721e-06
0.0141222
0.00812849
0.0135876
0.00361341
0.013076
0.0023758
0.0126916
0.00157368
0.0124125
0.00110616
0.0122038
0.000826792
0.0120413
0.000649182
0.0119104
0.000528424
0.0118021
0.000441626
0.0117104
0.000376571
0.0116316
0.000326176
0.0115629
0.000286066
0.0115024
0.000253427
0.0114485
0.00022638
0.0114002
0.000203626
0.0113567
0.000184235
0.0113172
0.000167526
0.0112813
0.00015299
0.0112484
0.000140237
0.0112182
0.000128966
0.0111904
0.000118938
0.0111647
0.000109964
0.011141
0.00010189
0.0111189
9.45921e-05
0.0110985
8.79657e-05
0.0110794
8.19254e-05
0.0110617
7.63989e-05
0.0110451
7.13262e-05
0.0110296
6.66553e-05
0.0110152
6.23421e-05
0.0110016
5.83482e-05
0.0109889
5.46414e-05
0.0109771
5.11928e-05
0.0109659
4.79775e-05
0.0109555
4.49734e-05
0.0109457
4.21617e-05
0.0109365
3.95252e-05
0.0109279
3.70488e-05
0.0109199
3.47188e-05
0.0109123
3.25236e-05
0.0109052
3.04521e-05
0.0108986
2.8495e-05
0.0108924
2.66436e-05
0.0108866
2.48896e-05
0.0108811
2.32263e-05
0.0108761
2.16471e-05
0.0108714
2.01465e-05
0.010867
1.87184e-05
0.0108629
1.73584e-05
0.0108591
1.60619e-05
0.0108556
1.48259e-05
0.0108523
1.36446e-05
0.0108494
1.25158e-05
0.0108466
1.14359e-05
0.0108441
1.04032e-05
0.0108419
9.41295e-06
0.0108398
8.46379e-06
0.010838
7.55298e-06
0.0108363
6.6809e-06
0.0108348
5.84091e-06
0.0108336
5.03388e-06
0.0108325
4.25747e-06
0.0108315
3.51248e-06
0.0108308
2.79338e-06
0.0108302
2.10133e-06
0.0108297
1.43418e-06
0.0108294
7.95103e-07
0.0108292
1.74182e-07
0.0108292
-4.24994e-07
0.0108293
-1.0035e-06
0.0108295
-1.55771e-06
0.0108298
-2.09581e-06
0.0108303
-2.61464e-06
0.0108309
-3.11674e-06
0.0108316
-3.59574e-06
0.0108324
-4.06567e-06
0.0108333
-4.52005e-06
0.0108343
-4.96185e-06
0.0108353
-5.38539e-06
0.0108365
-5.80302e-06
0.0108378
-6.20864e-06
0.0108392
-6.60557e-06
0.0108406
-6.98233e-06
0.0108422
-7.36209e-06
0.0108438
-7.7322e-06
0.0108455
-8.09663e-06
0.0108472
-8.4437e-06
0.0108491
-8.79448e-06
0.010851
-9.13564e-06
0.010853
-9.47175e-06
0.010855
-9.78042e-06
0.0108572
-1.0102e-05
0.0108594
-1.04109e-05
0.0108616
-1.07138e-05
0.0108639
-1.0988e-05
0.0108663
-1.12703e-05
0.0108687
-1.15349e-05
0.0108712
-1.17905e-05
0.0108737
-1.19987e-05
0.0108762
-1.22262e-05
0.0108789
-1.24301e-05
0.0108815
-1.26232e-05
0.0108842
-1.27678e-05
0.010887
-1.29237e-05
0.0108897
-1.30503e-05
0.0108925
-1.31631e-05
0.0108954
-1.32095e-05
0.0108982
-1.32788e-05
0.0109011
-1.33162e-05
0.010904
-1.33396e-05
0.0109069
-1.33062e-05
0.0109098
-1.32821e-05
0.0109127
-1.32256e-05
0.0109156
-1.31538e-05
0.0109186
-1.30257e-05
0.0109215
-1.29061e-05
0.0109244
-1.27599e-05
0.0109272
-1.2592e-05
0.0109301
-1.23982e-05
0.0109329
-1.19816e-05
0.0109357
-1.18313e-05
-6.10492e-06
0.0170157
0.00843801
0.0165448
0.00408431
0.0160001
0.0029205
0.0155424
0.00203134
0.0151931
0.00145547
0.0149266
0.00109326
0.0147179
0.000857873
0.0145497
0.000696631
0.0144107
0.000580626
0.0142935
0.000493826
0.0141929
0.000426762
0.0141054
0.00037354
0.0140285
0.000330355
0.0139602
0.000294664
0.0138991
0.00026471
0.0138441
0.000239239
0.0137943
0.000217335
0.013749
0.000198312
0.0137076
0.00018165
0.0136696
0.000166945
0.0136347
0.00015388
0.0136024
0.000142201
0.0135726
0.000131706
0.013545
0.000122228
0.0135193
0.00011363
0.0134954
0.0001058
0.0134732
9.86409e-05
0.0134524
9.20746e-05
0.0134331
8.60324e-05
0.013415
8.04564e-05
0.013398
7.52963e-05
0.0133821
7.05096e-05
0.0133673
6.60586e-05
0.0133533
6.19107e-05
0.0133403
5.80371e-05
0.013328
5.4413e-05
0.0133165
5.10161e-05
0.0133058
4.78267e-05
0.0132956
4.4827e-05
0.0132862
4.20016e-05
0.0132773
3.93365e-05
0.013269
3.68192e-05
0.0132612
3.44386e-05
0.0132539
3.2184e-05
0.013247
3.00464e-05
0.0132407
2.80175e-05
0.0132347
2.60899e-05
0.0132292
2.42559e-05
0.013224
2.25098e-05
0.0132193
2.08456e-05
0.0132148
1.92593e-05
0.0132107
1.77436e-05
0.013207
1.62955e-05
0.0132035
1.49105e-05
0.0132003
1.35861e-05
0.0131974
1.23164e-05
0.0131948
1.10997e-05
0.0131924
9.93233e-06
0.0131902
8.81438e-06
0.0131883
7.73817e-06
0.0131867
6.70431e-06
0.0131852
5.70984e-06
0.013184
4.75537e-06
0.0131829
3.83451e-06
0.0131821
2.94829e-06
0.0131814
2.09404e-06
0.013181
1.27502e-06
0.0131806
4.80328e-07
0.0131805
-2.86857e-07
0.0131805
-1.02819e-06
0.0131807
-1.73915e-06
0.013181
-2.42883e-06
0.0131815
-3.09392e-06
0.0131821
-3.73741e-06
0.0131829
-4.35244e-06
0.0131838
-4.95445e-06
0.0131848
-5.5364e-06
0.013186
-6.10176e-06
0.0131872
-6.64433e-06
0.0131886
-7.1777e-06
0.0131901
-7.6952e-06
0.0131917
-8.20069e-06
0.0131934
-8.68162e-06
0.0131952
-9.16342e-06
0.0131971
-9.63222e-06
0.0131991
-1.00927e-05
0.0132012
-1.0532e-05
0.0132033
-1.09735e-05
0.0132056
-1.14023e-05
0.013208
-1.18239e-05
0.0132104
-1.22139e-05
0.0132129
-1.26163e-05
0.0132155
-1.30032e-05
0.0132182
-1.33823e-05
0.0132209
-1.37287e-05
0.0132237
-1.40827e-05
0.0132266
-1.44158e-05
0.0132295
-1.47383e-05
0.0132326
-1.50078e-05
0.0132356
-1.52971e-05
0.0132388
-1.55592e-05
0.0132419
-1.58085e-05
0.0132452
-1.60036e-05
0.0132485
-1.62095e-05
0.0132518
-1.63816e-05
0.0132552
-1.65375e-05
0.0132586
-1.6619e-05
0.013262
-1.67236e-05
0.0132655
-1.67908e-05
0.013269
-1.68412e-05
0.0132725
-1.68268e-05
0.0132761
-1.68202e-05
0.0132796
-1.67751e-05
0.0132832
-1.6711e-05
0.0132867
-1.65822e-05
0.0132903
-1.64596e-05
0.0132938
-1.63047e-05
0.0132973
-1.61219e-05
0.0133008
-1.5908e-05
0.0133043
-1.54135e-05
0.0133077
-1.52525e-05
-7.87475e-06
0.0204181
0.00863699
0.020045
0.00445733
0.0195159
0.00344959
0.0190009
0.0025464
0.0185768
0.00187952
0.018242
0.00142811
0.0179759
0.00112395
0.0177603
0.000912208
0.017582
0.000758947
0.0174317
0.000644117
0.017303
0.000555475
0.0171913
0.000485259
0.0170932
0.000428414
0.0170063
0.000381545
0.0169288
0.000342298
0.016859
0.000308997
0.0167959
0.000280416
0.0167386
0.00025564
0.0166863
0.000233975
0.0166383
0.000214885
0.0165943
0.000197947
0.0165536
0.000182826
0.0165161
0.000169253
0.0164813
0.00015701
0.016449
0.000145914
0.016419
0.000135819
0.016391
0.000126597
0.016365
0.000118145
0.0163406
0.000110374
0.0163179
0.000103208
0.0162966
9.65799e-05
0.0162767
9.04356e-05
0.016258
8.47254e-05
0.0162405
7.94071e-05
0.0162241
7.44429e-05
0.0162087
6.98008e-05
0.0161943
6.54516e-05
0.0161807
6.13698e-05
0.016168
5.75325e-05
0.0161561
5.39196e-05
0.0161449
5.05128e-05
0.0161345
4.72961e-05
0.0161246
4.4255e-05
0.0161154
4.13759e-05
0.0161068
3.8647e-05
0.0160988
3.60576e-05
0.0160913
3.35982e-05
0.0160843
3.1259e-05
0.0160778
2.90324e-05
0.0160717
2.69107e-05
0.0160661
2.48886e-05
0.0160609
2.29572e-05
0.016056
2.11123e-05
0.0160516
1.93482e-05
0.0160475
1.76614e-05
0.0160438
1.60449e-05
0.0160404
1.44961e-05
0.0160373
1.30105e-05
0.0160346
1.15875e-05
0.0160321
1.02184e-05
0.0160299
8.9033e-06
0.0160279
7.63858e-06
0.0160263
6.42446e-06