/*--------------------------------*- C++ -*----------------------------------*\
  =========                 |
  \\      /  F ield         | OpenFOAM: The Open Source CFD Toolbox
   \\    /   O peration     | Website:  https://openfoam.org
    \\  /    A nd           | Version:  8
     \\/     M anipulation  |
\*---------------------------------------------------------------------------*/
FoamFile
{
    version     2.0;
    format      ascii;
    class       volVectorField;
    location    "950";
    object      U;
}
// * * * * * * * * * * * * * * * * * * * * * * * * * * * * * * * * * * * * * //

dimensions      [0 1 -1 0 0 0 0];

internalField   nonuniform List<vector> 
7320
(
(22.6429 -0.848127 0)
(20.2991 -0.0156863 0)
(19.4729 0.000192381 0)
(18.9932 0.000303713 0)
(18.6577 0.000223815 0)
(18.4025 0.000174267 0)
(18.1985 0.000141577 0)
(18.0298 0.000118313 0)
(17.8872 0.000100895 0)
(17.7644 8.73987e-05 0)
(17.6573 7.66545e-05 0)
(17.5629 6.79096e-05 0)
(17.4788 6.06596e-05 0)
(17.4034 5.45577e-05 0)
(17.3353 4.9355e-05 0)
(17.2736 4.48721e-05 0)
(17.2174 4.09714e-05 0)
(17.1659 3.75492e-05 0)
(17.1186 3.45223e-05 0)
(17.0751 3.18314e-05 0)
(17.035 2.94232e-05 0)
(16.9978 2.72571e-05 0)
(16.9633 2.52973e-05 0)
(16.9313 2.35199e-05 0)
(16.9015 2.18996e-05 0)
(16.8737 2.04177e-05 0)
(16.8478 1.90546e-05 0)
(16.8236 1.78024e-05 0)
(16.801 1.66461e-05 0)
(16.7798 1.5576e-05 0)
(16.76 1.45806e-05 0)
(16.7415 1.36568e-05 0)
(16.7241 1.27953e-05 0)
(16.7078 1.19909e-05 0)
(16.6926 1.1235e-05 0)
(16.6783 1.05292e-05 0)
(16.6649 9.86598e-06 0)
(16.6523 9.24259e-06 0)
(16.6406 8.65306e-06 0)
(16.6296 8.09891e-06 0)
(16.6193 7.57497e-06 0)
(16.6097 7.07963e-06 0)
(16.6007 6.60851e-06 0)
(16.5923 6.16359e-06 0)
(16.5845 5.74087e-06 0)
(16.5772 5.33948e-06 0)
(16.5704 4.9566e-06 0)
(16.5641 4.59284e-06 0)
(16.5583 4.24571e-06 0)
(16.553 3.91464e-06 0)
(16.548 3.59951e-06 0)
(16.5435 3.29732e-06 0)
(16.5394 3.00797e-06 0)
(16.5356 2.73102e-06 0)
(16.5322 2.46737e-06 0)
(16.5291 2.21283e-06 0)
(16.5264 1.9684e-06 0)
(16.5239 1.73333e-06 0)
(16.5218 1.51336e-06 0)
(16.52 1.29592e-06 0)
(16.5184 1.08654e-06 0)
(16.5171 8.84191e-07 0)
(16.5161 6.94977e-07 0)
(16.5153 5.0671e-07 0)
(16.5147 3.25613e-07 0)
(16.5144 1.49975e-07 0)
(16.5143 -7.92265e-09 0)
(16.5144 -1.71853e-07 0)
(16.5148 -3.28168e-07 0)
(16.5153 -4.79899e-07 0)
(16.516 -6.16573e-07 0)
(16.5169 -7.56794e-07 0)
(16.518 -8.88882e-07 0)
(16.5192 -1.01626e-06 0)
(16.5206 -1.12667e-06 0)
(16.5222 -1.24503e-06 0)
(16.5239 -1.3553e-06 0)
(16.5258 -1.46251e-06 0)
(16.5278 -1.55936e-06 0)
(16.5299 -1.66165e-06 0)
(16.5322 -1.75808e-06 0)
(16.5345 -1.85361e-06 0)
(16.5371 -1.93422e-06 0)
(16.5397 -2.03238e-06 0)
(16.5425 -2.12778e-06 0)
(16.5454 -2.2258e-06 0)
(16.5484 -2.30839e-06 0)
(16.5515 -2.4145e-06 0)
(16.5548 -2.52083e-06 0)
(16.5582 -2.63453e-06 0)
(16.5618 -2.68811e-06 0)
(16.5655 -2.81029e-06 0)
(16.5693 -2.93116e-06 0)
(16.5732 -3.06325e-06 0)
(16.5773 -3.11798e-06 0)
(16.5815 -3.25473e-06 0)
(16.5859 -3.38236e-06 0)
(16.5903 -3.52719e-06 0)
(16.5949 -3.47794e-06 0)
(16.5996 -3.61708e-06 0)
(16.6044 -3.73775e-06 0)
(16.6093 -3.88735e-06 0)
(16.6143 -3.82939e-06 0)
(16.6194 -3.96364e-06 0)
(16.6245 -4.05698e-06 0)
(16.6297 -4.18345e-06 0)
(16.6349 -3.95612e-06 0)
(16.6401 -4.05362e-06 0)
(16.6454 -4.10391e-06 0)
(16.6506 -4.20256e-06 0)
(16.6558 -4.00929e-06 0)
(16.661 -4.07053e-06 0)
(16.6661 -4.05976e-06 0)
(16.6711 -4.08421e-06 0)
(16.676 -3.79991e-06 0)
(16.6808 -3.78246e-06 0)
(16.6855 -3.69015e-06 0)
(16.6901 -3.62666e-06 0)
(16.6945 -3.46541e-06 0)
(16.6987 -3.27346e-06 0)
(16.7026 -3.05694e-06 0)
(16.7065 -1.5387e-06 0)
(26.6037 0.16714 0)
(23.9491 0.00743101 0)
(22.9106 0.00132356 0)
(22.324 0.000761371 0)
(21.922 0.000547531 0)
(21.6197 0.000424673 0)
(21.3794 0.00034431 0)
(21.1815 0.000287381 0)
(21.0145 0.000244876 0)
(20.8711 0.000212001 0)
(20.7461 0.000185864 0)
(20.636 0.000164611 0)
(20.5381 0.000147004 0)
(20.4503 0.000132193 0)
(20.3712 0.000119572 0)
(20.2994 0.000108699 0)
(20.2341 9.92417e-05 0)
(20.1743 9.09458e-05 0)
(20.1194 8.36123e-05 0)
(20.0688 7.70914e-05 0)
(20.0222 7.12566e-05 0)
(19.979 6.60085e-05 0)
(19.939 6.12628e-05 0)
(19.9018 5.6957e-05 0)
(19.8672 5.30324e-05 0)
(19.835 4.94429e-05 0)
(19.8049 4.6145e-05 0)
(19.7769 4.31121e-05 0)
(19.7506 4.03116e-05 0)
(19.7261 3.77196e-05 0)
(19.7031 3.53113e-05 0)
(19.6816 3.30738e-05 0)
(19.6615 3.09875e-05 0)
(19.6426 2.90391e-05 0)
(19.6249 2.72119e-05 0)
(19.6083 2.55023e-05 0)
(19.5927 2.38963e-05 0)
(19.5782 2.23862e-05 0)
(19.5645 2.09608e-05 0)
(19.5518 1.96184e-05 0)
(19.5398 1.83497e-05 0)
(19.5286 1.71499e-05 0)
(19.5182 1.60113e-05 0)
(19.5085 1.49337e-05 0)
(19.4994 1.39103e-05 0)
(19.4909 1.29381e-05 0)
(19.4831 1.20121e-05 0)
(19.4758 1.11312e-05 0)
(19.469 1.02911e-05 0)
(19.4628 9.4897e-06 0)
(19.4571 8.72602e-06 0)
(19.4518 7.99462e-06 0)
(19.447 7.29476e-06 0)
(19.4426 6.62491e-06 0)
(19.4386 5.98548e-06 0)
(19.435 5.37005e-06 0)
(19.4318 4.77942e-06 0)
(19.429 4.2119e-06 0)
(19.4265 3.67416e-06 0)
(19.4243 3.1494e-06 0)
(19.4225 2.64454e-06 0)
(19.4209 2.15762e-06 0)
(19.4197 1.69578e-06 0)
(19.4188 1.24332e-06 0)
(19.4181 8.07985e-07 0)
(19.4177 3.87196e-07 0)
(19.4175 -4.8082e-09 0)
(19.4177 -3.96941e-07 0)
(19.418 -7.72001e-07 0)
(19.4186 -1.1343e-06 0)
(19.4194 -1.47225e-06 0)
(19.4204 -1.80722e-06 0)
(19.4216 -2.12564e-06 0)
(19.423 -2.43195e-06 0)
(19.4246 -2.71432e-06 0)
(19.4264 -2.99889e-06 0)
(19.4283 -3.26836e-06 0)
(19.4304 -3.52934e-06 0)
(19.4327 -3.77636e-06 0)
(19.4352 -4.02475e-06 0)
(19.4378 -4.2635e-06 0)
(19.4405 -4.49877e-06 0)
(19.4435 -4.71604e-06 0)
(19.4465 -4.95352e-06 0)
(19.4497 -5.18734e-06 0)
(19.4531 -5.42435e-06 0)
(19.4566 -5.64151e-06 0)
(19.4603 -5.89073e-06 0)
(19.4641 -6.14075e-06 0)
(19.4681 -6.40044e-06 0)
(19.4722 -6.57642e-06 0)
(19.4765 -6.84871e-06 0)
(19.4809 -7.11758e-06 0)
(19.4855 -7.39969e-06 0)
(19.4902 -7.5727e-06 0)
(19.4951 -7.85756e-06 0)
(19.5001 -8.12534e-06 0)
(19.5052 -8.41038e-06 0)
(19.5104 -8.42676e-06 0)
(19.5158 -8.69561e-06 0)
(19.5212 -8.9297e-06 0)
(19.5268 -9.19194e-06 0)
(19.5324 -9.17077e-06 0)
(19.5381 -9.39672e-06 0)
(19.5438 -9.55606e-06 0)
(19.5496 -9.74497e-06 0)
(19.5554 -9.46395e-06 0)
(19.5612 -9.59678e-06 0)
(19.567 -9.6505e-06 0)
(19.5728 -9.75067e-06 0)
(19.5785 -9.46966e-06 0)
(19.5842 -9.4992e-06 0)
(19.5898 -9.42038e-06 0)
(19.5953 -9.37073e-06 0)
(19.6007 -8.93646e-06 0)
(19.606 -8.81276e-06 0)
(19.6111 -8.57987e-06 0)
(19.6161 -8.36554e-06 0)
(19.6209 -8.04207e-06 0)
(19.6256 -7.58157e-06 0)
(19.6299 -7.18483e-06 0)
(19.6342 -3.60327e-06 0)
(28.9497 0.0984766 0)
(26.1304 0.00639105 0)
(24.9213 0.0023381 0)
(24.2467 0.00142135 0)
(23.7932 0.00101462 0)
(23.4561 0.00078273 0)
(23.1903 0.000632594 0)
(22.9724 0.000526941 0)
(22.7892 0.00044839 0)
(22.6322 0.000387806 0)
(22.4957 0.000339742 0)
(22.3756 0.00030072 0)
(22.2689 0.000268431 0)
(22.1734 0.000241297 0)
(22.0873 0.000218193 0)
(22.0093 0.000198302 0)
(21.9383 0.00018101 0)
(21.8733 0.000165849 0)
(21.8137 0.000152454 0)
(21.7589 0.000140546 0)
(21.7083 0.000129894 0)
(21.6615 0.000120316 0)
(21.6181 0.000111658 0)
(21.5778 0.000103803 0)
(21.5403 9.66452e-05 0)
(21.5054 9.00994e-05 0)
(21.4728 8.40884e-05 0)
(21.4424 7.85593e-05 0)
(21.414 7.34547e-05 0)
(21.3874 6.87304e-05 0)
(21.3625 6.4343e-05 0)
(21.3392 6.02656e-05 0)
(21.3174 5.64644e-05 0)
(21.2969 5.29145e-05 0)
(21.2777 4.95881e-05 0)
(21.2598 4.64738e-05 0)
(21.2429 4.35486e-05 0)
(21.2272 4.07979e-05 0)
(21.2124 3.82033e-05 0)
(21.1985 3.57585e-05 0)
(21.1856 3.34483e-05 0)
(21.1735 3.12635e-05 0)
(21.1621 2.91917e-05 0)
(21.1516 2.72296e-05 0)
(21.1417 2.53665e-05 0)
(21.1326 2.35966e-05 0)
(21.124 2.19115e-05 0)
(21.1161 2.03079e-05 0)
(21.1088 1.8779e-05 0)
(21.102 1.73205e-05 0)
(21.0958 1.59299e-05 0)
(21.09 1.45989e-05 0)
(21.0848 1.33257e-05 0)
(21.08 1.21071e-05 0)
(21.0757 1.09425e-05 0)
(21.0717 9.82312e-06 0)
(21.0682 8.74908e-06 0)
(21.0651 7.71742e-06 0)
(21.0624 6.73556e-06 0)
(21.06 5.78202e-06 0)
(21.058 4.86494e-06 0)
(21.0563 3.98122e-06 0)
(21.0549 3.13906e-06 0)
(21.0539 2.31867e-06 0)
(21.0531 1.52933e-06 0)
(21.0526 7.6732e-07 0)
(21.0524 4.97445e-08 0)
(21.0525 -6.59737e-07 0)
(21.0528 -1.33954e-06 0)
(21.0534 -1.9953e-06 0)
(21.0542 -2.61327e-06 0)
(21.0552 -3.22032e-06 0)
(21.0565 -3.80012e-06 0)
(21.058 -4.3587e-06 0)
(21.0597 -4.88118e-06 0)
(21.0615 -5.40161e-06 0)
(21.0636 -5.89879e-06 0)
(21.0659 -6.38136e-06 0)
(21.0683 -6.84227e-06 0)
(21.0709 -7.30269e-06 0)
(21.0737 -7.74894e-06 0)
(21.0767 -8.18907e-06 0)
(21.0798 -8.60183e-06 0)
(21.0831 -9.04189e-06 0)
(21.0866 -9.47634e-06 0)
(21.0902 -9.91416e-06 0)
(21.094 -1.03224e-05 0)
(21.0979 -1.07734e-05 0)
(21.102 -1.12232e-05 0)
(21.1063 -1.16838e-05 0)
(21.1107 -1.2029e-05 0)
(21.1153 -1.25009e-05 0)
(21.12 -1.29628e-05 0)
(21.1249 -1.34382e-05 0)
(21.1299 -1.37642e-05 0)
(21.1351 -1.42329e-05 0)
(21.1404 -1.46699e-05 0)
(21.1458 -1.51225e-05 0)
(21.1514 -1.5219e-05 0)
(21.157 -1.5636e-05 0)
(21.1627 -1.59947e-05 0)
(21.1686 -1.63806e-05 0)
(21.1745 -1.63925e-05 0)
(21.1804 -1.67122e-05 0)
(21.1864 -1.69315e-05 0)
(21.1924 -1.71779e-05 0)
(21.1985 -1.68168e-05 0)
(21.2045 -1.6971e-05 0)
(21.2106 -1.70082e-05 0)
(21.2166 -1.70934e-05 0)
(21.2225 -1.66877e-05 0)
(21.2284 -1.66622e-05 0)
(21.2342 -1.64869e-05 0)
(21.24 -1.6339e-05 0)
(21.2456 -1.57021e-05 0)
(21.2511 -1.54417e-05 0)
(21.2565 -1.50371e-05 0)
(21.2618 -1.46453e-05 0)
(21.2669 -1.4113e-05 0)
(21.2718 -1.33247e-05 0)
(21.2764 -1.27245e-05 0)
(21.2811 -6.42878e-06 0)
(30.6449 0.0459572 0)
(27.8131 0.00831863 0)
(26.4561 0.00392316 0)
(25.6943 0.00237911 0)
(25.1892 0.00168081 0)
(24.8184 0.00128804 0)
(24.5284 0.00103664 0)
(24.2922 0.000861124 0)
(24.0944 0.00073134 0)
(23.9254 0.000631623 0)
(23.7788 0.000552739 0)
(23.6501 0.000488833 0)
(23.5359 0.000436046 0)
(23.4338 0.000391747 0)
(23.3419 0.000354073 0)
(23.2586 0.000321669 0)
(23.1829 0.000293521 0)
(23.1137 0.00026886 0)
(23.0503 0.000247086 0)
(22.9919 0.000227739 0)
(22.9381 0.000210441 0)
(22.8883 0.000194892 0)
(22.8421 0.000180845 0)
(22.7993 0.000168103 0)
(22.7594 0.000156496 0)
(22.7223 0.000145884 0)
(22.6877 0.000136143 0)
(22.6554 0.000127184 0)
(22.6252 0.000118915 0)
(22.597 0.000111263 0)
(22.5705 0.000104159 0)
(22.5458 9.7557e-05 0)
(22.5226 9.14034e-05 0)
(22.5009 8.56572e-05 0)
(22.4805 8.02755e-05 0)
(22.4614 7.52357e-05 0)
(22.4436 7.05028e-05 0)
(22.4268 6.60524e-05 0)
(22.4111 6.18565e-05 0)
(22.3964 5.7902e-05 0)
(22.3826 5.41657e-05 0)
(22.3697 5.06325e-05 0)
(22.3577 4.72833e-05 0)
(22.3465 4.41108e-05 0)
(22.336 4.10988e-05 0)
(22.3262 3.82375e-05 0)
(22.3171 3.5514e-05 0)
(22.3087 3.29221e-05 0)
(22.3009 3.04511e-05 0)
(22.2937 2.80942e-05 0)
(22.287 2.58461e-05 0)
(22.2809 2.36956e-05 0)
(22.2753 2.16386e-05 0)
(22.2702 1.967e-05 0)
(22.2655 1.77876e-05 0)
(22.2613 1.59797e-05 0)
(22.2576 1.42453e-05 0)
(22.2542 1.25796e-05 0)
(22.2513 1.09905e-05 0)
(22.2487 9.45158e-06 0)
(22.2465 7.97185e-06 0)
(22.2447 6.54666e-06 0)
(22.2432 5.18498e-06 0)
(22.242 3.86284e-06 0)
(22.2411 2.59072e-06 0)
(22.2406 1.36348e-06 0)
(22.2403 2.00471e-07 0)
(22.2403 -9.42007e-07 0)
(22.2406 -2.03808e-06 0)
(22.2411 -3.09472e-06 0)
(22.2419 -4.0965e-06 0)
(22.243 -5.07587e-06 0)
(22.2442 -6.01414e-06 0)
(22.2457 -6.91917e-06 0)
(22.2475 -7.77346e-06 0)
(22.2494 -8.61877e-06 0)
(22.2515 -9.43036e-06 0)
(22.2539 -1.02191e-05 0)
(22.2564 -1.09767e-05 0)
(22.2591 -1.173e-05 0)
(22.262 -1.24627e-05 0)
(22.2651 -1.3185e-05 0)
(22.2684 -1.387e-05 0)
(22.2718 -1.45865e-05 0)
(22.2754 -1.52935e-05 0)
(22.2792 -1.60022e-05 0)
(22.2832 -1.66711e-05 0)
(22.2873 -1.73899e-05 0)
(22.2916 -1.8103e-05 0)
(22.2961 -1.88255e-05 0)
(22.3007 -1.94031e-05 0)
(22.3054 -2.01298e-05 0)
(22.3104 -2.0837e-05 0)
(22.3154 -2.15548e-05 0)
(22.3206 -2.20842e-05 0)
(22.326 -2.27785e-05 0)
(22.3314 -2.34232e-05 0)
(22.337 -2.40779e-05 0)
(22.3427 -2.42951e-05 0)
(22.3485 -2.48863e-05 0)
(22.3544 -2.53925e-05 0)
(22.3604 -2.59211e-05 0)
(22.3664 -2.59887e-05 0)
(22.3725 -2.64125e-05 0)
(22.3787 -2.66991e-05 0)
(22.3848 -2.70067e-05 0)
(22.391 -2.65769e-05 0)
(22.3972 -2.67477e-05 0)
(22.4034 -2.67615e-05 0)
(22.4096 -2.68221e-05 0)
(22.4157 -2.6285e-05 0)
(22.4218 -2.61878e-05 0)
(22.4278 -2.58977e-05 0)
(22.4337 -2.56313e-05 0)
(22.4396 -2.47734e-05 0)
(22.4453 -2.43512e-05 0)
(22.451 -2.3749e-05 0)
(22.4565 -2.31512e-05 0)
(22.4619 -2.23802e-05 0)
(22.4672 -2.11914e-05 0)
(22.4721 -2.03825e-05 0)
(22.4772 -1.03483e-05 0)
(31.9342 0.0469922 0)
(29.2283 0.0125097 0)
(27.7543 0.00606046 0)
(26.9065 0.00365719 0)
(26.348 0.00255943 0)
(25.9421 0.00194753 0)
(25.6273 0.00155993 0)
(25.3724 0.00129159 0)
(25.1601 0.00109437 0)
(24.9793 0.000943508 0)
(24.8229 0.000824564 0)
(24.6858 0.000728457 0)
(24.5645 0.000649238 0)
(24.4562 0.000582871 0)
(24.3587 0.00052651 0)
(24.2706 0.00047809 0)
(24.1905 0.000436073 0)
(24.1174 0.000399293 0)
(24.0504 0.000366844 0)
(23.9888 0.00033803 0)
(23.9319 0.000312284 0)
(23.8794 0.000289154 0)
(23.8308 0.000268267 0)
(23.7856 0.00024933 0)
(23.7436 0.000232085 0)
(23.7045 0.000216325 0)
(23.6681 0.000201864 0)
(23.634 0.000188567 0)
(23.6022 0.000176296 0)
(23.5725 0.000164944 0)
(23.5447 0.00015441 0)
(23.5186 0.00014462 0)
(23.4942 0.000135498 0)
(23.4713 0.00012698 0)
(23.4499 0.000119006 0)
(23.4298 0.000111539 0)
(23.411 0.000104527 0)
(23.3933 9.79348e-05 0)
(23.3768 9.17214e-05 0)
(23.3613 8.58652e-05 0)
(23.3468 8.03331e-05 0)
(23.3332 7.5102e-05 0)
(23.3205 7.0145e-05 0)
(23.3087 6.54492e-05 0)
(23.2976 6.09915e-05 0)
(23.2873 5.6757e-05 0)
(23.2777 5.27274e-05 0)
(23.2688 4.88925e-05 0)
(23.2606 4.5237e-05 0)
(23.2529 4.17505e-05 0)
(23.2459 3.84244e-05 0)
(23.2394 3.52437e-05 0)
(23.2335 3.22018e-05 0)
(23.228 2.92908e-05 0)
(23.2231 2.65063e-05 0)
(23.2186 2.38335e-05 0)
(23.2146 2.12696e-05 0)
(23.211 1.88079e-05 0)
(23.2079 1.64557e-05 0)
(23.2051 1.41821e-05 0)
(23.2027 1.19962e-05 0)
(23.2007 9.89159e-06 0)
(23.1991 7.87766e-06 0)
(23.1978 5.92616e-06 0)
(23.1968 4.04843e-06 0)
(23.1961 2.23757e-06 0)
(23.1958 5.14856e-07 0)
(23.1957 -1.17117e-06 0)
(23.1959 -2.79058e-06 0)
(23.1964 -4.3514e-06 0)
(23.1972 -5.83685e-06 0)
(23.1982 -7.28519e-06 0)
(23.1995 -8.67558e-06 0)
(23.201 -1.0018e-05 0)
(23.2027 -1.12925e-05 0)
(23.2047 -1.25487e-05 0)
(23.2069 -1.3758e-05 0)
(23.2092 -1.49341e-05 0)
(23.2118 -1.60673e-05 0)
(23.2146 -1.719e-05 0)
(23.2176 -1.82834e-05 0)
(23.2208 -1.93596e-05 0)
(23.2241 -2.03869e-05 0)
(23.2276 -2.1447e-05 0)
(23.2314 -2.2491e-05 0)
(23.2353 -2.35323e-05 0)
(23.2393 -2.4522e-05 0)
(23.2436 -2.5565e-05 0)
(23.248 -2.65947e-05 0)
(23.2525 -2.76299e-05 0)
(23.2573 -2.84913e-05 0)
(23.2621 -2.95178e-05 0)
(23.2672 -3.05123e-05 0)
(23.2724 -3.15119e-05 0)
(23.2777 -3.22853e-05 0)
(23.2831 -3.3239e-05 0)
(23.2887 -3.41225e-05 0)
(23.2944 -3.50088e-05 0)
(23.3002 -3.53822e-05 0)
(23.3061 -3.61717e-05 0)
(23.3121 -3.68474e-05 0)
(23.3181 -3.75395e-05 0)
(23.3243 -3.76888e-05 0)
(23.3305 -3.82334e-05 0)
(23.3367 -3.86023e-05 0)
(23.343 -3.89858e-05 0)
(23.3493 -3.85119e-05 0)
(23.3557 -3.87098e-05 0)
(23.362 -3.87099e-05 0)
(23.3683 -3.87549e-05 0)
(23.3746 -3.81014e-05 0)
(23.3809 -3.79387e-05 0)
(23.3871 -3.75394e-05 0)
(23.3932 -3.71598e-05 0)
(23.3993 -3.60913e-05 0)
(23.4053 -3.55099e-05 0)
(23.4113 -3.47124e-05 0)
(23.4171 -3.39088e-05 0)
(23.4228 -3.2899e-05 0)
(23.4284 -3.127e-05 0)
(23.4337 -3.02709e-05 0)
(23.4392 -1.54226e-05 0)
(32.9266 0.0603716 0)
(30.4695 0.0174492 0)
(28.9196 0.00880608 0)
(27.99 0.00533476 0)
(27.3757 0.00370685 0)
(26.9322 0.00280126 0)
(26.5909 0.00223228 0)
(26.3162 0.00184148 0)
(26.0885 0.00155608 0)
(25.8954 0.00133882 0)
(25.7288 0.00116818 0)
(25.5832 0.00103071 0)
(25.4546 0.000917682 0)
(25.3399 0.000823178 0)
(25.2369 0.000743055 0)
(25.1439 0.00067432 0)
(25.0594 0.000614746 0)
(24.9824 0.000562652 0)
(24.9118 0.000516737 0)
(24.847 0.000475996 0)
(24.7873 0.00043962 0)
(24.7321 0.00040696 0)
(24.6809 0.000377487 0)
(24.6335 0.000350777 0)
(24.5894 0.000326466 0)
(24.5484 0.000304256 0)
(24.5101 0.000283889 0)
(24.4744 0.000265165 0)
(24.4411 0.000247892 0)
(24.4099 0.000231918 0)
(24.3807 0.000217099 0)
(24.3534 0.000203331 0)
(24.3278 0.000190504 0)
(24.3038 0.000178531 0)
(24.2813 0.000167326 0)
(24.2602 0.000156833 0)
(24.2405 0.000146982 0)
(24.2219 0.000137722 0)
(24.2046 0.000128997 0)
(24.1883 0.000120774 0)
(24.1731 0.000113007 0)
(24.1588 0.000105664 0)
(24.1455 9.87079e-05 0)
(24.1331 9.21179e-05 0)
(24.1215 8.58632e-05 0)
(24.1106 7.99221e-05 0)
(24.1005 7.42697e-05 0)
(24.0912 6.88905e-05 0)
(24.0825 6.37638e-05 0)
(24.0744 5.88745e-05 0)
(24.067 5.42098e-05 0)
(24.0601 4.97503e-05 0)
(24.0539 4.5486e-05 0)
(24.0481 4.14054e-05 0)
(24.0429 3.75015e-05 0)
(24.0381 3.37556e-05 0)
(24.0339 3.01629e-05 0)
(24.0301 2.67139e-05 0)
(24.0267 2.34152e-05 0)
(24.0237 2.02307e-05 0)
(24.0211 1.71696e-05 0)
(24.019 1.4223e-05 0)
(24.0171 1.14004e-05 0)
(24.0157 8.66909e-06 0)
(24.0146 6.04089e-06 0)
(24.0138 3.50673e-06 0)
(24.0133 1.08971e-06 0)
(24.0132 -1.27022e-06 0)
(24.0133 -3.53943e-06 0)
(24.0138 -5.72656e-06 0)
(24.0145 -7.81363e-06 0)
(24.0154 -9.84505e-06 0)
(24.0167 -1.17979e-05 0)
(24.0182 -1.36847e-05 0)
(24.0199 -1.54831e-05 0)
(24.0218 -1.72507e-05 0)
(24.024 -1.89551e-05 0)
(24.0264 -2.06127e-05 0)
(24.029 -2.22125e-05 0)
(24.0318 -2.3793e-05 0)
(24.0348 -2.53319e-05 0)
(24.0381 -2.68441e-05 0)
(24.0415 -2.82928e-05 0)
(24.0451 -2.97725e-05 0)
(24.0488 -3.12258e-05 0)
(24.0528 -3.26694e-05 0)
(24.0569 -3.40468e-05 0)
(24.0612 -3.54775e-05 0)
(24.0657 -3.68842e-05 0)
(24.0704 -3.82898e-05 0)
(24.0752 -3.94916e-05 0)
(24.0801 -4.08702e-05 0)
(24.0852 -4.22011e-05 0)
(24.0905 -4.35301e-05 0)
(24.0958 -4.45943e-05 0)
(24.1014 -4.58504e-05 0)
(24.107 -4.70134e-05 0)
(24.1128 -4.8171e-05 0)
(24.1186 -4.87431e-05 0)
(24.1246 -4.97666e-05 0)
(24.1307 -5.06461e-05 0)
(24.1368 -5.15358e-05 0)
(24.1431 -5.18033e-05 0)
(24.1494 -5.24994e-05 0)
(24.1557 -5.29801e-05 0)
(24.1621 -5.34691e-05 0)
(24.1685 -5.29859e-05 0)
(24.175 -5.32368e-05 0)
(24.1815 -5.32477e-05 0)
(24.188 -5.33017e-05 0)
(24.1944 -5.25588e-05 0)
(24.2009 -5.23514e-05 0)
(24.2073 -5.18618e-05 0)
(24.2137 -5.13873e-05 0)
(24.22 -5.01284e-05 0)
(24.2263 -4.94016e-05 0)
(24.2325 -4.84208e-05 0)
(24.2387 -4.74197e-05 0)
(24.2447 -4.61782e-05 0)
(24.2507 -4.40705e-05 0)
(24.2563 -4.29042e-05 0)
(24.2622 -2.19184e-05 0)
(33.6709 0.0694784 0)
(31.5724 0.022704 0)
(30.0008 0.0122434 0)
(28.9993 0.00751391 0)
(28.3282 0.00520147 0)
(27.8445 0.00390706 0)
(27.4742 0.00309741 0)
(27.1779 0.00254504 0)
(26.9335 0.00214414 0)
(26.727 0.00184049 0)
(26.5495 0.00160296 0)
(26.3948 0.00141224 0)
(26.2583 0.00125586 0)
(26.137 0.00112541 0)
(26.0282 0.00101502 0)
(25.93 0.000920478 0)
(25.841 0.000838653 0)
(25.7598 0.000767189 0)
(25.6856 0.000704272 0)
(25.6174 0.000648497 0)
(25.5547 0.000598738 0)
(25.4967 0.000554099 0)
(25.443 0.000513842 0)
(25.3933 0.000477381 0)
(25.347 0.000444215 0)
(25.304 0.000413931 0)
(25.2639 0.000386173 0)
(25.2265 0.000360664 0)
(25.1916 0.000337142 0)
(25.1589 0.000315396 0)
(25.1283 0.000295232 0)
(25.0997 0.000276501 0)
(25.0729 0.000259057 0)
(25.0477 0.000242778 0)
(25.0242 0.000227549 0)
(25.0021 0.000213289 0)
(24.9814 0.000199907 0)
(24.962 0.000187328 0)
(24.9438 0.000175481 0)
(24.9268 0.000164316 0)
(24.9108 0.000153772 0)
(24.8959 0.000143806 0)
(24.8819 0.000134366 0)
(24.8688 0.000125425 0)
(24.8566 0.00011694 0)
(24.8453 0.000108881 0)
(24.8347 0.000101215 0)
(24.8248 9.39208e-05 0)
(24.8156 8.69699e-05 0)
(24.8072 8.03415e-05 0)
(24.7993 7.40178e-05 0)
(24.7921 6.79735e-05 0)
(24.7855 6.21946e-05 0)
(24.7794 5.66652e-05 0)
(24.7738 5.13749e-05 0)
(24.7688 4.63003e-05 0)
(24.7642 4.14339e-05 0)
(24.7602 3.67628e-05 0)
(24.7565 3.22924e-05 0)
(24.7533 2.79809e-05 0)
(24.7506 2.38369e-05 0)
(24.7482 1.98487e-05 0)
(24.7462 1.60255e-05 0)
(24.7446 1.23296e-05 0)
(24.7433 8.77303e-06 0)
(24.7424 5.3441e-06 0)
(24.7418 2.06765e-06 0)
(24.7416 -1.12595e-06 0)
(24.7416 -4.20007e-06 0)
(24.7419 -7.16348e-06 0)
(24.7426 -9.99684e-06 0)
(24.7435 -1.27512e-05 0)
(24.7446 -1.54016e-05 0)
(24.7461 -1.79634e-05 0)
(24.7477 -2.04119e-05 0)
(24.7497 -2.28131e-05 0)
(24.7518 -2.51306e-05 0)
(24.7542 -2.73836e-05 0)
(24.7568 -2.95598e-05 0)
(24.7596 -3.17042e-05 0)
(24.7627 -3.37907e-05 0)
(24.7659 -3.58371e-05 0)
(24.7693 -3.78015e-05 0)
(24.7729 -3.97918e-05 0)
(24.7768 -4.17415e-05 0)
(24.7807 -4.3671e-05 0)
(24.7849 -4.55162e-05 0)
(24.7893 -4.74118e-05 0)
(24.7938 -4.92689e-05 0)
(24.7985 -5.11162e-05 0)
(24.8033 -5.27276e-05 0)
(24.8083 -5.45239e-05 0)
(24.8134 -5.62541e-05 0)
(24.8187 -5.79742e-05 0)
(24.8242 -5.93898e-05 0)
(24.8297 -6.10058e-05 0)
(24.8354 -6.25035e-05 0)
(24.8412 -6.39876e-05 0)
(24.8472 -6.4815e-05 0)
(24.8532 -6.6124e-05 0)
(24.8593 -6.72571e-05 0)
(24.8655 -6.83948e-05 0)
(24.8719 -6.88317e-05 0)
(24.8782 -6.97264e-05 0)
(24.8847 -7.03639e-05 0)
(24.8912 -7.10038e-05 0)
(24.8978 -7.05594e-05 0)
(24.9044 -7.09037e-05 0)
(24.911 -7.09636e-05 0)
(24.9176 -7.10645e-05 0)
(24.9243 -7.02697e-05 0)
(24.9309 -7.00495e-05 0)
(24.9376 -6.94982e-05 0)
(24.9442 -6.89556e-05 0)
(24.9508 -6.7532e-05 0)
(24.9573 -6.66795e-05 0)
(24.9638 -6.5531e-05 0)
(24.9702 -6.43426e-05 0)
(24.9766 -6.28764e-05 0)
(24.9829 -6.0243e-05 0)
(24.9889 -5.89286e-05 0)
(24.9951 -3.01667e-05 0)
(34.1947 0.0755308 0)
(32.5411 0.0282332 0)
(31.0182 0.016421 0)
(29.9639 0.010304 0)
(29.2379 0.00713878 0)
(28.712 0.00533866 0)
(28.3102 0.00421211 0)
(27.9902 0.00344701 0)
(27.7273 0.0028947 0)
(27.5061 0.0024784 0)
(27.3165 0.0021541 0)
(27.1518 0.00189464 0)
(27.0068 0.00168251 0)
(26.8782 0.00150601 0)
(26.763 0.00135698 0)
(26.6593 0.00122958 0)
(26.5653 0.00111949 0)
(26.4798 0.00102348 0)
(26.4016 0.000939055 0)
(26.3299 0.000864297 0)
(26.2639 0.000797669 0)
(26.203 0.000737947 0)
(26.1466 0.000684135 0)
(26.0944 0.000635429 0)
(26.0459 0.000591154 0)
(26.0007 0.000550751 0)
(25.9587 0.000513741 0)
(25.9194 0.000479744 0)
(25.8828 0.000448411 0)
(25.8486 0.000419456 0)
(25.8165 0.00039262 0)
(25.7865 0.000367699 0)
(25.7584 0.000344498 0)
(25.7321 0.000322854 0)
(25.7074 0.000302614 0)
(25.6843 0.000283666 0)
(25.6626 0.000265889 0)
(25.6423 0.000249184 0)
(25.6232 0.000233455 0)
(25.6053 0.000218634 0)
(25.5886 0.000204642 0)
(25.5729 0.000191417 0)
(25.5582 0.000178896 0)
(25.5445 0.000167037 0)
(25.5317 0.000155785 0)
(25.5197 0.0001451 0)
(25.5086 0.000134939 0)
(25.4982 0.00012527 0)
(25.4886 0.000116059 0)
(25.4796 0.000107276 0)
(25.4714 9.88974e-05 0)
(25.4637 9.0891e-05 0)
(25.4567 8.32371e-05 0)
(25.4502 7.59145e-05 0)
(25.4443 6.89086e-05 0)
(25.439 6.21901e-05 0)
(25.4341 5.57483e-05 0)
(25.4298 4.95658e-05 0)
(25.4259 4.36463e-05 0)
(25.4224 3.79416e-05 0)
(25.4194 3.24591e-05 0)
(25.4168 2.71836e-05 0)
(25.4146 2.21236e-05 0)
(25.4128 1.72357e-05 0)
(25.4114 1.2532e-05 0)
(25.4103 7.99734e-06 0)
(25.4095 3.65831e-06 0)
(25.4091 -5.64985e-07 0)
(25.409 -4.63426e-06 0)
(25.4093 -8.55848e-06 0)
(25.4098 -1.23159e-05 0)
(25.4106 -1.59648e-05 0)
(25.4117 -1.94784e-05 0)
(25.413 -2.28753e-05 0)
(25.4146 -2.6128e-05 0)
(25.4165 -2.93124e-05 0)
(25.4186 -3.23867e-05 0)
(25.421 -3.5374e-05 0)
(25.4235 -3.82599e-05 0)
(25.4263 -4.10974e-05 0)
(25.4293 -4.38553e-05 0)
(25.4326 -4.65553e-05 0)
(25.436 -4.91497e-05 0)
(25.4396 -5.17614e-05 0)
(25.4434 -5.43132e-05 0)
(25.4474 -5.68308e-05 0)
(25.4516 -5.92417e-05 0)
(25.456 -6.16971e-05 0)
(25.4605 -6.40957e-05 0)
(25.4652 -6.64731e-05 0)
(25.47 -6.85801e-05 0)
(25.4751 -7.08772e-05 0)
(25.4802 -7.30868e-05 0)
(25.4855 -7.52769e-05 0)
(25.491 -7.71214e-05 0)
(25.4966 -7.91726e-05 0)
(25.5023 -8.1078e-05 0)
(25.5082 -8.29615e-05 0)
(25.5141 -8.41179e-05 0)
(25.5202 -8.5782e-05 0)
(25.5264 -8.72362e-05 0)
(25.5327 -8.86901e-05 0)
(25.5391 -8.93644e-05 0)
(25.5456 -9.05221e-05 0)
(25.5521 -9.13779e-05 0)
(25.5587 -9.22303e-05 0)
(25.5654 -9.18869e-05 0)
(25.5721 -9.23801e-05 0)
(25.5789 -9.25406e-05 0)
(25.5857 -9.27393e-05 0)
(25.5925 -9.19408e-05 0)
(25.5993 -9.17504e-05 0)
(25.6062 -9.11745e-05 0)
(25.613 -9.05982e-05 0)
(25.6198 -8.904e-05 0)
(25.6266 -8.80858e-05 0)
(25.6333 -8.67873e-05 0)
(25.64 -8.54226e-05 0)
(25.6467 -8.37361e-05 0)
(25.6533 -8.05195e-05 0)
(25.6596 -7.90704e-05 0)
(25.6661 -4.05467e-05 0)
(34.5334 0.0801402 0)
(33.3602 0.0337828 0)
(31.9723 0.0212954 0)
(30.8975 0.0138032 0)
(30.1241 0.00962832 0)
(29.5557 0.00718747 0)
(29.1205 0.00564903 0)
(28.7745 0.00460538 0)
(28.4912 0.00385487 0)
(28.2535 0.00329156 0)
(28.0506 0.00285447 0)
(27.8746 0.002506 0)
(27.7203 0.002222 0)
(27.5835 0.00198632 0)
(27.4613 0.0017878 0)
(27.3515 0.00161843 0)
(27.2521 0.00147234 0)
(27.1617 0.00134513 0)
(27.0792 0.00123343 0)
(27.0035 0.00113465 0)
(26.934 0.00104671 0)
(26.8699 0.000967958 0)
(26.8106 0.000897067 0)
(26.7556 0.000832957 0)
(26.7047 0.000774722 0)
(26.6572 0.000721618 0)
(26.6131 0.000673007 0)
(26.5719 0.000628377 0)
(26.5334 0.000587268 0)
(26.4975 0.000549297 0)
(26.4638 0.000514122 0)
(26.4324 0.000481472 0)
(26.4029 0.000451087 0)
(26.3753 0.000422753 0)
(26.3494 0.000396267 0)
(26.3251 0.00037148 0)
(26.3023 0.00034823 0)
(26.281 0.000326391 0)
(26.261 0.000305834 0)
(26.2422 0.000286467 0)
(26.2246 0.000268189 0)
(26.2081 0.000250918 0)
(26.1927 0.00023457 0)
(26.1783 0.000219089 0)
(26.1648 0.000204404 0)
(26.1522 0.000190461 0)
(26.1404 0.000177205 0)
(26.1295 0.000164594 0)
(26.1193 0.000152581 0)
(26.1098 0.00014113 0)
(26.1011 0.000130206 0)
(26.093 0.00011977 0)
(26.0855 0.000109795 0)
(26.0786 0.000100253 0)
(26.0724 9.11242e-05 0)
(26.0666 8.23724e-05 0)
(26.0614 7.39822e-05 0)
(26.0567 6.5931e-05 0)
(26.0525 5.82198e-05 0)
(26.0488 5.07932e-05 0)
(26.0455 4.36566e-05 0)
(26.0427 3.67905e-05 0)
(26.0402 3.02022e-05 0)
(26.0382 2.3842e-05 0)
(26.0366 1.77211e-05 0)
(26.0353 1.18205e-05 0)
(26.0343 6.1683e-06 0)
(26.0338 6.74366e-07 0)
(26.0335 -4.62369e-06 0)
(26.0336 -9.73617e-06 0)
(26.034 -1.46366e-05 0)
(26.0347 -1.93915e-05 0)
(26.0356 -2.39721e-05 0)
(26.0369 -2.84009e-05 0)
(26.0384 -3.26472e-05 0)
(26.0402 -3.67981e-05 0)
(26.0422 -4.08057e-05 0)
(26.0445 -4.46977e-05 0)
(26.047 -4.84568e-05 0)
(26.0497 -5.21456e-05 0)
(26.0527 -5.57269e-05 0)
(26.0559 -5.9227e-05 0)
(26.0593 -6.25914e-05 0)
(26.0629 -6.59605e-05 0)
(26.0667 -6.92448e-05 0)
(26.0706 -7.24766e-05 0)
(26.0748 -7.55742e-05 0)
(26.0792 -7.87071e-05 0)
(26.0837 -8.17602e-05 0)
(26.0884 -8.4778e-05 0)
(26.0932 -8.74877e-05 0)
(26.0982 -9.039e-05 0)
(26.1034 -9.318e-05 0)
(26.1087 -9.59399e-05 0)
(26.1142 -9.83114e-05 0)
(26.1198 -0.000100894 0)
(26.1256 -0.0001033 0)
(26.1315 -0.000105676 0)
(26.1375 -0.000107255 0)
(26.1436 -0.000109363 0)
(26.1498 -0.000111226 0)
(26.1562 -0.000113083 0)
(26.1626 -0.000114082 0)
(26.1691 -0.000115585 0)
(26.1758 -0.000116739 0)
(26.1825 -0.000117882 0)
(26.1892 -0.000117718 0)
(26.1961 -0.000118431 0)
(26.203 -0.000118758 0)
(26.2099 -0.000119118 0)
(26.2169 -0.000118376 0)
(26.2239 -0.000118268 0)
(26.2309 -0.000117714 0)
(26.2379 -0.000117147 0)
(26.2449 -0.000115489 0)
(26.2519 -0.000114461 0)
(26.2589 -0.000113033 0)
(26.2658 -0.000111504 0)
(26.2727 -0.000109599 0)
(26.2796 -0.00010573 0)
(26.2861 -0.000104155 0)
(26.293 -5.34877e-05 0)
(34.7383 0.0835127 0)
(34.0044 0.0389143 0)
(32.8456 0.0266757 0)
(31.8006 0.0180608 0)
(30.9964 0.0127823 0)
(30.3892 0.00956165 0)
(29.9198 0.00749912 0)
(29.546 0.00609465 0)
(29.2402 0.0050859 0)
(28.9844 0.00433096 0)
(28.7664 0.00374712 0)
(28.578 0.00328318 0)
(28.413 0.00290621 0)
(28.2672 0.00259425 0)
(28.1371 0.00233211 0)
(28.0204 0.00210896 0)
(27.9149 0.00191685 0)
(27.8191 0.00174986 0)
(27.7318 0.00160346 0)
(27.6518 0.00147416 0)
(27.5783 0.0013592 0)
(27.5106 0.00125638 0)
(27.4481 0.00116391 0)
(27.3901 0.00108036 0)
(27.3364 0.00100454 0)
(27.2864 0.000935449 0)
(27.2399 0.000872253 0)
(27.1966 0.000814271 0)
(27.1561 0.000760896 0)
(27.1183 0.000711625 0)
(27.0829 0.000666008 0)
(27.0498 0.000623686 0)
(27.0188 0.000584318 0)
(26.9898 0.000547624 0)
(26.9625 0.00051334 0)
(26.937 0.000481265 0)
(26.913 0.000451192 0)
(26.8905 0.000422951 0)
(26.8695 0.00039638 0)
(26.8497 0.000371354 0)
(26.8312 0.000347742 0)
(26.8138 0.000325437 0)
(26.7975 0.000304331 0)
(26.7823 0.000284348 0)
(26.7681 0.000265397 0)
(26.7548 0.000247409 0)
(26.7423 0.000230311 0)
(26.7307 0.000214048 0)
(26.72 0.00019856 0)
(26.7099 0.000183799 0)
(26.7006 0.000169719 0)
(26.692 0.000156272 0)
(26.6841 0.000143421 0)
(26.6767 0.00013113 0)
(26.67 0.000119372 0)
(26.6639 0.000108103 0)
(26.6583 9.73015e-05 0)
(26.6532 8.69379e-05 0)
(26.6487 7.70097e-05 0)
(26.6446 6.74534e-05 0)
(26.641 5.82714e-05 0)
(26.6379 4.94387e-05 0)
(26.6352 4.09608e-05 0)
(26.6328 3.27807e-05 0)
(26.6309 2.49083e-05 0)
(26.6294 1.73198e-05 0)
(26.6283 1.00439e-05 0)
(26.6275 2.98161e-06 0)
(26.627 -3.83323e-06 0)
(26.6269 -1.0415e-05 0)
(26.6271 -1.67292e-05 0)
(26.6277 -2.28517e-05 0)
(26.6285 -2.87512e-05 0)
(26.6296 -3.44553e-05 0)
(26.631 -3.99293e-05 0)
(26.6327 -4.52733e-05 0)
(26.6346 -5.04324e-05 0)
(26.6368 -5.54395e-05 0)
(26.6392 -6.02739e-05 0)
(26.6419 -6.50096e-05 0)
(26.6447 -6.96022e-05 0)
(26.6479 -7.40838e-05 0)
(26.6512 -7.83918e-05 0)
(26.6547 -8.2687e-05 0)
(26.6585 -8.68657e-05 0)
(26.6624 -9.09682e-05 0)
(26.6665 -9.49029e-05 0)
(26.6708 -9.88597e-05 0)
(26.6753 -0.000102708 0)
(26.68 -0.000106504 0)
(26.6848 -0.000109951 0)
(26.6898 -0.000113588 0)
(26.695 -0.000117085 0)
(26.7003 -0.00012054 0)
(26.7058 -0.000123561 0)
(26.7114 -0.000126794 0)
(26.7171 -0.000129818 0)
(26.723 -0.000132803 0)
(26.7291 -0.000134921 0)
(26.7352 -0.000137586 0)
(26.7415 -0.000139965 0)
(26.7478 -0.000142335 0)
(26.7543 -0.000143766 0)
(26.7609 -0.000145718 0)
(26.7676 -0.000147267 0)
(26.7744 -0.0001488 0)
(26.7812 -0.000148911 0)
(26.7882 -0.000149931 0)
(26.7951 -0.000150506 0)
(26.8022 -0.000151108 0)
(26.8093 -0.000150495 0)
(26.8164 -0.000150536 0)
(26.8236 -0.000150061 0)
(26.8308 -0.000149553 0)
(26.8379 -0.000147838 0)
(26.8451 -0.000146772 0)
(26.8523 -0.000145238 0)