/*--------------------------------*- C++ -*----------------------------------*\
  =========                 |
  \\      /  F ield         | OpenFOAM: The Open Source CFD Toolbox
   \\    /   O peration     | Website:  https://openfoam.org
    \\  /    A nd           | Version:  7
     \\/     M anipulation  |
\*---------------------------------------------------------------------------*/
FoamFile
{
    version     2.0;
    format      ascii;
    class       volScalarField;
    location    "1.4";
    object      T;
}
// * * * * * * * * * * * * * * * * * * * * * * * * * * * * * * * * * * * * * //

dimensions      [0 0 0 1 0 0 0];

internalField   nonuniform List<scalar> 
32100
(
-1.54167e+30
-2.0421e+29
3.28023e+28
-1.81602e+27
-2.31297e+26
3.94939e+25
2.39627e+24
-5.12364e+23
3.71813e+22
3.58584e+21
-4.08009e+20
-5.50236e+18
2.94655e+16
7.25579e+16
1.92442e+16
-2.36939e+29
3.57593e+28
-1.85959e+27
-2.46614e+26
4.0449e+25
2.51468e+24
-5.2773e+23
3.75823e+22
3.42627e+21
-7.90464e+20
-1.75302e+20
-9.02656e+18
6.15973e+17
7.32712e+16
1.88575e+16
3.93574e+28
-1.93127e+27
-2.68266e+26
4.18527e+25
2.65028e+24
-5.50579e+23
3.8769e+22
3.71195e+21
-7.48509e+20
-9.56936e+19
-4.59023e+19
-5.15036e+18
9.79557e+17
4.31641e+16
1.51892e+16
-2.02289e+27
-3.16035e+26
4.29368e+25
3.04108e+24
-5.87849e+23
3.52457e+22
4.46068e+21
-5.92998e+20
-4.76171e+19
1.6906e+18
-1.11264e+19
-1.11501e+18
9.09121e+17
1.38431e+16
1.03145e+16
-4.36331e+26
2.95846e+25
2.73493e+24
-4.26883e+23
2.39331e+22
3.51682e+20
-8.33708e+19
8.51919e+19
1.22901e+19
-1.06589e+18
-5.48068e+17
5.01892e+17
5.96984e+17
-6.80368e+15
5.00308e+15
-4.06007e+25
-1.20284e+25
-1.12575e+24
2.09775e+23
-9.10616e+21
-4.46466e+21
5.39834e+20
1.42341e+20
1.01709e+18
7.1576e+17
8.05977e+17
5.75345e+17
2.87124e+17
-1.70071e+16
9.55767e+14
-7.80804e+25
-1.58732e+25
-5.23215e+23
1.68304e+23
-1.16131e+22
-3.86118e+21
5.30111e+20
1.30453e+20
2.26829e+18
3.16313e+17
4.62186e+17
2.68252e+17
9.13591e+16
-1.8114e+16
-9.75278e+14
-7.705e+25
-1.46506e+25
-6.37444e+23
1.55868e+23
-8.36831e+21
-3.85462e+21
4.44438e+20
1.31139e+20
3.14039e+18
-1.58394e+16
2.01168e+17
5.42798e+16
7.67879e+15
-1.36264e+16
-1.21858e+15
-7.02135e+25
-1.41535e+25
-7.18224e+23
1.47898e+23
-5.72929e+21
-3.88206e+21
3.69636e+20
1.3001e+20
4.09781e+18
-1.27261e+17
1.17992e+17
-9.4418e+15
-1.16029e+16
-7.72533e+15
-7.35865e+14
-6.44395e+25
-1.3595e+25
-7.88967e+23
1.37913e+23
-3.1931e+21
-3.85322e+21
2.93193e+20
1.27569e+20
5.10454e+18
-1.53539e+17
1.07228e+17
-7.92315e+15
-9.35714e+15
-3.28566e+15
-2.49996e+14
-5.90596e+25
-1.30395e+25
-8.5636e+23
1.26805e+23
-7.19683e+20
-3.78247e+21
2.17492e+20
1.23925e+20
6.05548e+18
-1.60192e+17
9.93895e+16
-9.95185e+14
-4.89475e+15
-9.92402e+14
-6.4973e+12
-5.40973e+25
-1.25425e+25
-9.10076e+23
1.14598e+23
1.59976e+21
-3.6704e+21
1.44279e+20
1.19189e+20
6.90969e+18
-1.52756e+17
8.55809e+16
2.39493e+15
-2.60244e+15
-2.36109e+14
4.43006e+13
-4.96514e+25
-1.19425e+25
-9.12261e+23
1.00821e+23
3.42999e+21
-3.51959e+21
7.5986e+19
1.13531e+20
7.63387e+18
-1.29033e+17
7.10349e+16
3.28528e+15
-1.81565e+15
-1.03154e+14
2.11309e+13
-4.43497e+25
-9.94702e+24
-7.87995e+23
7.58725e+22
4.40198e+21
-3.28919e+21
2.10016e+19
1.06893e+20
8.1828e+18
-9.20356e+16
6.12257e+16
4.1409e+15
-1.24766e+15
-7.58947e+13
1.04625e+13
-3.11087e+25
-7.46876e+24
-6.78423e+23
5.41914e+22
4.73674e+21
-2.69928e+21
-2.35511e+19
9.42949e+19
8.52072e+18
-5.1414e+16
5.57759e+16
5.50794e+15
-1.26852e+15
-9.32691e+13
6.44535e+12
-2.22309e+25
-6.12266e+24
-6.30853e+23
4.18532e+22
5.15423e+21
-2.2155e+21
-6.85173e+19
8.24449e+19
9.00342e+18
-5.00876e+15
4.99208e+16
7.04593e+15
-1.51102e+15
-1.37069e+14
5.03943e+12
-1.89327e+25
-5.53488e+24
-6.12515e+23
3.37781e+22
5.74129e+21
-2.00002e+21
-1.12517e+20
7.51218e+19
9.67058e+18
5.51422e+16
4.21776e+16
8.27979e+15
-1.52178e+15
-1.82362e+14
4.32477e+12
-1.66781e+25
-5.19234e+24
-6.17916e+23
2.68939e+22
6.35941e+21
-1.83075e+21
-1.51882e+20
6.89139e+19
1.03982e+19
1.33624e+17
3.37319e+16
9.24479e+15
-1.36245e+15
-2.16816e+14
3.08764e+12
-1.48197e+25
-4.88182e+24
-6.22413e+23
1.95797e+22
6.88745e+21
-1.64982e+21
-1.89486e+20
6.26008e+19
1.11303e+19
2.30422e+17
2.53423e+16
9.90859e+15
-1.11153e+15
-2.39184e+14
1.04452e+12
-1.32219e+25
-4.57822e+24
-6.2448e+23
1.17074e+22
7.33054e+21
-1.44807e+21
-2.25221e+20
5.55449e+19
1.18126e+19
3.45095e+17
1.77006e+16
1.04292e+16
-8.50187e+14
-2.5847e+14
-1.72457e+12
-1.17476e+25
-4.26125e+24
-6.22005e+23
3.51222e+21
7.65587e+21
-1.2243e+21
-2.58083e+20
4.75641e+19
1.24217e+19
4.78472e+17
1.1036e+16
1.06013e+16
-5.58217e+14
-2.69774e+14
-5.02528e+12
-1.03345e+25
-3.92181e+24
-6.16124e+23
-4.85515e+21
7.83136e+21
-9.79963e+20
-2.86695e+20
3.87132e+19
1.29628e+19
6.33638e+17
5.81864e+15
1.03803e+16
-2.48531e+14
-2.66286e+14
-8.35363e+12
-8.99925e+24
-3.57607e+24
-6.07808e+23
-1.33195e+22
7.83423e+21
-7.17972e+20
-3.09676e+20
2.89973e+19
1.34348e+19
8.16083e+17
2.66132e+15
9.9855e+15
3.77694e+13
-2.56956e+14
-1.1406e+13
-7.76184e+24
-3.23559e+24
-5.96666e+23
-2.18091e+22
7.63487e+21
-4.39772e+20
-3.2597e+20
1.84085e+19
1.38115e+19
1.03074e+18
2.16567e+15
9.4779e+15
3.08576e+14
-2.47352e+14
-1.42388e+13
-6.64435e+24
-2.91595e+24
-5.83573e+23
-3.028e+22
7.21812e+21
-1.51264e+20
-3.34525e+20
6.91197e+18
1.40449e+19
1.27816e+18
5.19014e+15
8.83569e+15
5.82822e+14
-2.38298e+14
-1.71533e+13
-5.64713e+24
-2.61756e+24
-5.67376e+23
-3.8629e+22
6.56703e+21
1.39242e+20
-3.33981e+20
-5.46935e+18
1.40711e+19
1.5607e+18
1.29953e+16
8.06734e+15
8.80126e+14
-2.30073e+14
-2.06729e+13
-4.78213e+24
-2.33908e+24
-5.48463e+23
-4.68241e+22
5.6644e+21
4.23838e+20
-3.23172e+20
-1.8629e+19
1.38076e+19
1.8796e+18
2.71821e+16
7.01798e+15
1.20128e+15
-2.17181e+14
-2.48066e+13
-4.0491e+24
-2.09125e+24
-5.30071e+23
-5.49807e+22
4.48992e+21
6.9346e+20
-3.00722e+20
-3.23852e+19
1.31337e+19
2.24901e+18
4.97719e+16
5.57448e+15
1.50427e+15
-1.92407e+14
-2.86851e+13
-3.41989e+24
-1.87691e+24
-5.1391e+23
-6.31455e+22
3.01768e+21
9.37801e+20
-2.6561e+20
-4.64963e+19
1.19373e+19
2.65917e+18
8.34645e+16
3.92024e+15
1.78385e+15
-1.58451e+14
-3.22065e+13
-2.86421e+24
-1.68045e+24
-4.97304e+23
-7.1035e+22
1.22864e+21
1.14336e+21
-2.16444e+20
-6.05732e+19
1.01294e+19
3.09454e+18
1.31281e+17
2.22306e+15
2.037e+15
-1.14984e+14
-3.53892e+13
-2.36518e+24
-1.47886e+24
-4.73616e+23
-7.81274e+22
-8.74233e+20
1.29295e+21
-1.51766e+20
-7.4064e+19
7.55975e+18
3.55603e+18
1.97956e+17
6.73571e+14
2.17403e+15
-5.98082e+13
-3.73901e+13
-1.92878e+24
-1.27096e+24
-4.39269e+23
-8.42285e+22
-3.27994e+21
1.36618e+21
-7.06157e+19
-8.59766e+19
4.03545e+18
4.01538e+18
2.9103e+17
-2.44736e+14
2.18319e+15
9.39812e+11
-3.88598e+13
-1.57273e+24
-1.08615e+24
-4.05021e+23
-8.92437e+22
-5.97258e+21
1.33855e+21
2.69258e+19
-9.46507e+19
-6.34926e+17
4.43059e+18
4.21875e+17
2.21554e+14
2.18864e+15
7.18764e+13
-4.17422e+13
-1.28533e+24
-9.45936e+23
-3.81163e+23
-9.35243e+22
-8.95604e+21
1.18333e+21
1.3822e+20
-9.79714e+19
-6.51247e+18
4.71078e+18
6.03148e+17
3.69964e+15
2.18043e+15
1.74949e+14
-4.68316e+13
-1.04422e+24
-8.32974e+23
-3.62358e+23
-9.73959e+22
-1.22568e+22
8.66793e+20
2.56135e+20
-9.33596e+19
-1.34637e+19
4.72734e+18
8.48481e+17
1.30429e+16
1.96631e+15
3.28788e+14
-5.27592e+13
-8.41305e+23
-7.21527e+23
-3.3912e+23
-1.00912e+23
-1.58915e+22
3.45867e+20
3.66218e+20
-7.84615e+19
-2.11222e+19
4.29122e+18
1.16373e+18
3.39633e+16
1.38953e+15
5.4832e+14
-5.55354e+13
-6.71931e+23
-6.16155e+23
-3.13818e+23
-1.0426e+23
-1.98915e+22
-4.18092e+20
4.52911e+20
-5.21895e+19
-2.88172e+19
3.19628e+18
1.52944e+18
7.70615e+16
3.90635e+14
8.31007e+14
-4.56872e+13
-5.29794e+23
-5.25085e+23
-2.91138e+23
-1.07324e+23
-2.42084e+22
-1.4444e+21
5.01001e+20
-1.43232e+19
-3.5453e+19
1.28653e+18
1.88796e+18
1.50153e+17
-5.74658e+14
1.09824e+15
-8.09179e+12
-4.10981e+23
-4.46465e+23
-2.70321e+23
-1.09464e+23
-2.85253e+22
-2.71256e+21
4.90287e+20
3.41136e+19
-3.94283e+19
-1.47829e+18
2.14635e+18
2.59241e+17
-1.52055e+14
1.21637e+15
7.3493e+13
-3.12241e+23
-3.7768e+23
-2.50594e+23
-1.10421e+23
-3.21558e+22
-4.16916e+21
3.98705e+20
8.93825e+19
-3.90086e+19
-4.89389e+18
2.19914e+18
4.05161e+17
4.4099e+15
1.00539e+15
2.15095e+14
-2.31033e+23
-3.14305e+23
-2.29441e+23
-1.09201e+23
-3.48638e+22
-5.73491e+21
2.10271e+20
1.435e+20
-3.3041e+19
-8.53441e+18
1.96679e+18
5.79898e+17
1.84613e+16
1.94357e+14
4.12019e+14
-1.66176e+23
-2.53957e+23
-2.05221e+23
-1.04943e+23
-3.69667e+22
-7.328e+21
-7.64677e+19
1.87646e+20
-2.15543e+19
-1.19456e+19
1.42104e+18
7.44825e+17
4.17178e+16
-1.01696e+15
5.59057e+14
-1.17488e+23
-1.99211e+23
-1.78104e+23
-9.86733e+22
-3.85426e+22
-8.87927e+21
-4.49454e+20
2.0985e+20
-5.51924e+18
-1.46058e+19
5.96616e+17
8.24479e+17
7.0217e+16
-2.07625e+15
5.60823e+14
-8.26073e+22
-1.53967e+23
-1.51294e+23
-9.20984e+22
-3.96007e+22
-1.03404e+22
-8.86982e+20
2.07735e+20
1.32535e+19
-1.59866e+19
-3.59814e+17
8.38121e+17
1.02118e+17
-2.53806e+15
4.3207e+14
-5.82112e+22
-1.1908e+23
-1.28389e+23
-8.58942e+22
-4.02645e+22
-1.1707e+22
-1.36906e+21
1.80753e+20
3.12903e+19
-1.5195e+19
-1.33155e+18
7.93903e+17
1.20714e+17
-2.29069e+15
-2.30538e+13
-4.12056e+22
-9.28128e+22
-1.09547e+23
-7.9965e+22
-4.06942e+22
-1.30117e+22
-1.8881e+21
1.33486e+20
4.71252e+19
-1.30714e+19
-1.99072e+18
6.52107e+17
1.1472e+17
-2.91319e+14
-2.33289e+14
-2.91009e+22
-7.26965e+22
-9.42142e+22
-7.46329e+22
-4.09676e+22
-1.42959e+22
-2.4487e+21
7.09888e+19
5.99435e+19
-1.08202e+19
-2.39196e+18
5.11924e+17
1.02037e+17
7.07636e+14
-1.30579e+14
-2.04183e+22
-5.68533e+22
-8.12435e+22
-6.98128e+22
-4.10261e+22
-1.55049e+22
-3.0486e+21
-9.31527e+18
7.19769e+19
-8.66621e+18
-2.81663e+18
4.25012e+17
9.72391e+16
1.16514e+15
-1.33113e+14
-1.40511e+22
-4.39589e+22
-6.93729e+22
-6.48642e+22
-4.06441e+22
-1.65077e+22
-3.65169e+21
-1.10758e+20
8.27337e+19
-6.32551e+18
-3.21055e+18
3.66116e+17
9.95326e+16
1.67307e+15
-1.48794e+14
-9.48355e+21
-3.35043e+22
-5.86013e+22
-5.98487e+22
-3.9885e+22
-1.73395e+22
-4.24893e+21
-2.34301e+20
9.05951e+19
-3.52724e+18
-3.58389e+18
3.15026e+17
1.04287e+17
2.3614e+15
-1.5248e+14
-6.24706e+21
-2.52224e+22
-4.93673e+22
-5.51332e+22
-3.90084e+22
-1.8157e+22
-4.89963e+21
-3.82666e+20
9.55173e+19
-1.93422e+17
-3.90401e+18
2.61873e+17
1.07022e+17
3.17531e+15
-8.6897e+13
-3.98957e+21
-1.86854e+22
-4.13108e+22
-5.01823e+22
-3.80598e+22
-1.89786e+22
-5.63474e+21
-5.65642e+20
9.68011e+19
3.70175e+18
-4.10611e+18
2.0113e+17
1.03893e+17
3.90744e+15
1.08945e+14
-2.48954e+21
-1.35016e+22
-3.36793e+22
-4.49163e+22
-3.69675e+22
-1.98113e+22
-6.43121e+21
-7.91279e+20
9.27016e+19
8.04033e+18
-4.16027e+18
1.38932e+17
9.47217e+16
4.40309e+15
4.37968e+14
-1.50973e+21
-9.51402e+21
-2.67249e+22
-3.97892e+22
-3.59582e+22
-2.06811e+22
-7.29809e+21
-1.06425e+21
8.11023e+19
1.26023e+19
-4.06832e+18
8.49045e+16
8.1016e+16
4.68019e+15
9.89614e+14
-8.63593e+20
-6.5473e+21
-2.0926e+22
-3.50398e+22
-3.48889e+22
-2.1503e+22
-8.23349e+21
-1.389e+21
5.98723e+19
1.70656e+19
-3.80784e+18
4.74787e+16
6.36944e+16
4.75773e+15
1.85244e+15
-4.50134e+20
-4.32794e+21
-1.59998e+22
-3.04251e+22
-3.33413e+22
-2.22037e+22
-9.24255e+21
-1.77057e+21
2.67953e+19
2.08404e+19
-3.34041e+18
3.35076e+16
4.37692e+16
3.56392e+15
2.18392e+15
-2.01252e+20
-2.68487e+21
-1.17822e+22
-2.5707e+22
-3.13017e+22
-2.27456e+22
-1.0348e+22
-2.22856e+21
-2.01154e+19
2.25707e+19
-2.59528e+18
3.78507e+16
1.96484e+16
1.60125e+15
2.06411e+15
-6.91324e+19
-1.53158e+21
-8.26777e+21
-2.1048e+22
-2.87551e+22
-2.30144e+22
-1.14769e+22
-2.76592e+21
-8.18875e+19
2.19179e+19
-1.73724e+18
4.13471e+16
4.78385e+15
9.08444e+14
1.99926e+15
-1.20445e+19
-7.75971e+20
-5.42948e+21
-1.65513e+22
-2.56579e+22
-2.29079e+22
-1.25949e+22
-3.34898e+21
-1.60453e+20
2.11729e+19
-1.03e+18
2.24401e+16
6.54087e+15
-3.53463e+14
2.20822e+15
4.55145e+18
-3.28849e+20
-3.24375e+21
-1.23438e+22
-2.21517e+22
-2.24079e+22
-1.37091e+22
-3.90392e+21
-2.62883e+20
2.81983e+19
-7.53048e+17
4.08225e+16
1.23755e+16
1.00255e+16
8.75753e+15
3.10961e+18
-9.94452e+19
-1.65802e+21
-8.55464e+21
-1.84211e+22
-2.15091e+22
-1.4789e+22
-4.3372e+21
-3.95811e+20
4.25345e+19
-2.65833e+18
-6.53302e+16
-9.22364e+16
-4.39618e+16
-4.56499e+15
-3.39098e+18
-1.63279e+19
-6.25382e+20
-5.26323e+21
-1.45909e+22
-2.01863e+22
-1.57935e+22
-4.66694e+21
-5.42615e+20
1.54833e+19
-2.61638e+18
-3.51908e+17
-2.43119e+16
-1.02494e+17
-5.34766e+16
-6.51628e+18
-1.46843e+19
-9.16386e+19
-2.55516e+21
-1.07132e+22
-1.8368e+22
-1.66661e+22
-5.1666e+21
-7.60516e+20
-9.08092e+19
8.72312e+18
4.07375e+18
4.81411e+18
3.56788e+18
1.31096e+18
-7.89354e+18
-2.33879e+19
4.55609e+19
-5.85173e+20
-6.86116e+21
-1.60006e+22
-1.72744e+22
-5.78182e+21
-9.73783e+20
-2.99701e+20
-1.20627e+20
-1.10723e+20
-1.57915e+20
-2.00328e+20
-1.16863e+20
-1.81167e+19
-3.59138e+19
3.76567e+19
3.86984e+20
-3.28079e+21
-1.31494e+22
-1.74426e+22
-6.2339e+21
-9.98817e+20
-3.16341e+20
-4.28659e+20
-3.93265e+20
-5.02583e+20
-4.00571e+20
-2.21317e+20
-9.84519e+19
-3.14666e+19
1.20717e+20
4.23355e+20
-7.70713e+20
-1.0028e+22
-1.68548e+22
-6.51538e+21
-9.83629e+20
-2.37561e+19
-8.91449e+19
-1.86034e+20
-1.76971e+20
-1.53283e+20
-2.1158e+20
2.13641e+21
9.99161e+20
4.8571e+20
3.71043e+20
-7.39055e+20
-6.89087e+21
-1.52494e+22
-6.622e+21
-1.13569e+21
-3.56778e+17
-1.48013e+18
-1.62589e+19
-2.71522e+19
-4.82857e+19
-1.80555e+20
-7.41683e+21
-3.68141e+21
-7.96428e+20
8.37087e+19
-2.51755e+21
-8.17702e+21
-1.32527e+22
-6.44457e+21
-1.57086e+21
-6.09951e+20
-2.3738e+20
-1.12132e+20
-7.19273e+19
-5.28821e+19
-1.46827e+20
-2.04035e+23
-6.3914e+22
-3.11241e+22
-2.02027e+22
-1.33756e+22
-1.48965e+22
-1.71369e+22
-6.16543e+21
-2.28001e+21
-9.98403e+20
-4.2904e+20
-1.98381e+20
-1.07019e+20
-6.00029e+19
-1.25348e+20
-1.15702e+24
-3.47697e+23
-2.5195e+23
-1.6206e+23
-1.09092e+23
-7.07609e+22
-3.87866e+22
-1.87207e+22
-7.02253e+21
-2.55094e+21
-9.59621e+20
-3.92823e+20
-1.79303e+20
-8.47918e+19
-1.03931e+20
5.86366e+25
1.08522e+25
2.38794e+24
5.94827e+23
1.08489e+23
-2.64771e+22
-4.67303e+22
-2.77611e+22
-1.24201e+22
-4.79591e+21
-1.82041e+21
-7.26547e+20
-3.13056e+20
-1.46288e+20
-2.06815e+20
-5.42328e+26
-3.20052e+25
1.3411e+25
6.87679e+24
2.79361e+24
7.98714e+23
9.59755e+22
-9.92089e+21
-1.03198e+22
-4.30912e+21
-1.35355e+21
-2.6967e+20
3.76786e+19
6.17455e+19
5.99818e+19
1.71807e+26
-4.52947e+26
-1.08195e+26
-1.18926e+25
2.18002e+24
1.20132e+24
1.87347e+23
1.57754e+21
-7.80876e+21
-4.96803e+21
-2.97474e+21
-1.79602e+21
-9.80628e+20
-4.1579e+20
-3.29296e+19
4.07049e+28
1.44634e+27
-5.59658e+26
-2.88039e+25
-4.48694e+24
2.40687e+23
1.43147e+23
-1.34841e+22
-2.3597e+22
-1.075e+22
-4.65683e+21
-2.04085e+21
-1.07525e+21
-6.79523e+20
-4.96626e+20
3.02879e+29
4.5258e+28
1.43718e+27
-6.51462e+26
9.67796e+25
-1.5177e+24
1.78623e+24
2.30782e+24
2.06036e+24
1.73965e+24
1.38724e+24
1.00579e+24
6.26072e+23
3.08564e+23
1.15377e+23
-6.1824e+30
3.21734e+29
4.19544e+28
-9.30159e+26
-4.61396e+26
1.28767e+26
2.3263e+25
2.08039e+25
1.62739e+25
1.18524e+25
8.36877e+24
5.69539e+24
3.5717e+24
1.94566e+24
7.29875e+23
4.08634e+31
-5.5541e+30
3.15405e+29
3.81626e+28
-7.77664e+26
-4.08524e+26
1.1244e+26
-9.12375e+24
-2.02226e+25
-2.56704e+25
-2.57291e+25
-2.08401e+25
-1.30718e+25
-5.55369e+24
-1.71425e+24
-2.10405e+31
3.50665e+31
-5.09976e+30
3.06184e+29
3.65683e+28
-1.25794e+27
-6.67853e+26
-5.15151e+24
-5.1566e+24
5.98604e+25
8.62238e+25
7.93683e+25
5.34288e+25
2.51386e+25
9.24019e+24
-1.91159e+33
-1.75902e+30
3.10732e+31
-4.80701e+30
3.01733e+29
3.88126e+28
1.03744e+27
1.09328e+27
1.1969e+27
7.1471e+26
4.32882e+26
2.58951e+26
1.51863e+26
8.91896e+25
3.90296e+25
-1.23037e+34
-1.77325e+33
9.07801e+30
2.85638e+31
-4.64528e+30
2.22549e+29
-3.82685e+28
-7.83518e+28
-7.66724e+28
-7.02556e+28
-6.08953e+28
-4.8976e+28
-3.52468e+28
-2.18414e+28
-1.0726e+28
7.79196e+35
-3.29643e+34
-4.95155e+33
-1.74587e+31
8.4389e+31
-1.73143e+31
-2.14517e+30
-2.21928e+30
-1.85331e+30
-1.40581e+30
-1.01208e+30
-7.27075e+29
-5.07503e+29
-3.50259e+29
-2.65207e+29
-6.23072e+36
7.29732e+35
-2.95016e+34
-4.90784e+33
-8.09519e+31
8.1647e+31
-2.19956e+31
-5.10767e+30
-4.04706e+30
-3.22586e+30
-2.2424e+30
-1.41919e+30
-9.10836e+29
-6.39687e+29
-3.92364e+29
8.01003e+36
-5.38206e+36
6.80004e+35
-2.82831e+34
-5.28868e+33
-1.34734e+32
9.35754e+31
-8.82317e+30
3.894e+30
2.93287e+30
1.6984e+30
7.3507e+29
1.31756e+29
-1.0728e+29
-8.26751e+28
3.41706e+38
4.35393e+36
-4.87654e+36
6.23296e+35
4.94061e+33
-8.00991e+33
-3.64303e+32
3.87607e+32
1.74273e+32
9.59854e+31
5.76505e+31
2.99788e+31
1.33702e+31
4.75913e+30
2.17139e+30
1.23478e+39
3.23663e+38
2.40924e+36
-4.34796e+36
5.7338e+35
-1.95408e+34
-2.09606e+33
5.38987e+32
3.5837e+32
1.77608e+32
1.14915e+32
7.39822e+31
4.46063e+31
2.23491e+31
1.11937e+31
3.49673e+38
2.64302e+36
-4.7936e+36
7.00978e+35
-1.59235e+34
-1.02357e+33
1.51302e+33
9.18078e+32
4.24263e+32
2.26501e+32
1.20792e+32
7.61075e+31
5.83388e+31
3.84501e+31
2.23977e+31
8.65025e+36
-6.13596e+36
6.30427e+35
2.9288e+34
5.92698e+33
3.53225e+33
1.9663e+33
1.04553e+33
5.68136e+32
3.04288e+32
1.53962e+32
8.46889e+31
6.10728e+31
4.1685e+31
2.44377e+31
-4.54571e+36
-9.15681e+34
5.32093e+34
2.37521e+34
1.00897e+34
4.62131e+33
2.22833e+33
1.13064e+33
5.9576e+32
3.18021e+32
1.70902e+32
1.02576e+32
5.48047e+31
2.53584e+31
8.85789e+30
3.39447e+35
6.21918e+34
1.67038e+34
5.96771e+33
2.35305e+33
1.01273e+33
4.62291e+32
2.17406e+32
9.97118e+31
4.46984e+31
1.71265e+31
6.37466e+30
-1.6246e+31
-7.77639e+30
-3.08759e+30
-4.80395e+33
-1.45428e+33
-1.02922e+33
-6.11629e+32
-3.80629e+32
-2.53319e+32
-1.76162e+32
-1.30054e+32
-1.33089e+32
-2.18186e+32
-3.56218e+31
1.33923e+31
1.55088e+30
2.19062e+29
1.28958e+29
-7.60964e+32
-2.32781e+32
-1.35972e+32
-9.38605e+31
-6.39441e+31
-4.41717e+31
-3.25186e+31
-2.49362e+31
-4.43863e+31
-1.6871e+32
-1.46837e+32
-5.38492e+31
-8.05802e+30
-3.34551e+30
-1.54936e+30
-8.32999e+31
-3.61659e+31
-9.20935e+30
-1.80716e+29
3.05152e+30
3.34723e+30
-1.56073e+30
-5.9146e+30
-6.03422e+30
-8.28534e+31
-1.2576e+32
-8.60002e+31
-5.1147e+31
-3.02343e+31
-1.75035e+31
2.52529e+31
9.80691e+30
3.96758e+30
1.9978e+30
1.16601e+30
6.24349e+29
3.2038e+29
1.05462e+29
-1.24359e+29
-9.76206e+29
-1.27957e+31
-1.87918e+31
-1.65175e+31
-1.25308e+31
-9.21826e+30
-2.58843e+30
-9.80146e+29
-4.83443e+29
-3.04472e+29
-2.21229e+29
-1.53616e+29
-6.77804e+28
1.00359e+27
3.33177e+28
1.71235e+29
-2.36069e+29
-5.60358e+29
-5.77442e+29
-5.02716e+29
-4.33213e+29
5.87202e+28
1.93079e+28
1.65236e+28
1.36358e+28
1.20546e+28
9.70149e+27
2.95011e+27
-2.44774e+27
-4.47597e+27
-7.67109e+27
6.21358e+28
8.77385e+28
7.53013e+28
6.00866e+28
4.88966e+28
1.49857e+28
5.18878e+27
3.02272e+27
2.34178e+27
1.97864e+27
1.58248e+27
1.07604e+27
5.13747e+26
-5.67324e+26
-2.75809e+27
-4.42426e+27
-2.57829e+27
-1.14131e+27
-5.47563e+26
-3.21147e+26
1.24053e+27
5.88414e+26
1.39564e+26
-1.97508e+25
-7.45701e+25
-6.45965e+25
3.54921e+25
1.36942e+26
1.93234e+26
8.88319e+25
-8.36281e+26
-1.22663e+27
-1.10901e+27
-8.92849e+26
-6.86606e+26
-4.74851e+26
-1.88948e+26
-7.79722e+25
-3.97462e+25
-2.32922e+25
-1.30945e+25
-5.25603e+24
7.69978e+24
4.14131e+25
1.13333e+26
2.03378e+26
1.9088e+26
1.47989e+26
1.12036e+26
8.4811e+25
5.27941e+25
1.99091e+25
1.00531e+25
6.495e+24
4.65813e+24
2.87542e+24
7.62634e+23
-9.36829e+23
-1.29224e+24
2.47321e+24
1.19167e+25
1.4967e+25
1.314e+25
1.04671e+25
8.08724e+24
-6.7447e+23
-2.43379e+23
-2.79336e+23
-2.44846e+23
-1.97038e+23
-9.94582e+22
3.58812e+22
3.69995e+22
-2.74435e+23
-1.03478e+24
-1.98892e+24
-1.98114e+24
-1.57078e+24
-1.14772e+24
-7.61025e+23
-3.40978e+23
-1.1927e+23
-7.15698e+22
-5.62141e+22
-4.64274e+22
-3.24711e+22
-9.78569e+21
2.49165e+22
7.09341e+22
9.69164e+22
7.84301e+22
4.77309e+22
4.4757e+22
7.36001e+22
1.43511e+23
-2.99874e+22
-1.32357e+22
-2.59397e+21
8.826e+20
1.67524e+21
5.50651e+20
-2.12465e+21
-3.51603e+21
3.71182e+20
1.34833e+22
2.9158e+22
3.36362e+22
3.97708e+22
6.27196e+22
1.17127e+23
1.10675e+22
4.34499e+21
1.75897e+21
8.90656e+20
5.14891e+20
2.64781e+20
-8.15717e+18
-5.66851e+20
-1.74483e+21
-3.40414e+21
-4.16195e+21
-1.39028e+21
6.4435e+21
2.693e+22
7.16357e+22
-1.19711e+21
-4.57551e+20
-2.35971e+20
-1.55301e+20
-1.11947e+20
-6.87664e+19
-1.84603e+19
2.0885e+19
1.22305e+19
-1.18356e+20
-3.36818e+20
-2.90909e+20
1.41142e+21
1.12788e+22
3.90296e+22
6.45588e+18
1.5928e+18
5.21765e+18
5.55187e+18
4.842e+18
2.801e+18
-6.74118e+16
-1.78682e+17
5.62209e+18
1.16369e+19
1.76099e+19
6.31438e+18
5.28414e+19
6.50218e+20
2.94748e+21
9.65445e+18
3.7203e+18
2.03539e+18
1.43477e+18
1.12161e+18
8.21687e+17
4.37147e+17
3.96185e+16
-1.97813e+18
-1.67347e+19
-3.38945e+19
-5.06814e+19
-7.12077e+19
-8.14576e+19
-1.72751e+19
2.05581e+17
1.20081e+17
-3.63979e+14
-4.30877e+16
-4.91114e+16
-2.33949e+16
8.22537e+16
4.59348e+17
-7.38559e+17
-1.84787e+19
-3.8922e+19
-5.7642e+19
-7.83072e+19
-1.03684e+20
-1.33747e+20
-1.65372e+17
-7.06198e+16
-3.0035e+16
-1.50916e+16
-8.50764e+15
-1.13682e+15
6.27674e+16
4.49396e+17
-8.86005e+17
-2.20215e+19
-4.54081e+19
-6.71164e+19
-9.06272e+19
-1.16886e+20
-1.44104e+20
1.91443e+16
7.88918e+15
4.2502e+15
2.80434e+15
2.15752e+15
5.12967e+15
6.83065e+16
5.07303e+17
-1.09815e+18
-2.41318e+19
-4.99264e+19
-7.62734e+19
-1.05148e+20
-1.37049e+20
-1.69119e+20
-1.46187e+14
-4.23604e+13
-9.31152e+13
-1.02838e+14
4.2512e+12
3.60842e+15
7.22361e+16
5.90661e+17
-1.27975e+18
-2.21845e+19
-4.7344e+19
-7.5786e+19
-1.08978e+20
-1.47235e+20
-1.88441e+20
-1.37137e+14
-5.95098e+13
-4.03507e+13
-3.88255e+13
4.44989e+13
3.37473e+15
7.50837e+16
6.92665e+17
1.04647e+17
-1.59961e+19
-3.88745e+19
-6.52276e+19
-9.63899e+19
-1.33786e+20
-1.77432e+20
-7.9565e+12
-8.68451e+12
-1.06088e+13
-1.78145e+13
4.11299e+13
2.92909e+15
7.34732e+16
8.10782e+17
7.27831e+17
-8.49755e+18
-2.53838e+19
-4.5072e+19
-6.77735e+19
-9.48865e+19
-1.27257e+20
-5.97856e+10
-4.95693e+12
-1.09257e+13
-2.07061e+13
2.21804e+13
2.45781e+15
6.69818e+16
9.25402e+17
1.04396e+18
-2.50423e+18
-1.07412e+19
-2.19178e+19
-3.52819e+19
-5.08346e+19
-6.90596e+19
-3.90074e+12
-7.51775e+12
-1.34123e+13
-2.38629e+13
8.50198e+12
2.12689e+15
5.96802e+16
1.13496e+18
1.52447e+18
4.61128e+17
-2.39999e+18
-7.02839e+18
-1.31487e+19
-2.05491e+19
-2.94439e+19
-4.15358e+12
-8.65151e+12
-1.55955e+13
-2.72509e+13
-5.80455e+12
1.90871e+15
6.12471e+16
1.09746e+18
1.82272e+18
1.70968e+18
9.85573e+17
-3.75836e+17
-2.41227e+18
-5.14497e+18
-8.65733e+18
-4.91118e+12
-1.03333e+13
-1.86337e+13
-3.17773e+13
-2.34391e+13
1.56273e+15
6.43658e+16
8.24996e+17
1.53296e+18
1.81366e+18
1.86868e+18
1.71537e+18
1.35077e+18
7.50948e+17
-1.48096e+17
-5.72268e+12
-1.21573e+13
-2.19666e+13
-3.66117e+13
-3.90404e+13
1.03952e+15
7.16331e+16
5.44513e+17
9.4017e+17
1.21399e+18
1.42281e+18
1.57792e+18
1.69004e+18
1.75447e+18
1.74304e+18
-6.55334e+12
-1.40341e+13
-2.53835e+13
-4.14124e+13
-4.84787e+13
5.23747e+14
5.22072e+16
2.65928e+17
4.33116e+17
5.7347e+17
6.99697e+17
8.23087e+17
9.50344e+17
1.07904e+18
1.20049e+18
-7.48635e+12
-1.61542e+13
-2.92397e+13
-4.66865e+13
-5.28071e+13
2.47688e+14
1.53843e+16
9.28195e+16
1.50951e+17
1.99433e+17
2.45146e+17
2.93868e+17
3.48988e+17
4.09598e+17
4.73303e+17
-8.52713e+12
-1.85739e+13
-3.37755e+13
-5.30877e+13
-5.41482e+13
1.94332e+14
6.473e+15
2.28122e+16
3.69282e+16
4.87355e+16
5.98581e+16
7.24416e+16
8.69468e+16
1.03053e+17
1.20453e+17
-9.62272e+12
-2.11213e+13
-3.85734e+13
-6.01378e+13
-5.95843e+13
2.14322e+14
1.53395e+15
3.72388e+15
5.66239e+15
7.384e+15
9.07348e+15
1.09627e+16
1.31104e+16
1.54919e+16
1.80896e+16
-1.06084e+13
-2.39392e+13
-4.5262e+13
-7.38728e+13
-9.78683e+13
-8.35995e+13
-2.99341e+12
1.38085e+14
2.84486e+14
4.13495e+14
5.33367e+14
6.56726e+14
7.88819e+14
9.31497e+14
1.08723e+15
-9.45428e+12
-2.15128e+13
-4.11547e+13
-6.89103e+13
-1.0241e+14
-1.35189e+14
-1.55354e+14
-1.56844e+14
-1.49612e+14
-1.4277e+14
-1.38275e+14
-1.36642e+14
-1.37614e+14
-1.40553e+14
-1.44878e+14
-6.1588e+12
-1.35322e+13
-2.46709e+13
-3.88316e+13
-5.36428e+13
-6.66333e+13
-7.50468e+13
-7.77575e+13
-7.69244e+13
-7.52233e+13
-7.35758e+13
-7.20672e+13
-7.06589e+13
-6.93027e+13
-6.80282e+13
-2.57654e+12
-5.28631e+12
-8.89228e+12
-1.28825e+13
-1.64572e+13
-1.92783e+13
-2.11224e+13
-2.19474e+13
-2.20606e+13
-2.18615e+13
-2.15489e+13
-2.11464e+13
-2.06318e+13
-2.00016e+13
-1.92783e+13
-6.82144e+11
-1.27584e+12
-1.89961e+12
-2.49041e+12
-2.96329e+12
-3.30986e+12
-3.53763e+12
-3.65955e+12
-3.70613e+12
-3.71444e+12
-3.70315e+12
-3.67214e+12
-3.61701e+12
-3.53624e+12
-3.43252e+12
-6.52381e+10
-1.55281e+11
-2.24609e+11
-2.72024e+11
-2.99909e+11
-3.15701e+11
-3.23372e+11
-3.2579e+11
-3.25961e+11
-3.25492e+11
-3.24302e+11
-3.21777e+11
-3.17461e+11
-3.11209e+11
-3.03093e+11
2.95921e+10
1.45586e+10
1.93078e+09
-5.31408e+09
-9.01361e+09
-1.06505e+10
-1.11007e+10
-1.09514e+10
-1.06017e+10
-1.02171e+10
-9.81399e+09
-9.39381e+09
-8.96677e+09
-8.54834e+09
-8.1176e+09
1.83136e+10
1.6165e+10
1.21954e+10
9.06391e+09
6.72187e+09
5.03095e+09
3.8239e+09
2.9551e+09
2.33637e+09
1.90645e+09
1.60367e+09
1.38125e+09
1.21105e+09
1.07559e+09
9.71286e+08
4.73582e+09
4.78415e+09
4.05065e+09
3.32209e+09
2.67983e+09
2.15147e+09
1.72783e+09
1.39125e+09
1.13387e+09
9.40839e+08
7.89428e+08
6.65619e+08
5.62656e+08
4.76469e+08
4.0509e+08
5.91396e+08
6.66324e+08
6.14341e+08
5.38736e+08
4.58935e+08
3.85115e+08
3.20663e+08
2.67895e+08
2.27101e+08
1.95071e+08
1.68314e+08
1.45144e+08
1.24901e+08
1.0723e+08
9.19127e+07
2.04992e+07
3.00494e+07
3.2539e+07
3.17002e+07
2.91331e+07
2.59638e+07
2.27629e+07
1.99597e+07
1.76899e+07
1.57656e+07
1.40159e+07
1.23912e+07
1.08884e+07
9.51524e+06
8.27569e+06
-3.74623e+06
-3.174e+06
-2.39049e+06
-1.75264e+06
-1.26878e+06
-914529
-657122
-472545
-340391
-243612
-171146
-116504
-75602.3
-45335.9
-24049.5
-937222
-704215
-517118
-396872
-312101
-249270
-202380
-168204
-142532
-121850
-104320
-89134.6
-75910.5
-64411
-54586.9
-224601
-154255
-96185.9
-62769.1
-42845.5
-30496.8
-22581.9
-17415
-13896.5
-11327.5
-9340.08
-7749.11
-6450.81
-5378.73
-4503.63
-39039.9
-28937.7
-18928.3
-12573.8
-8552.6
-5995.55
-4354.11
-3281.71
-2538.68
-1991.55
-1573.69
-1248.92
-994.154
-793.251
-635.921
-4322.99
-3163.38
-2100.48
-1434.57
-1001.75
-721.59
-541.193
-420.66
-333.358
-266.235
-213.275
-171.065
-137.276
-110.217
-88.6459
-319.297
-222.157
-131.656
-84.0435
-56.4814
-40.0224
-29.9579
-23.3362
-18.5235
-14.8108
-11.8823
-9.55085
-7.68466
-6.19075
-4.99204
29.6649
8.19769
2.09127
0.291195
-0.182612
-0.291611
-0.290967
-0.246863
-0.187087
-0.130874
-0.0864892
-0.0544112
-0.0323436
-0.0180825
-0.0074869
16.9107
8.94966
4.33439
2.28099
1.29125
0.779068
0.498227
0.335037
0.233981
0.167588
0.122126
0.0901868
0.0673329
0.0507356
0.0388673
2.47187
1.57286
0.871243
0.513562
0.32089
0.212289
0.147351
0.105578
0.0770718
0.0568291
0.0421376
0.0313723
0.0234382
0.0175785
0.0132657
0.118482
0.0913224
0.0583746
0.0385036
0.0264299
0.0189219
0.0140152
0.0106024
0.00808688
0.00617511
0.00471141
0.00358937
0.00272918
0.00207402
0.00157821
-0.00635997
-0.0036176
-0.00181533
-0.000915396
-0.00046558
-0.000232448
-0.000108715
-4.25415e-05
-7.41633e-06
1.04791e-05
1.85935e-05
2.11274e-05
2.06073e-05
1.86543e-05
1.60096e-05
-0.0016939
-0.000966904
-0.000541496
-0.000327013
-0.000211499
-0.000144596
-0.000103312
-7.61593e-05
-5.70408e-05
-4.29392e-05
-3.23258e-05
-2.42959e-05
-1.8233e-05
-1.36799e-05
-1.03286e-05
-0.000331137
-0.000171325
-8.28246e-05
-4.4462e-05
-2.61314e-05
-1.65484e-05
-1.11386e-05
-7.84602e-06
-5.68264e-06
-4.17575e-06
-3.09032e-06
-2.29583e-06
-1.71074e-06
-1.27936e-06
-9.67076e-07
-4.58429e-05
-2.62121e-05
-1.33544e-05
-7.38224e-06
-4.4049e-06
-2.79898e-06
-1.86825e-06
-1.29147e-06
-9.1058e-07
-6.48104e-07
-4.63451e-07
-3.32556e-07
-2.39597e-07
-1.7364e-07
-1.27424e-07
-4.27552e-06
-2.28185e-06
-1.17604e-06
-6.69767e-07
-4.16151e-07
-2.75641e-07
-1.91059e-07
-1.36384e-07
-9.87568e-08
-7.18353e-08
-5.22777e-08
-3.80511e-08
-2.77453e-08
-2.03365e-08
-1.50758e-08
-4.50122e-07
-1.92321e-07
-7.73172e-08
-3.74499e-08
-2.08501e-08
-1.27974e-08
-8.42727e-09
-5.81494e-09
-4.1166e-09
-2.94951e-09
-2.1261e-09
-1.53958e-09
-1.12078e-09
-8.23267e-10
-6.12532e-10
5.65285e-10
-5.33505e-09
-2.87255e-09
-1.85618e-09
-1.20219e-09
-7.79579e-10
-5.0596e-10
-3.25975e-10
-2.06758e-10
-1.29e-10
-7.95142e-11
-4.86275e-11
-2.95811e-11
-1.80497e-11
-1.07441e-11
1.58229e-08
6.38738e-09
2.45693e-09
1.05182e-09
4.96837e-10
2.54594e-10
1.40246e-10
8.23093e-11
5.08538e-11
3.26561e-11
2.15839e-11
1.45866e-11
1.00261e-11
6.9766e-12
4.99441e-12
2.47961e-09
1.2498e-09
5.62739e-10
2.86193e-10
1.59666e-10
9.55318e-11
6.02869e-11
3.94818e-11
2.6443e-11
1.7951e-11
1.23053e-11
8.50728e-12
5.93312e-12
4.18151e-12
2.98855e-12
7.15019e-11
5.41279e-11
3.05611e-11
1.85707e-11
1.1861e-11
7.87576e-12
5.38855e-12
3.75744e-12
2.64362e-12
1.86817e-12
1.32511e-12
9.44174e-13
6.77067e-13
4.8993e-13
3.57649e-13
-1.70991e-11
-7.8295e-12
-3.27278e-12
-1.49942e-12
-7.45021e-13
-3.96436e-13
-2.23412e-13
-1.31658e-13
-8.00832e-14
-4.97736e-14
-3.14038e-14
-2.00115e-14
-1.28166e-14
-8.21616e-15
-5.37216e-15
-2.37739e-12
-1.21761e-12
-5.74096e-13
-2.98641e-13
-1.69445e-13
-1.03141e-13
-6.63242e-14
-4.42958e-14
-3.02548e-14
-2.09502e-14
-1.46596e-14
-1.03494e-14
-7.36734e-15
-5.28787e-15
-3.83417e-15
-2.63415e-13
-1.18771e-13
-5.15692e-14
-2.53312e-14
-1.38869e-14
-8.29838e-15
-5.29319e-15
-3.53023e-15
-2.41877e-15
-1.68561e-15
-1.18917e-15
-8.46826e-16
-6.08155e-16
-4.40431e-16
-3.22192e-16
-3.39695e-14
-1.45596e-14
-5.84886e-15
-2.71309e-15
-1.41818e-15
-8.12542e-16
-4.98585e-16
-3.20727e-16
-2.12675e-16
-1.44011e-16
-9.90018e-17
-6.88005e-17
-4.82749e-17
-3.42197e-17
-2.45482e-17
-2.61849e-15
-1.17714e-15
-4.82669e-16
-2.33334e-16
-1.26936e-16
-7.51212e-17
-4.71806e-17
-3.07994e-17
-2.05982e-17
-1.40183e-17
-9.66992e-18
-6.73674e-18
-4.73355e-18
-3.35505e-18
-2.39554e-18
1.44329e-17
3.108e-19
-1.34634e-18
-2.09991e-18
-1.86815e-18
-1.43865e-18
-1.05668e-18
-7.60314e-19
-5.42332e-19
-3.87162e-19
-2.77627e-19
-1.99803e-19
-1.44363e-19
-1.04764e-19
-7.56052e-20
3.20339e-17
1.24496e-17
4.6851e-18
1.98244e-18
9.56594e-19
5.15023e-19
3.01111e-19
1.86442e-19
1.19952e-19
7.92844e-20
5.34548e-20
3.65514e-20
2.52633e-20
1.76196e-20
1.24455e-20
5.50764e-18
2.02706e-18