/*--------------------------------*- C++ -*----------------------------------*\
  =========                 |
  \\      /  F ield         | OpenFOAM: The Open Source CFD Toolbox
   \\    /   O peration     | Website:  https://openfoam.org
    \\  /    A nd           | Version:  7
     \\/     M anipulation  |
\*---------------------------------------------------------------------------*/
FoamFile
{
    version     2.0;
    format      ascii;
    class       volScalarField;
    location    "1.3";
    object      T;
}
// * * * * * * * * * * * * * * * * * * * * * * * * * * * * * * * * * * * * * //

dimensions      [0 0 0 1 0 0 0];

internalField   nonuniform List<scalar> 
32100
(
-7.50759e+26
-8.34221e+25
1.43263e+25
-8.31565e+23
-8.88575e+22
1.64399e+22
1.06451e+21
-2.363e+20
1.5579e+19
1.74884e+18
-1.71622e+17
-3.45147e+15
1.94946e+13
3.56211e+13
1.01621e+13
-9.72591e+25
1.56316e+25
-8.55326e+23
-9.492e+22
1.68263e+22
1.11819e+21
-2.43227e+20
1.57273e+19
1.68972e+18
-3.28782e+17
-7.69047e+16
-5.28575e+15
2.90345e+14
3.47269e+13
9.29381e+12
1.72277e+25
-8.94074e+23
-1.03482e+23
1.7401e+22
1.17998e+21
-2.53316e+20
1.62163e+19
1.81025e+18
-3.18666e+17
-4.95276e+16
-2.13407e+16
-3.07236e+15
4.52615e+14
2.25538e+13
7.56038e+12
-9.46798e+23
-1.23146e+23
1.78551e+22
1.35529e+21
-2.69627e+20
1.47863e+19
2.14837e+18
-2.5075e+17
-2.84054e+16
1.73443e+14
-5.59539e+15
-8.62209e+14
4.21828e+14
1.12298e+13
5.19687e+12
-1.75603e+23
1.18417e+22
1.2602e+21
-1.97909e+20
1.00533e+19
5.03108e+17
-1.9066e+16
2.84182e+16
4.97242e+15
-6.64813e+14
-4.83421e+14
9.94448e+13
2.83718e+14
2.48527e+12
2.57793e+12
-2.03863e+22
-5.28854e+21
-4.70398e+20
9.31245e+19
-3.38753e+18
-1.79006e+18
2.35711e+17
6.03888e+16
-1.41851e+13
2.24216e+14
3.27773e+14
2.35014e+14
1.43545e+14
-3.19729e+12
5.57126e+11
-3.54816e+22
-7.02591e+21
-1.95416e+20
7.62296e+19
-4.69601e+18
-1.55019e+18
2.39623e+17
5.51287e+16
4.71006e+14
8.96813e+13
2.14009e+14
1.27623e+14
5.11679e+13
-5.46701e+12
-4.24771e+11
-3.4982e+22
-6.48518e+21
-2.4584e+20
7.07378e+19
-3.32318e+18
-1.54492e+18
2.03142e+17
5.54996e+16
8.74399e+14
-6.18667e+13
9.82214e+13
3.24778e+13
8.55785e+12
-4.90452e+12
-5.68213e+11
-3.18722e+22
-6.27294e+21
-2.83219e+20
6.73638e+19
-2.18436e+18
-1.56266e+18
1.7148e+17
5.52049e+16
1.30872e+15
-1.18099e+14
5.48822e+13
-9.0107e+11
-3.39388e+12
-3.05482e+12
-3.4649e+11
-2.92443e+22
-6.03455e+21
-3.16185e+20
6.31346e+19
-1.09548e+18
-1.55625e+18
1.39132e+17
5.43403e+16
1.77213e+15
-1.31866e+14
4.70531e+13
-2.40468e+12
-3.78218e+12
-1.37592e+12
-1.16938e+11
-2.67983e+22
-5.79647e+21
-3.47707e+20
5.84035e+19
-3.05338e+16
-1.53182e+18
1.06987e+17
5.2958e+16
2.2146e+15
-1.34221e+14
4.25148e+13
1.65967e+11
-2.16337e+12
-4.34588e+11
-1.49215e+09
-2.45417e+22
-5.58304e+21
-3.73382e+20
5.31684e+19
9.70598e+17
-1.48956e+18
7.58083e+16
5.11014e+16
2.6162e+15
-1.29136e+14
3.59162e+13
1.52649e+12
-1.18256e+12
-1.1179e+11
2.22535e+10
-2.25147e+22
-5.31966e+21
-3.77003e+20
4.72277e+19
1.76946e+18
-1.43036e+18
4.66629e+16
4.88407e+16
2.96127e+15
-1.1621e+14
2.91906e+13
1.82746e+12
-8.21672e+11
-5.30661e+10
1.05786e+10
-2.00803e+22
-4.43161e+21
-3.27692e+20
3.60097e+19
2.18013e+18
-1.33659e+18
2.29521e+16
4.6132e+16
3.2302e+15
-9.71296e+13
2.45305e+13
2.1561e+12
-5.59547e+11
-3.90601e+10
5.27747e+09
-1.40624e+22
-3.33018e+21
-2.84046e+20
2.60554e+19
2.28652e+18
-1.09561e+18
2.44002e+15
4.08268e+16
3.41156e+15
-7.76986e+13
2.16201e+13
2.76955e+12
-5.64798e+11
-4.72313e+10
3.32321e+09
-1.00593e+22
-2.73546e+21
-2.65844e+20
2.03755e+19
2.43333e+18
-8.995e+17
-1.81203e+16
3.58565e+16
3.65278e+15
-5.74288e+13
1.84052e+13
3.45456e+12
-6.66671e+11
-6.85498e+10
2.582e+09
-8.57586e+21
-2.47663e+21
-2.59463e+20
1.672e+19
2.67393e+18
-8.12471e+17
-3.73641e+16
3.28486e+16
3.96654e+15
-3.13392e+13
1.43799e+13
3.9648e+12
-6.63007e+11
-9.01495e+10
2.11417e+09
-7.55417e+21
-2.3257e+21
-2.62924e+20
1.36795e+19
2.94197e+18
-7.42755e+17
-5.43451e+16
3.03187e+16
4.30361e+15
2.92677e+12
1.00704e+13
4.33494e+12
-5.83615e+11
-1.05939e+11
1.36845e+09
-6.7115e+21
-2.18843e+21
-2.65921e+20
1.04669e+19
3.17584e+18
-6.6723e+17
-7.0514e+16
2.77475e+16
4.64253e+15
4.54103e+13
5.80641e+12
4.55868e+12
-4.64211e+11
-1.15534e+11
2.44238e+08
-5.98641e+21
-2.05395e+21
-2.6787e+20
7.00011e+18
3.37478e+18
-5.82384e+17
-8.58949e+16
2.48601e+16
4.96091e+15
9.59525e+13
1.89008e+12
4.71229e+12
-3.40415e+11
-1.23455e+11
-1.21576e+09
-5.31698e+21
-1.91314e+21
-2.67842e+20
3.37758e+18
3.52402e+18
-4.87719e+17
-1.00074e+17
2.15769e+16
5.24906e+15
1.54791e+14
-1.57209e+12
4.70174e+12
-2.04652e+11
-1.27455e+11
-2.906e+09
-4.67548e+21
-1.76195e+21
-2.66303e+20
-3.30969e+17
3.60945e+18
-3.83773e+17
-1.12465e+17
1.79228e+16
5.50937e+15
2.2311e+14
-4.38859e+12
4.51072e+12
-6.41291e+10
-1.24469e+11
-4.55494e+09
-4.06966e+21
-1.60769e+21
-2.63648e+20
-4.09364e+18
3.62116e+18
-2.7167e+17
-1.22476e+17
1.39012e+16
5.74188e+15
3.03168e+14
-6.33134e+12
4.23804e+12
6.4562e+10
-1.18828e+11
-6.01996e+09
-3.50854e+21
-1.45557e+21
-2.59696e+20
-7.88183e+18
3.54585e+18
-1.52067e+17
-1.29641e+17
9.50997e+15
5.93604e+15
3.97155e+14
-7.1784e+12
3.90671e+12
1.8563e+11
-1.13126e+11
-7.34698e+09
-3.00207e+21
-1.31261e+21
-2.54822e+20
-1.16747e+19
3.37667e+18
-2.74558e+16
-1.33494e+17
4.7325e+15
6.07228e+15
5.05577e+14
-6.56188e+12
3.50093e+12
3.07317e+11
-1.07696e+11
-8.69441e+09
-2.55032e+21
-1.17901e+21
-2.48512e+20
-1.54285e+19
3.10595e+18
9.87112e+16
-1.33438e+17
-4.25073e+14
6.12417e+15
6.29592e+14
-3.9335e+12
3.01345e+12
4.38125e+11
-1.02576e+11
-1.03192e+10
-2.15867e+21
-1.0542e+21
-2.4094e+20
-1.91288e+19
2.72587e+18
2.23122e+17
-1.28946e+17
-5.91858e+15
6.05741e+15
7.69971e+14
1.43351e+12
2.37262e+12
5.7703e+11
-9.52109e+10
-1.22112e+10
-1.82681e+21
-9.43074e+20
-2.33536e+20
-2.28227e+19
2.2271e+18
3.41918e+17
-1.19399e+17
-1.1672e+16
5.8205e+15
9.32837e+14
1.04439e+13
1.53893e+12
7.03478e+11
-8.2464e+10
-1.39373e+10
-1.54194e+21
-8.46875e+20
-2.27052e+20
-2.65302e+19
1.59756e+18
4.50727e+17
-1.04312e+17
-1.75802e+16
5.36631e+15
1.11449e+15
2.42794e+13
5.8481e+11
8.15132e+11
-6.56202e+10
-1.54547e+10
-1.2904e+21
-7.58511e+20
-2.20291e+20
-3.01308e+19
8.27541e+17
5.43745e+17
-8.30306e+16
-2.34744e+16
4.65858e+15
1.30871e+15
4.42649e+13
-4.26364e+11
9.0981e+11
-4.45238e+10
-1.67752e+10
-1.0647e+21
-6.67641e+20
-2.10289e+20
-3.33987e+19
-8.293e+16
6.13497e+17
-5.4864e+16
-2.9115e+16
3.63477e+15
1.51633e+15
7.24436e+13
-1.39356e+12
9.46796e+11
-1.849e+10
-1.75091e+10
-8.67582e+20
-5.73874e+20
-1.95461e+20
-3.62442e+19
-1.13014e+18
6.51096e+17
-1.93178e+16
-3.40748e+16
2.21346e+15
1.72602e+15
1.12055e+14
-2.0952e+12
9.22037e+11
9.61645e+09
-1.79793e+10
-7.06916e+20
-4.90575e+20
-1.80621e+20
-3.86211e+19
-2.30898e+18
6.45766e+17
2.36562e+16
-3.76437e+16
3.12019e+14
1.92087e+15
1.67972e+14
-2.29813e+12
8.85444e+11
4.22993e+10
-1.90687e+10
-5.77218e+20
-4.27382e+20
-1.70375e+20
-4.0684e+19
-3.62187e+18
5.85779e+17
7.30342e+16
-3.8909e+16
-2.09886e+15
2.06332e+15
2.45807e+14
-1.41186e+12
8.18678e+11
8.94758e+10
-2.10631e+10
-4.68405e+20
-3.76351e+20
-1.62316e+20
-4.25751e+19
-5.08078e+18
4.56293e+17
1.25853e+17
-3.67544e+16
-4.96679e+15
2.09994e+15
3.51873e+14
1.85586e+12
6.24814e+11
1.58571e+11
-2.32245e+10
-3.76903e+20
-3.25911e+20
-1.52196e+20
-4.43161e+19
-6.69458e+18
2.38012e+17
1.75798e+17
-3.01513e+16
-8.1408e+15
1.95093e+15
4.89322e+14
9.94731e+12
2.13965e+11
2.54341e+11
-2.35983e+10
-3.00593e+20
-2.78222e+20
-1.41094e+20
-4.59867e+19
-8.47898e+18
-8.69442e+16
2.16123e+17
-1.85805e+16
-1.13375e+16
1.52796e+15
6.50655e+14
2.74449e+13
-4.72587e+11
3.71631e+11
-1.77618e+10
-2.36607e+20
-2.36991e+20
-1.31117e+20
-4.75324e+19
-1.04148e+19
-5.28363e+17
2.40314e+17
-1.87933e+15
-1.40905e+16
7.63081e+14
8.12034e+14
5.80437e+13
-1.23728e+12
4.69651e+11
9.92364e+08
-1.83179e+20
-2.01362e+20
-1.21917e+20
-4.86675e+19
-1.2365e+19
-1.07948e+18
2.39507e+17
1.95804e+16
-1.57185e+16
-3.65263e+14
9.33993e+14
1.04515e+14
-1.48882e+12
4.82346e+11
3.94097e+10
-1.38841e+20
-1.70158e+20
-1.13143e+20
-4.92679e+19
-1.40283e+19
-1.71845e+18
2.03758e+17
4.42541e+16
-1.54788e+16
-1.77756e+15
9.71219e+14
1.67409e+14
-6.73336e+10
3.18312e+11
1.03445e+11
-1.02455e+20
-1.41397e+20
-1.03655e+20
-4.88763e+19
-1.52961e+19
-2.41118e+18
1.25536e+17
6.86604e+16
-1.28655e+16
-3.29801e+15
8.88982e+14
2.43525e+14
5.36691e+12
-1.5749e+11
1.88279e+11
-7.34828e+19
-1.14045e+20
-9.27217e+19
-4.70955e+19
-1.63013e+19
-3.12169e+18
3.68182e+15
8.90044e+16
-7.85521e+15
-4.73336e+15
6.73154e+14
3.16477e+14
1.5065e+13
-8.18099e+11
2.45021e+11
-5.18063e+19
-8.92922e+19
-8.04449e+19
-4.43802e+19
-1.70728e+19
-3.81912e+18
-1.5706e+17
9.99109e+16
-8.00605e+14
-5.86098e+15
3.34096e+14
3.535e+14
2.73159e+13
-1.39676e+12
2.32165e+11
-3.63238e+19
-6.8886e+19
-6.83014e+19
-4.14975e+19
-1.76105e+19
-4.48133e+18
-3.4743e+17
1.00262e+17
7.42774e+15
-6.45257e+15
-6.46915e+13
3.62328e+14
4.11129e+13
-1.70023e+12
1.5783e+11
-2.55237e+19
-5.31806e+19
-5.79247e+19
-3.87541e+19
-1.7967e+19
-5.10522e+18
-5.587e+17
8.96843e+16
1.53288e+16
-6.13779e+15
-4.71123e+14
3.45969e+14
4.93808e+13
-1.74451e+12
-9.04369e+10
-1.80126e+19
-4.13707e+19
-4.9383e+19
-3.61129e+19
-1.82122e+19
-5.70406e+18
-7.8734e+17
7.01745e+16
2.23282e+16
-5.26423e+15
-7.56588e+14
2.86656e+14
4.74733e+13
-6.65172e+11
-1.59615e+11
-1.26779e+19
-3.23359e+19
-4.24266e+19
-3.37249e+19
-1.83804e+19
-6.29532e+18
-1.03509e+18
4.41814e+16
2.80653e+16
-4.32466e+15
-9.36079e+14
2.27358e+14
4.25486e+13
-3.62012e+10
-8.77257e+10
-8.86147e+18
-2.523e+19
-3.65364e+19
-3.15534e+19
-1.84448e+19
-6.85452e+18
-1.30119e+18
1.05229e+16
3.35621e+16
-3.41049e+15
-1.12047e+15
1.91062e+14
4.07599e+13
2.36735e+11
-8.17739e+10
-6.07116e+18
-1.94572e+19
-3.11474e+19
-2.93126e+19
-1.83042e+19
-7.32336e+18
-1.57029e+18
-3.24538e+16
3.8603e+16
-2.40145e+15
-1.29015e+15
1.66923e+14
4.18669e+13
4.7347e+11
-8.95737e+10
-4.07683e+18
-1.47878e+19
-2.62635e+19
-2.70351e+19
-1.79878e+19
-7.7171e+18
-1.83864e+18
-8.53422e+16
4.24411e+16
-1.18606e+15
-1.45095e+15
1.46193e+14
4.39705e+13
7.64401e+11
-9.60362e+10
-2.66935e+18
-1.10981e+19
-2.20807e+19
-2.48871e+19
-1.76125e+19
-8.10492e+18
-2.13201e+18
-1.49321e+17
4.50678e+16
2.67356e+14
-1.58992e+15
1.24459e+14
4.52027e+13
1.11202e+12
-7.24571e+10
-1.69235e+18
-8.19372e+18
-1.84344e+19
-2.26279e+19
-1.71986e+19
-8.49489e+18
-2.46416e+18
-2.28583e+17
4.6203e+16
1.9701e+15
-1.68057e+15
9.90118e+13
4.39502e+13
1.44708e+12
1.2547e+10
-1.04706e+18
-5.89857e+18
-1.499e+19
-2.02262e+19
-1.67143e+19
-8.89033e+18
-2.82552e+18
-3.268e+17
4.50913e+16
3.87411e+15
-1.70998e+15
7.23304e+13
4.01384e+13
1.70014e+12
1.603e+11
-6.28291e+17
-4.13953e+18
-1.18615e+19
-1.78887e+19
-1.62617e+19
-9.30255e+18
-3.22053e+18
-4.46276e+17
4.07992e+16
5.88496e+15
-1.67806e+15
4.85203e+13
3.44013e+13
1.86717e+12
4.06924e+11
-3.54059e+17
-2.83549e+18
-9.25941e+18
-1.57223e+19
-1.57743e+19
-9.69255e+18
-3.64873e+18
-5.89225e+17
3.23819e+16
7.86144e+15
-1.57463e+15
3.10852e+13
2.71295e+13
1.9461e+12
7.89508e+11
-1.80205e+17
-1.86384e+18
-7.05493e+18
-1.36181e+19
-1.50635e+19
-1.00263e+19
-4.11268e+18
-7.58185e+17
1.88484e+16
9.54658e+15
-1.38264e+15
2.27257e+13
1.87563e+13
1.47928e+12
9.40898e+11
-7.69939e+16
-1.14802e+18
-5.17409e+18
-1.1472e+19
-1.41245e+19
-1.02853e+19
-4.6226e+18
-9.62014e+17
-7.11198e+14
1.03313e+16
-1.07263e+15
2.10918e+13
8.57769e+12
6.84286e+11
8.91339e+11
-2.34905e+16
-6.48658e+17
-3.61334e+18
-9.35962e+18
-1.29518e+19
-1.04163e+19
-5.14582e+18
-1.20238e+18
-2.67855e+16
1.006e+16
-7.1463e+14
1.8991e+13
2.39915e+12
4.30125e+11
8.66159e+11
-1.49435e+15
-3.24081e+17
-2.35902e+18
-7.32873e+18
-1.15281e+19
-1.03716e+19
-5.66678e+18
-1.46495e+18
-6.02251e+16
9.73778e+15
-4.20324e+14
8.91383e+12
3.34336e+12
-3.35963e+10
9.70418e+11
3.87519e+15
-1.34134e+17
-1.3987e+18
-5.43701e+18
-9.92e+18
-1.01416e+19
-6.18797e+18
-1.7175e+18
-1.03989e+17
1.29376e+16
-3.13293e+14
1.65053e+13
5.88576e+12
4.49395e+12
3.8038e+12
2.14446e+15
-3.84191e+16
-7.07014e+17
-3.74221e+18
-8.21292e+18
-9.7223e+18
-6.69414e+18
-1.91911e+18
-1.61364e+17
1.98794e+16
-1.07912e+15
-2.13378e+13
-3.65195e+13
-1.69079e+13
-1.28136e+12
-1.24622e+15
-5.32132e+15
-2.61152e+17
-2.27942e+18
-6.46535e+18
-9.10077e+18
-7.16407e+18
-2.07889e+18
-2.26674e+17
8.56341e+15
-9.68593e+14
-1.18587e+14
3.49557e+12
-3.37616e+13
-1.86792e+13
-2.7797e+15
-6.30707e+15
-3.48584e+16
-1.08624e+18
-4.70441e+18
-8.24495e+18
-7.56749e+18
-2.31898e+18
-3.23692e+17
-3.71786e+16
4.5482e+15
2.1385e+15
2.40004e+15
1.78456e+15
6.62691e+14
-3.44542e+15
-1.03541e+16
1.95443e+16
-2.29562e+17
-2.96856e+18
-7.13493e+18
-7.84e+18
-2.61425e+18
-4.19975e+17
-1.28873e+17
-5.14823e+16
-4.78553e+16
-6.88286e+16
-8.72785e+16
-5.07072e+16
-8.14981e+15
-1.59479e+16
1.54527e+16
1.81922e+17
-1.37374e+18
-5.80924e+18
-7.90027e+18
-2.8358e+18
-4.36099e+17
-1.3676e+17
-1.87687e+17
-1.72211e+17
-2.19957e+17
-1.74477e+17
-9.64192e+16
-4.35008e+16
-1.39857e+16
5.1069e+16
1.93174e+17
-2.74922e+17
-4.37735e+18
-7.60979e+18
-2.97409e+18
-4.37586e+17
-8.46183e+15
-3.86943e+16
-8.09044e+16
-7.59518e+16
-6.5946e+16
-9.22293e+16
9.08217e+17
4.26506e+17
2.06546e+17
1.80644e+17
-2.64402e+17
-2.97694e+18
-6.86414e+18
-3.02501e+18
-5.14194e+17
-4.56947e+14
-1.68958e+14
-6.83716e+15
-1.14695e+16
-2.0514e+16
-7.86132e+16
-2.51761e+18
-1.32562e+18
-2.19051e+17
1.06674e+17
-1.03398e+18
-3.57364e+18
-5.98799e+18
-2.9428e+18
-7.18398e+17
-2.73385e+17
-1.04992e+17
-4.90059e+16
-3.12917e+16
-2.28556e+16
-6.39367e+16
-9.37469e+19
-2.94488e+19
-1.3848e+19
-8.76663e+18
-5.7525e+18
-6.69685e+18
-7.86754e+18
-2.85753e+18
-1.04251e+18
-4.49377e+17
-1.91026e+17
-8.75678e+16
-4.69846e+16
-2.61589e+16
-5.46169e+16
-5.98872e+20
-1.76875e+20
-1.21453e+20
-7.69177e+19
-5.12096e+19
-3.3041e+19
-1.79931e+19
-8.57689e+18
-3.18502e+18
-1.14458e+18
-4.26717e+17
-1.73468e+17
-7.88064e+16
-3.70669e+16
-4.51656e+16
2.57868e+22
4.72567e+21
9.88855e+20
2.25438e+20
2.62384e+19
-2.43406e+19
-2.60208e+19
-1.37597e+19
-5.86001e+18
-2.2105e+18
-8.28923e+17
-3.29427e+17
-1.42177e+17
-6.66853e+16
-9.56319e+16
-2.21665e+23
-1.182e+22
6.27055e+21
3.06684e+21
1.20958e+21
3.32208e+20
3.40882e+19
-6.80914e+18
-5.21189e+18
-2.08839e+18
-6.58159e+17
-1.435e+17
4.45356e+15
1.96561e+16
1.33985e+16
-1.38332e+23
-2.01441e+23
-4.42003e+22
-4.3472e+21
1.1019e+21
5.29846e+20
7.57482e+19
-9.66015e+17
-3.52477e+18
-1.90903e+18
-9.99092e+17
-5.41528e+17
-2.66386e+17
-9.38854e+16
4.72588e+16
2.27952e+25
6.23343e+23
-2.44514e+23
-1.06624e+22
-1.81569e+21
1.24493e+20
7.64487e+19
5.94962e+18
7.73883e+17
4.4257e+18
4.94102e+18
4.08554e+18
2.66123e+18
1.34988e+18
7.22969e+17
1.19452e+26
2.45894e+25
6.27156e+23
-2.63626e+23
4.27152e+22
-6.37917e+20
1.00906e+21
1.2093e+21
1.06401e+21
8.90451e+20
7.05085e+20
5.09574e+20
3.17448e+20
1.57384e+20
5.94557e+19
-2.85046e+27
1.3112e+26
2.32455e+25
-6.02088e+23
-1.77467e+23
5.80648e+22
1.14433e+22
1.02071e+22
7.91825e+21
5.73802e+21
4.03477e+21
2.73855e+21
1.7182e+21
9.40847e+20
3.54752e+20
1.94808e+28
-2.57018e+27
1.3109e+26
2.11233e+25
-5.16635e+23
-1.56266e+23
4.8702e+22
-5.55127e+21
-1.06644e+22
-1.31228e+22
-1.29696e+22
-1.04486e+22
-6.55494e+21
-2.80396e+21
-8.69863e+20
-2.09758e+28
1.6756e+28
-2.3648e+27
1.28047e+26
2.01957e+25
-7.60178e+23
-3.04089e+23
-2.683e+22
-2.03269e+22
1.38381e+22
2.9509e+22
2.93225e+22
1.99568e+22
9.05315e+21
3.27735e+21
-8.63182e+29
-1.09607e+28
1.48722e+28
-2.23323e+27
1.26576e+26
2.07804e+25
1.01111e+22
2.31666e+23
2.79136e+23
9.70321e+22
1.03748e+22
-2.41765e+22
-2.66857e+22
-1.31497e+22
-4.78608e+21
-5.64778e+30
-8.05785e+29
-5.13804e+27
1.3678e+28
-2.1648e+27
8.71744e+25
-1.7697e+25
-3.88618e+25
-3.7431e+25
-3.40334e+25
-2.92987e+25
-2.34666e+25
-1.68543e+25
-1.04456e+25
-5.13194e+24
3.74087e+32
-1.51326e+31
-2.24135e+30
-3.53098e+28
4.03393e+28
-8.03429e+27
-1.02898e+27
-1.00473e+27
-8.39729e+26
-6.30235e+26
-4.48495e+26
-3.1893e+26
-2.2121e+26
-1.51999e+26
-1.15302e+26
-3.08652e+33
3.50145e+32
-1.35362e+31
-2.21212e+30
-6.4334e+28
3.92942e+28
-9.89884e+27
-2.17335e+27
-1.6528e+27
-1.31639e+27
-9.14363e+26
-5.74618e+26
-3.64923e+26
-2.57818e+26
-1.58982e+26
6.05487e+33
-2.67222e+33
3.2652e+32
-1.29037e+31
-2.38866e+30
-8.65874e+28
4.57802e+28
-2.75499e+27
2.72321e+27
2.08922e+27
1.30685e+27
6.87137e+26
2.65851e+26
5.81884e+25
2.19305e+25
1.16579e+35
4.08615e+33
-2.42679e+33
2.98088e+32
3.16167e+30
-3.60083e+30
-1.75711e+29
1.85149e+29
8.73482e+28
4.83316e+28
2.91119e+28
1.52849e+28
6.90697e+27
2.52034e+27
1.15912e+27
8.59448e+35
1.12448e+35
2.99765e+33
-2.16614e+33
2.75204e+32
-8.86976e+30
-9.09408e+29
2.45781e+29
1.73514e+29
8.66612e+28
5.61408e+28
3.62654e+28
2.1935e+28
1.10639e+28
5.5902e+27
1.20601e+35
3.26693e+33
-2.38933e+33
3.35694e+32
-7.09462e+30
-3.6432e+29
6.96021e+29
4.36653e+29
2.0292e+29
1.08845e+29
5.85787e+28
3.7244e+28
2.84979e+28
1.88222e+28
1.10564e+28
6.3826e+33
-3.03734e+33
2.99333e+32
1.40527e+31
2.88291e+30
1.66115e+30
9.26455e+29
4.94271e+29
2.69469e+29
1.44865e+29
7.37606e+28
4.11771e+28
2.9813e+28
2.04804e+28
1.21746e+28
-2.24612e+33
-5.04858e+31
2.42371e+31
1.10668e+31
4.73874e+30
2.18103e+30
1.05637e+30
5.38532e+29
2.8514e+29
1.53036e+29
8.29674e+28
5.06078e+28
2.73032e+28
1.29611e+28
4.84587e+27
1.62524e+32
2.98404e+31
8.06438e+30
2.88984e+30
1.14952e+30
5.01566e+29
2.32942e+29
1.11988e+29
5.31569e+28
2.55902e+28
1.2254e+28
8.10618e+27
-7.11712e+27
-3.55709e+27
-1.42948e+27
-2.26973e+30
-6.88582e+29
-4.70064e+29
-2.74361e+29
-1.69921e+29
-1.13175e+29
-7.88853e+28
-5.8465e+28
-6.0299e+28
-9.82189e+28
-1.58592e+28
6.09931e+27
7.48125e+26
1.05299e+26
5.92734e+25
-3.22234e+29
-9.67118e+28
-5.99672e+28
-4.27671e+28
-2.96097e+28
-2.0662e+28
-1.53039e+28
-1.18357e+28
-2.1075e+28
-7.65009e+28
-6.58874e+28
-2.49706e+28
-3.88642e+27
-1.63672e+27
-7.63851e+26
-4.39071e+28
-1.86541e+28
-5.15375e+27
-6.34843e+26
1.01696e+27
1.28699e+27
-8.72525e+26
-2.8031e+27
-2.60347e+27
-3.81069e+28
-5.6386e+28
-3.85746e+28
-2.29651e+28
-1.35999e+28
-7.88187e+27
1.18271e+28
4.57351e+27
1.86562e+27
9.5614e+26
5.70389e+26
3.12255e+26
1.51155e+26
3.5296e+25
-7.07848e+25
-5.09585e+26
-5.85743e+27
-8.48604e+27
-7.40237e+27
-5.59724e+27
-4.11292e+27
-1.15503e+27
-4.33155e+26
-2.17842e+26
-1.40575e+26
-1.0417e+26
-7.3492e+25
-3.2874e+25
4.70172e+22
1.56393e+25
7.74948e+25
-1.26106e+26
-2.78325e+26
-2.82034e+26
-2.44095e+26
-2.09853e+26
1.30489e+25
3.01408e+24
5.27053e+24
5.23877e+24
5.06213e+24
4.27164e+24
1.24065e+24
-1.22429e+24
-2.11381e+24
-3.45067e+24
2.78598e+25
3.8967e+25
3.32204e+25
2.63999e+25
2.1435e+25
9.00255e+24
3.23434e+24
1.78082e+24
1.29359e+24
1.05111e+24
8.17568e+23
5.376e+23
2.42911e+23
-2.92886e+23
-1.35115e+24
-1.98449e+24
-1.00656e+24
-3.29225e+23
-7.95609e+22
-7.52212e+21
4.08366e+23
2.04879e+23
3.73891e+22
-2.2157e+22
-4.13558e+22
-3.23657e+22
1.83019e+22
6.80069e+22
9.25135e+22
3.49814e+22
-4.27717e+23
-6.18676e+23
-5.57487e+23
-4.48434e+23
-3.44845e+23
-1.98325e+23
-7.92045e+22
-3.21831e+22
-1.6031e+22
-9.12642e+21
-4.91157e+21
-1.63788e+21
4.29433e+21
2.04214e+22
5.51921e+22
9.8198e+22
9.19521e+22
7.12556e+22
5.39516e+22
4.08661e+22
2.34605e+22
8.85217e+21
4.4296e+21
2.84464e+21
2.03303e+21
1.25912e+21
3.58342e+20
-3.48599e+20
-4.03147e+20
1.53961e+21
6.1371e+21
7.53118e+21
6.56999e+21
5.22635e+21
4.04461e+21
-3.90885e+20
-1.40367e+20
-1.43831e+20
-1.24148e+20
-1.00168e+20
-5.30479e+19
1.28748e+19
2.11424e+19
-1.07883e+20
-4.4318e+20
-8.77991e+20
-8.84214e+20
-7.02557e+20
-5.09592e+20
-3.27359e+20
-1.60117e+20
-5.66236e+19
-3.27716e+19
-2.5084e+19
-2.05147e+19
-1.4527e+19
-4.99235e+18
1.02519e+19
3.1776e+19
4.65209e+19
4.26461e+19
2.99318e+19
2.86432e+19
4.34086e+19
8.05339e+19
-1.09534e+19
-4.95747e+18
-7.58406e+17
6.05979e+17
8.76438e+17
3.10584e+17
-9.64052e+17
-1.74233e+18
-3.152e+17
5.17258e+18
1.20891e+19
1.46095e+19
1.85736e+19
3.1569e+19
6.15916e+19
4.70758e+18
1.85289e+18
7.4377e+17
3.7091e+17
2.11195e+17
1.08226e+17
-3.67399e+15
-2.47649e+17
-7.83641e+17
-1.56416e+18
-1.92659e+18
-5.21959e+17
3.58033e+18
1.44976e+19
3.85892e+19
-5.28412e+17
-2.02749e+17
-1.02992e+17
-6.67441e+16
-4.75562e+16
-2.89003e+16
-7.33086e+15
1.00247e+16
7.78409e+15
-4.62466e+16
-1.36785e+17
-1.03713e+17
7.93966e+17
6.03655e+18
2.09041e+19
6.87241e+15
2.37612e+15
2.97505e+15
2.76028e+15
2.30058e+15
1.33787e+15
5.16463e+13
-2.83875e+13
2.53117e+15
5.27077e+15
7.80221e+15
2.98456e+15
3.23496e+16
3.53708e+17
1.5617e+18
3.72123e+15
1.41739e+15
7.92502e+14
5.73826e+14
4.57346e+14
3.41355e+14
1.876e+14
2.8893e+13
-7.92129e+14
-7.30217e+15
-1.57448e+16
-2.49517e+16
-3.62321e+16
-4.10346e+16
-5.43697e+15
1.29784e+14
6.95801e+13
6.63048e+12
-1.58145e+13
-2.0144e+13
-1.01573e+13
3.38423e+13
1.98137e+14
-2.66809e+14
-8.09137e+15
-1.82438e+16
-2.90153e+16
-4.24572e+16
-6.03268e+16
-8.30438e+16
-7.80657e+13
-3.32265e+13
-1.43391e+13
-7.36648e+12
-4.28409e+12
-1.13008e+12
2.52479e+13
1.93118e+14
-3.28979e+14
-9.65731e+15
-2.13602e+16
-3.40228e+16
-4.99498e+16
-7.07849e+16
-9.73943e+16
8.51577e+12
3.50563e+12
1.90666e+12
1.26758e+12
9.69364e+11
2.0491e+12
2.78577e+13
2.18187e+14
-4.13608e+14
-1.05225e+16
-2.32469e+16
-3.81434e+16
-5.70718e+16
-8.1842e+16
-1.13513e+17
-3.09134e+10
-5.58536e+09
-3.22976e+10
-3.63616e+10
2.94882e+09
1.36323e+12
2.93928e+13
2.53949e+14
-4.78681e+14
-9.5132e+15
-2.14887e+16
-3.65467e+16
-5.6338e+16
-8.25123e+16
-1.16393e+17
-5.73483e+10
-2.38822e+10
-1.60129e+10
-1.40033e+10
1.74821e+10
1.26394e+12
3.04608e+13
2.97577e+14
1.19128e+14
-6.6352e+15
-1.70105e+16
-2.99497e+16
-4.6596e+16
-6.84497e+16
-9.68412e+16
-4.67519e+09
-3.61961e+09
-3.21403e+09
-4.21258e+09
1.87469e+10
1.0887e+12
2.96791e+13
3.4835e+14
3.81209e+14
-3.34758e+15
-1.0635e+16
-1.96084e+16
-3.05506e+16
-4.43796e+16
-6.19553e+16
5.25331e+08
-1.09206e+09
-2.68926e+09
-4.79387e+09
1.24666e+10
9.05697e+11
2.69014e+13
3.98125e+14
5.14612e+14
-8.40141e+14
-4.21032e+15
-8.95453e+15
-1.48401e+16
-2.19593e+16
-3.0656e+16
-1.19728e+09
-2.09302e+09
-3.49843e+09
-5.74535e+09
7.82647e+09
7.77995e+11
2.3821e+13
4.87484e+14
7.01825e+14
3.34929e+14
-7.65447e+14
-2.60747e+15
-5.10617e+15
-8.20262e+15
-1.20213e+16
-1.24136e+09
-2.38457e+09
-4.04495e+09
-6.64501e+09
3.09088e+09
6.93541e+11
2.43861e+13
4.63162e+14
7.96815e+14
7.92599e+14
5.46735e+14
4.81027e+13
-7.20994e+14
-1.77295e+15
-3.14799e+15
-1.46291e+09
-2.84018e+09
-4.8221e+09
-7.85096e+09
-2.78796e+09
5.62058e+11
2.5593e+13
3.42433e+14
6.50329e+14
7.85658e+14
8.32735e+14
7.99357e+14
6.85823e+14
4.8384e+14
1.6769e+14
-1.70551e+09
-3.33833e+09
-5.67847e+09
-9.128e+09
-8.15517e+09
3.6621e+11
2.84478e+13
2.22772e+14
3.90808e+14
5.09977e+14
6.03671e+14
6.76914e+14
7.34884e+14
7.76426e+14
7.90626e+14
-1.95286e+09
-3.84979e+09
-6.55575e+09
-1.03806e+10
-1.15558e+10
1.74962e+11
2.02906e+13
1.06473e+14
1.76413e+14
2.35709e+14
2.8937e+14
3.4215e+14
3.96997e+14
4.53083e+14
5.07047e+14
-2.23018e+09
-4.42553e+09
-7.54238e+09
-1.17462e+10
-1.33522e+10
7.58268e+10
5.577e+12
3.57273e+13
5.96879e+13
7.99099e+13
9.90146e+13
1.19348e+14
1.4232e+14
1.67594e+14
1.94233e+14
-2.53979e+09
-5.08294e+09
-8.70532e+09
-1.34062e+10
-1.42826e+10
5.37681e+10
2.20153e+12
8.18607e+12
1.37732e+13
1.86002e+13
2.31935e+13
2.83738e+13
3.43285e+13
4.09357e+13
4.8079e+13
-2.86561e+09
-5.77187e+09
-9.91861e+09
-1.51604e+10
-1.56831e+10
5.95621e+10
4.56154e+11
1.15097e+12
1.82259e+12
2.46665e+12
3.12535e+12
3.87197e+12
4.72736e+12
5.68278e+12
6.73203e+12
-3.17087e+09
-6.55444e+09
-1.16304e+10
-1.85031e+10
-2.54297e+10
-2.61868e+10
-1.51549e+10
5.80003e+09
2.78298e+10
5.07137e+10
7.67919e+10
1.08306e+11
1.46421e+11
1.91767e+11
2.45302e+11
-2.92042e+09
-6.09101e+09
-1.08988e+10
-1.75049e+10
-2.56427e+10
-3.44672e+10
-4.19083e+10
-4.65386e+10
-5.00843e+10
-5.41059e+10
-5.87442e+10
-6.40764e+10
-6.99731e+10
-7.61259e+10
-8.22659e+10
-2.04198e+09
-4.12877e+09
-7.03817e+09
-1.05459e+10
-1.40747e+10
-1.7121e+10
-1.91343e+10
-1.99109e+10
-1.99817e+10
-1.99824e+10
-2.01209e+10
-2.03963e+10
-2.07762e+10
-2.12216e+10
-2.17173e+10
-9.59804e+08
-1.83115e+09
-2.89556e+09
-4.00248e+09
-4.93192e+09
-5.61534e+09
-6.01362e+09
-6.13482e+09
-6.07705e+09
-5.95392e+09
-5.81907e+09
-5.6774e+09
-5.52129e+09
-5.34793e+09
-5.16199e+09
-2.93659e+08
-5.23657e+08
-7.44727e+08
-9.38679e+08
-1.08017e+09
-1.17236e+09
-1.22216e+09
-1.23702e+09
-1.22905e+09
-1.21114e+09
-1.18935e+09
-1.16347e+09
-1.13201e+09
-1.09446e+09
-1.05173e+09
-3.50145e+07
-7.79811e+07
-1.10081e+08
-1.30766e+08
-1.4144e+08
-1.46014e+08
-1.46673e+08
-1.44973e+08
-1.42412e+08
-1.3976e+08
-1.36996e+08
-1.33867e+08
-1.30195e+08
-1.25938e+08
-1.21138e+08
1.21278e+07
4.86532e+06
-1.30436e+06
-4.97499e+06
-6.91966e+06
-7.81311e+06
-8.06339e+06
-7.96294e+06
-7.73408e+06
-7.47649e+06
-7.1974e+06
-6.89348e+06
-6.56995e+06
-6.23699e+06
-5.88987e+06
7.98353e+06
7.0737e+06
5.33865e+06
3.95215e+06
2.90486e+06
2.14277e+06
1.59577e+06
1.20127e+06
919611
722625
583363
481559
404829
345326
301213
2.0397e+06
2.0723e+06
1.7643e+06
1.45403e+06
1.17803e+06
949519
765307
618283
505492
420677
353914
299111
253365
214939
182988
247300
280792
260307
229320
196085
165059
137802
115401
98044.5
84385.3
72942.4
63005.1
54301.4
46686.9
40070
5829.99
10605.7
12213.7
12257.5
11465.9
10343.1
9150.66
8083.37
7208.85
6457.65
5765.01
5114.47
4507.53
3949.25
3441.93
-2744.06
-2126.16
-1527.11
-1105.09
-805.058
-591.226
-437.177
-326.841
-247.734
-189.26
-144.56
-109.783
-82.6534
-61.5281
-45.6308
-696.917
-513.098
-354.856
-257.534
-193.511
-149.19
-117.849
-95.8617
-79.89
-67.434
-57.1669
-48.4695
-41.0266
-34.6426
-29.2513
-133.936
-98.3864
-63.8857
-42.6408
-29.3944
-20.962
-15.477
-11.8653
-9.38477
-7.56327
-6.15639
-5.0395
-4.13953
-3.40781
-2.81789
-17.7091
-13.7704
-9.41376
-6.47309
-4.52543
-3.24527
-2.4035
-1.84277
-1.44587
-1.14725
-0.914938
-0.73162
-0.585984
-0.469949
-0.378046
-1.69504
-1.19856
-0.790566
-0.544355
-0.38505
-0.281266
-0.213942
-0.16856
-0.135255
-0.109251
-0.0884226
-0.071588
-0.0579369
-0.046878
-0.0379598
-0.121974
-0.0829952
-0.0452614
-0.0269035
-0.0170331
-0.0115074
-0.00830569
-0.00629823
-0.0049005
-0.00385922
-0.00306094
-0.00244035
-0.00195289
-0.00156884
-0.00126252
0.0232891
0.00799744
0.00274217
0.000976975
0.000365105
0.000130532
3.79989e-05
9.19463e-06
8.62821e-06
1.63043e-05
2.34464e-05
2.77327e-05
2.92739e-05
2.86048e-05
2.75936e-05
0.00995561
0.00539649
0.00264639
0.00140765
0.000803352
0.000487825
0.000313408
0.000211087
0.000147113
0.000104825
7.58322e-05
5.55169e-05
4.10583e-05
3.06425e-05
2.32298e-05
0.00119054
0.000796122
0.000453338
0.000273313
0.000173894
0.000116835
8.21543e-05
5.94604e-05
4.37331e-05
3.24288e-05
2.41494e-05
1.80402e-05
1.35131e-05
1.01558e-05
7.67088e-06
6.64064e-06
1.87637e-05
1.62948e-05
1.25563e-05
9.481e-06
7.25354e-06
5.63524e-06
4.41168e-06
3.45042e-06
2.68584e-06
2.08108e-06
1.60576e-06
1.23392e-06
9.46187e-07
7.24729e-07
-1.21102e-05
-6.94348e-06
-3.58086e-06
-1.97778e-06
-1.16357e-06
-7.22688e-07
-4.70063e-07
-3.16827e-07
-2.18217e-07
-1.51939e-07
-1.06395e-07
-7.47979e-08
-5.27849e-08
-3.74068e-08
-2.6862e-08
-1.57577e-06
-9.60718e-07
-5.37372e-07
-3.23129e-07
-2.07544e-07
-1.408e-07
-9.97717e-08
-7.28965e-08
-5.40898e-08
-4.03485e-08
-3.01233e-08
-2.24749e-08
-1.67599e-08
-1.25089e-08
-9.39746e-09
-1.76678e-07
-9.71172e-08
-5.01484e-08
-2.86e-08
-1.77449e-08
-1.17689e-08
-8.21781e-09
-5.94686e-09
-4.3873e-09
-3.26296e-09
-2.43291e-09
-1.81496e-09
-1.35486e-09
-1.01374e-09
-7.65183e-10
-1.99222e-08
-1.09847e-08
-5.49317e-09
-3.04201e-09
-1.83226e-09
-1.17846e-09
-7.9704e-10
-5.58329e-10
-3.98699e-10
-2.87191e-10
-2.07684e-10
-1.50593e-10
-1.09558e-10
-8.0136e-11
-5.9302e-11
-1.17085e-09
-7.28553e-10
-3.90932e-10
-2.30836e-10
-1.46573e-10
-9.82648e-11
-6.85026e-11
-4.89577e-11
-3.53903e-11
-2.56645e-11
-1.86154e-11
-1.35079e-11
-9.82325e-12
-7.18578e-12
-5.31439e-12
6.25379e-11
2.3558e-11
8.35253e-12
2.62793e-12
5.05328e-13
-2.64303e-13
-5.01579e-13
-5.25857e-13
-4.68527e-13
-3.87408e-13
-3.07495e-13
-2.38419e-13
-1.82768e-13
-1.403e-13
-1.07754e-13
2.34213e-11
1.14869e-11
5.36731e-12
2.78016e-12
1.57951e-12
9.65053e-13
6.23689e-13
4.19624e-13
2.8933e-13
2.02162e-13
1.42386e-13
1.00923e-13
7.20024e-14
5.17938e-14
3.78221e-14
3.30732e-12
1.64416e-12
7.62122e-13
3.98464e-13
2.29353e-13
1.41997e-13
9.2871e-14
6.30728e-14
4.37857e-14
3.07574e-14
2.17641e-14
1.54961e-14
1.11086e-14
8.03519e-15
5.89221e-15
2.60207e-13
1.43867e-13
6.92517e-14
3.73386e-14
2.1905e-14
1.36998e-14
8.99035e-15
6.0949e-15
4.20948e-15
2.93774e-15
2.06514e-15
1.4613e-15
1.0418e-15
7.50082e-16
5.46772e-16
4.72421e-16
2.34904e-15
1.81108e-15
1.26205e-15
8.73578e-16
6.11824e-16
4.34352e-16
3.11012e-16
2.23171e-16
1.60129e-16
1.14982e-16
8.27766e-17
5.99043e-17
4.37156e-17
3.214e-17
-1.40037e-15
-8.44977e-16
-4.04935e-16
-2.07921e-16
-1.13473e-16
-6.57105e-17
-4.00454e-17
-2.53563e-17
-1.64696e-17
-1.08827e-17
-7.28539e-18
-4.92917e-18
-3.36509e-18
-2.3164e-18
-1.61818e-18
-9.27155e-17
-6.77273e-17
-4.01396e-17
-2.30182e-17
-1.3915e-17
-8.9041e-18
-5.96292e-18
-4.11795e-18
-2.892e-18
-2.04996e-18
-1.46328e-18
-1.05111e-18
-7.59903e-19
-5.52992e-19
-4.05733e-19
-4.34102e-17
-1.47097e-17
-5.29927e-18
-2.14379e-18
-1.01484e-18
-5.48375e-19
-3.29163e-19
-2.13436e-19
-1.45372e-19
-1.01904e-19
-7.2695e-20
-5.24628e-20
-3.82081e-20
-2.80586e-20
-2.08976e-20
-1.00899e-17
-3.84661e-18
-1.37934e-18
-5.92553e-19
-2.92188e-19
-1.59001e-19
-9.31066e-20
-5.73998e-20
-3.66124e-20
-2.39181e-20
-1.5903e-20
-1.07117e-20
-7.2975e-21
-5.03403e-21
-3.52739e-21
-2.97657e-19
-2.0169e-19
-9.25753e-20
-5.12959e-20
-3.02783e-20
-1.87365e-20
-1.20342e-20
-7.92233e-21
-5.29976e-21
-3.59325e-21
-2.46461e-21
-1.7056e-21
-1.18997e-21
-8.37474e-22
-5.92245e-22
1.73028e-19
5.72782e-20
1.82933e-20
6.70126e-21
2.80905e-21
1.30755e-21
6.60993e-22
3.55914e-22
2.00321e-22
1.15992e-22
6.83579e-23
4.06771e-23
2.43067e-23
1.46217e-23
9.23263e-24
2.12384e-20
8.74502e-21
3.2565e-21
1.46499e-21
7.50761e-22
4.23083e-22
2.54855e-22
1.60291e-22
1.03717e-22
6.85807e-23
4.61298e-23
3.14174e-23
2.16091e-23
1.49912e-23
1.04689e-23
-4.77145e-22
-1.10093e-23
3.36896e-23
3.06817e-23
2.24222e-23
1.5811e-23
1.10318e-23
7.65994e-24
5.32623e-24