/*--------------------------------*- C++ -*----------------------------------*\
  =========                 |
  \\      /  F ield         | OpenFOAM: The Open Source CFD Toolbox
   \\    /   O peration     | Website:  https://openfoam.org
    \\  /    A nd           | Version:  7
     \\/     M anipulation  |
\*---------------------------------------------------------------------------*/
FoamFile
{
    version     2.0;
    format      ascii;
    class       surfaceScalarField;
    location    "3.8";
    object      phi;
}
// * * * * * * * * * * * * * * * * * * * * * * * * * * * * * * * * * * * * * //

dimensions      [0 3 -1 0 0 0 0];

internalField   nonuniform List<scalar> 
63695
(
-1.93783e-05
-0.000251754
-7.94358e-05
-0.000743138
-0.000175656
-0.00118886
-0.000302876
-0.00155475
-0.00044959
-0.00181083
-0.000606177
-0.00192682
-0.00075871
-0.00187333
-0.000891016
-0.00162254
-0.000983737
-0.00114527
-0.00100602
-0.00040816
-0.00089991
0.00062509
-0.000540565
0.00197729
0.000352534
0.00362009
0.00256034
0.00539061
0.00693337
-2.0145e-05
-0.000234889
-8.45775e-05
-0.000694008
-0.000187442
-0.00111044
-0.000324259
-0.00145616
-0.000486283
-0.00170233
-0.000664299
-0.00182097
-0.000846163
-0.00178459
-0.00101744
-0.00156599
-0.00116029
-0.00113636
-0.00124794
-0.000465053
-0.00123673
0.000480525
-0.00105531
0.00173424
-0.000603652
0.00335179
-0.000281799
0.00559617
0.00909933
-2.17548e-05
-0.00024062
-9.20178e-05
-0.000710974
-0.000204301
-0.00113957
-0.000354951
-0.00149835
-0.00053712
-0.00175831
-0.000742672
-0.00189143
-0.000961529
-0.00186975
-0.0011816
-0.00166499
-0.00138818
-0.00124761
-0.0015628
-0.000586052
-0.00168093
0.000355232
-0.00171929
0.00162219
-0.00169128
0.00329944
-0.00176928
0.00560952
0.00883054
-2.3934e-05
-0.000248121
-0.00010139
-0.000733563
-0.000225875
-0.00117798
-0.000394543
-0.00155365
-0.000601606
-0.00183093
-0.000840381
-0.00198204
-0.00110266
-0.00197864
-0.00137889
-0.0017917
-0.00165856
-0.00139076
-0.00193001
-0.000743003
-0.00218524
0.000189625
-0.0024273
0.00145787
-0.00269309
0.00314391
-0.0030667
0.00539387
0.00823674
-2.65352e-05
-0.000258508
-0.000112572
-0.000764884
-0.000251345
-0.0012302
-0.000440951
-0.00162864
-0.00067669
-0.00192806
-0.000953005
-0.00210123
-0.00126344
-0.00211959
-0.00160087
-0.00195346
-0.00195781
-0.00157158
-0.00232979
-0.000939933
-0.00271818
-1.95478e-05
-0.00313163
0.00123812
-0.00360385
0.00290249
-0.00417643
0.00505505
0.00763143
-2.94261e-05
-0.000271527
-0.000124853
-0.000804416
-0.000279646
-0.00129664
-0.000492919
-0.0017224
-0.000760214
-0.0020478
-0.00107737
-0.00224705
-0.00143937
-0.00229098
-0.00184108
-0.00214927
-0.00227822
-0.0017899
-0.00275034
-0.00117867
-0.00326074
-0.000277576
-0.00381861
0.000958293
-0.00444925
0.00258476
-0.00517295
0.00464262
0.00704159
-3.26723e-05
-0.000286938
-0.000138738
-0.000851129
-0.000310943
-0.00137657
-0.000549218
-0.00183298
-0.00085036
-0.00218925
-0.00121076
-0.00241884
-0.00162678
-0.00249249
-0.00209478
-0.0023793
-0.00261281
-0.00204666
-0.00318171
-0.00146124
-0.00380452
-0.000586805
-0.0044888
0.000618645
-0.00525102
0.00220157
-0.00610201
0.00417919
0.00646079
-3.59959e-05
-0.000304677
-0.000153295
-0.00090553
-0.000344421
-0.00146873
-0.000609357
-0.00196027
-0.000945888
-0.00235189
-0.00135129
-0.00261612
-0.00182286
-0.00272388
-0.00235823
-0.00264366
-0.00295667
-0.00234237
-0.00361915
-0.00178822
-0.00434791
-0.000946851
-0.00514775
0.000222221
-0.0060271
0.00176012
-0.00699385
0.0036732
0.00587683
-3.93867e-05
-0.000324221
-0.000167989
-0.000967152
-0.000379107
-0.00157299
-0.000672349
-0.0021043
-0.0010456
-0.00253566
-0.0014973
-0.00283864
-0.00202564
-0.00298511
-0.00262901
-0.0029425
-0.00330707
-0.00267715
-0.00406065
-0.00215919
-0.00489106
-0.00135661
-0.00580118
-0.000226684
-0.006792
0.00126598
-0.00787065
0.0031253
0.00527274
-4.23631e-05
-0.000344827
-0.000182984
-0.00103366
-0.000415569
-0.0016866
-0.000738011
-0.00226258
-0.00114878
-0.00273928
-0.0016476
-0.00308619
-0.00223354
-0.00327713
-0.00290515
-0.00327642
-0.00366197
-0.00305116
-0.00450469
-0.00257442
-0.00543456
-0.00181489
-0.00645307
-0.000727154
-0.00755251
0.000714609
-0.00875136
0.00249966
0.00456461
-4.4918e-05
-0.00036662
-0.000196936
-0.00110125
-0.0004524
-0.00181695
-0.000805382
-0.00244338
-0.00125421
-0.00296315
-0.00180119
-0.00335783
-0.00244575
-0.00359887
-0.00318581
-0.00364358
-0.00402059
-0.00346202
-0.00495069
-0.00302848
-0.00597744
-0.0023082
-0.00709776
-0.0012687
-0.00830655
0.00012398
-0.00962807
0.00180858
0.00363183
-4.60647e-05
-0.000389605
-0.000203667
-0.00118139
-0.000479786
-0.00201547
-0.000870825
-0.00265842
-0.00136082
-0.00321378
-0.00195704
-0.00365479
-0.00266121
-0.00395014
-0.00347032
-0.00404151
-0.00438244
-0.00390705
-0.00539706
-0.00349856
-0.00651975
-0.00265051
-0.0077377
-0.00160482
-0.00902808
-0.000449997
-0.0103795
0.00128802
0.00276776
-4.79591e-05
-0.000425766
-0.000216016
-0.00144223
-0.000512394
-0.002576
-0.000933848
-0.00331451
-0.00146272
-0.00383365
-0.00211444
-0.00402695
-0.00288066
-0.00439469
-0.00376069
-0.00448828
-0.00475919
-0.00439335
-0.0058483
-0.00394684
-0.00697574
-0.00260442
-0.00826219
-0.00120135
-0.00961762
-0.000896041
-0.010501
0.00236755
0.00419113
-5.25311e-05
-0.000590612
-0.000236259
-0.00195008
-0.000524412
-0.00333506
-0.000943287
-0.00435828
-0.00152332
-0.00495652
-0.00227613
-0.00508572
-0.00311955
-0.00532193
-0.00407693
-0.00526213
-0.00520617
-0.00493703
-0.00640892
-0.00424665
-0.00755726
-0.00240262
-0.00886543
-0.00024016
-0.0101874
0.000826235
-0.0107585
0.00444977
0.00751906
-9.00179e-05
-0.000791541
-0.000306096
-0.0024496
-0.000583424
-0.00400794
-0.00100558
-0.00526938
-0.00166612
-0.00607756
-0.00264121
-0.00638931
-0.00374526
-0.00645052
-0.00491619
-0.00621178
-0.00613739
-0.00555532
-0.00739545
-0.0045552
-0.00868546
-0.00253345
-0.00998419
0.000126322
-0.0113103
0.00303636
-0.0122765
0.00580627
0.0100655
-9.17955e-05
-0.00090126
-0.0003443
-0.00277306
-0.000693182
-0.00453494
-0.00122725
-0.00592083
-0.00202554
-0.00684518
-0.00308719
-0.00722262
-0.00430052
-0.00731142
-0.005628
-0.00702982
-0.00702793
-0.00625235
-0.00846951
-0.00509569
-0.00999736
-0.00303319
-0.0116012
-0.000236861
-0.0130428
0.00317033
-0.0142564
0.00647672
0.0114128
-9.00807e-05
-0.000996564
-0.000384102
-0.00300182
-0.000844793
-0.00488868
-0.00151935
-0.00639516
-0.00244485
-0.00742419
-0.00359772
-0.00795417
-0.00492338
-0.00810269
-0.00639516
-0.00783924
-0.00797389
-0.00703107
-0.00961587
-0.00579175
-0.0113777
-0.00371594
-0.0132616
-0.000839983
-0.0149185
0.00268139
-0.0164796
0.00656603
0.0118629
-9.99468e-05
-0.00108818
-0.000439267
-0.00323518
-0.00100003
-0.00526463
-0.0018095
-0.00689531
-0.00286383
-0.00806412
-0.00413083
-0.00871239
-0.00557814
-0.00892846
-0.00720538
-0.00868142
-0.00898337
-0.00788552
-0.0108303
-0.00659501
-0.0127988
-0.00450453
-0.0149547
-0.00155774
-0.0168608
0.00208641
-0.0186989
0.0064203
0.0119764
-0.000114246
-0.00117978
-0.000506294
-0.00349389
-0.0011638
-0.00570576
-0.00210076
-0.00749572
-0.00329785
-0.0087972
-0.00471186
-0.00955648
-0.00628991
-0.00985128
-0.00805599
-0.00962098
-0.0100267
-0.0088085
-0.0120862
-0.00747464
-0.0142642
-0.00535955
-0.0165971
-0.00224116
-0.0187937
0.00157569
-0.0210044
0.00616677
0.0119172
-0.000128603
-0.00128037
-0.000572899
-0.0037995
-0.00132968
-0.00623431
-0.00240903
-0.00820248
-0.00376484
-0.0096359
-0.0053432
-0.0105124
-0.00708383
-0.0108983
-0.00900934
-0.0106807
-0.0111635
-0.00979645
-0.013438
-0.00838525
-0.0158604
-0.00629288
-0.0185051
-0.00307368
-0.0209731
0.00094272
-0.0234272
0.00581505
0.0116756
-0.000142057
-0.00139957
-0.000642913
-0.0041727
-0.00151322
-0.00684723
-0.00274805
-0.00900275
-0.00427481
-0.0105977
-0.0060412
-0.0115894
-0.00797826
-0.0120937
-0.0100934
-0.0118414
-0.0124475
-0.0108346
-0.0149168
-0.00929427
-0.0175346
-0.00725404
-0.0204219
-0.0039808
-0.0231522
0.000320099
-0.0258481
0.00550436
0.0114871
-0.00015499
-0.0015424
-0.000718658
-0.00461511
-0.00171996
-0.00754025
-0.00312867
-0.00991169
-0.00483741
-0.0116921
-0.00680196
-0.0128045
-0.00898314
-0.0134492
-0.0113503
-0.0130994
-0.0139292
-0.0119175
-0.0165676
-0.0101841
-0.0193354
-0.00815179
-0.0223765
-0.00463771
-0.0253346
0.000192339
-0.028266
0.00541891
0.0116673
-0.00017045
-0.00171259
-0.0008054
-0.00513184
-0.00195184
-0.00833069
-0.00355617
-0.0109564
-0.00546229
-0.0129473
-0.00762342
-0.014234
-0.0100915
-0.0149568
-0.0127976
-0.0144601
-0.0156611
-0.0130608
-0.0184662
-0.0110915
-0.0213661
-0.00892488
-0.0245691
-0.00497359
-0.0276875
0.000590593
-0.0307368
0.00575877
0.0126053
-0.000189371
-0.0019114
-0.000905049
-0.005715
-0.00221605
-0.00922065
-0.0040445
-0.01214
-0.0061741
-0.0143785
-0.00855481
-0.0159037
-0.0113453
-0.0166412
-0.0144477
-0.0159695
-0.017649
-0.0142863
-0.0206599
-0.012094
-0.0237405
-0.00961505
-0.0271402
-0.00500632
-0.030354
0.00135933
-0.0333996
0.00670704
0.0146734
-0.000213219
-0.00214199
-0.00101775
-0.00637453
-0.00250716
-0.0102441
-0.00458356
-0.0134856
-0.00696517
-0.0159943
-0.00960361
-0.017802
-0.0127676
-0.0185409
-0.0163418
-0.0176883
-0.0199347
-0.0156329
-0.0231757
-0.0131802
-0.0265084
-0.0103234
-0.0301781
-0.00478714
-0.0334908
0.00234832
-0.0365133
0.00834543
0.0179158
-0.000243074
-0.00239986
-0.00114664
-0.00712635
-0.00283567
-0.0114207
-0.00519482
-0.0150077
-0.00786403
-0.01781
-0.0108016
-0.0199444
-0.0143824
-0.0206768
-0.0184806
-0.0196459
-0.0225625
-0.0171714
-0.0260978
-0.0143304
-0.0297263
-0.0111642
-0.0337856
-0.0046929
-0.0372916
0.00344311
-0.0403649
0.0106103
0.0219219
-0.000283235
-0.00267498
-0.0013077
-0.00794683
-0.00321365
-0.0127161
-0.00588384
-0.0166803
-0.00888075
-0.0198461
-0.0121687
-0.0223576
-0.0162168
-0.0230802
-0.0208622
-0.0218731
-0.0255183
-0.0190078
-0.0294328
-0.0154224
-0.0333752
-0.0121809
-0.037979
-0.00493985
-0.041812
0.00457518
-0.0449406
0.0136323
0.0266172
-0.000329515
-0.00297057
-0.00149768
-0.00880717
-0.00363755
-0.0140941
-0.0066505
-0.0184926
-0.0100249
-0.02213
-0.0137319
-0.0250421
-0.018323
-0.0257557
-0.0235495
-0.0243816
-0.0289468
-0.021153
-0.033305
-0.0167329
-0.0374316
-0.0132127
-0.0425731
-0.00510201
-0.0467958
0.00607041
-0.0499433
0.0179365
0.0327595
-0.00037333
-0.00330683
-0.0016872
-0.00975446
-0.0040787
-0.0156043
-0.00746054
-0.020504
-0.0112913
-0.0247025
-0.0155203
-0.0280111
-0.0207087
-0.0287316
-0.0265594
-0.0271819
-0.0326087
-0.0235177
-0.037553
-0.0183748
-0.0421857
-0.0141561
-0.0479058
-0.00512553
-0.0524792
0.00802385
-0.0555553
0.0237504
0.0409198
-0.000406902
-0.00371848
-0.00184715
-0.0109465
-0.00451603
-0.0174519
-0.00830833
-0.0228272
-0.0126997
-0.0275728
-0.0175937
-0.0313085
-0.0234615
-0.0320555
-0.0300488
-0.030309
-0.0368713
-0.0261333
-0.0425567
-0.0202053
-0.0477771
-0.0149248
-0.0541484
-0.00526568
-0.0590693
0.0104196
-0.0619702
0.0311889
0.0519414
-0.000434345
-0.00422843
-0.00199291
-0.0125198
-0.00498396
-0.0198814
-0.00925093
-0.0255015
-0.0142695
-0.0307814
-0.0199438
-0.0349676
-0.0266396
-0.035789
-0.0340857
-0.0338662
-0.0417426
-0.0290992
-0.0483552
-0.0223095
-0.0542622
-0.0153794
-0.0610912
-0.0048949
-0.0664913
0.0146529
-0.0693567
0.0407611
0.0674323
-0.000472544
-0.00480649
-0.0021926
-0.0143378
-0.00557401
-0.0225977
-0.0103551
-0.0286124
-0.016031
-0.0344846
-0.0225657
-0.0390423
-0.0302774
-0.040045
-0.03886
-0.038054
-0.0475344
-0.0326535
-0.0551814
-0.024735
-0.0619359
-0.0156844
-0.0691929
-0.0026613
-0.0754912
0.0215154
-0.0791172
0.0520331
0.0869981
-0.000576201
-0.00539887
-0.00265421
-0.0160288
-0.00648575
-0.0251432
-0.011715
-0.0322845
-0.0180452
-0.0387263
-0.0254802
-0.0435499
-0.0342907
-0.0448999
-0.0441815
-0.0430436
-0.0541794
-0.0370404
-0.0632222
-0.0277463
-0.071536
-0.0163507
-0.0801024
0.000729582
-0.0877228
0.0291143
-0.0928703
0.0634824
0.107844
-0.000709001
-0.00600508
-0.00319438
-0.0176122
-0.00752688
-0.027705
-0.0133144
-0.0364262
-0.0203337
-0.0434242
-0.028683
-0.0484936
-0.0386663
-0.0505524
-0.0500885
-0.0490497
-0.0617967
-0.042455
-0.0727908
-0.0316483
-0.0833111
-0.0179552
-0.0940306
0.00280042
-0.103599
0.0350978
-0.111024
0.0736458
0.127222
-0.000796838
-0.00666116
-0.00361069
-0.0195135
-0.00856418
-0.0308585
-0.0150957
-0.0409079
-0.0229692
-0.0485379
-0.0322219
-0.0540664
-0.0434339
-0.0577001
-0.0566246
-0.056191
-0.0704982
-0.0491222
-0.0839674
-0.0369997
-0.0970107
-0.0211821
-0.110436
0.00234475
-0.122787
0.0383691
-0.133362
0.0813222
0.143207
-0.0008936
-0.00737328
-0.0040393
-0.0217506
-0.00965945
-0.0344997
-0.0171568
-0.0455633
-0.0259865
-0.0540822
-0.0362273
-0.0606199
-0.048782
-0.0663151
-0.0637209
-0.0644476
-0.0799264
-0.0572219
-0.0962883
-0.0442676
-0.11236
-0.0268409
-0.128987
-0.00107735
-0.144861
0.0382823
-0.159434
0.0855551
0.154557
-0.00104064
-0.00812692
-0.0046104
-0.0240827
-0.0108495
-0.0382256
-0.0193885
-0.0503751
-0.0293186
-0.0601458
-0.0405625
-0.0685051
-0.0545687
-0.0758431
-0.0714628
-0.0738812
-0.0901284
-0.067053
-0.109468
-0.0535837
-0.128857
-0.0355164
-0.149221
-0.00777641
-0.169337
0.0343465
-0.188704
0.0856162
0.160504
-0.00120379
-0.00891136
-0.00525389
-0.0264277
-0.0121431
-0.0420401
-0.0216687
-0.0556385
-0.0327857
-0.0672785
-0.0451986
-0.0783903
-0.0607206
-0.0864026
-0.0798192
-0.0846574
-0.101264
-0.0792513
-0.123706
-0.0655964
-0.146536
-0.0475339
-0.170962
-0.0177724
-0.195866
0.0262515
-0.220744
0.0809001
0.160356
-0.00137022
-0.00972262
-0.00591419
-0.0287519
-0.013489
-0.0459718
-0.0239895
-0.0615044
-0.036425
-0.0767586
-0.0504255
-0.0904518
-0.0674921
-0.0988776
-0.0887608
-0.0973721
-0.113597
-0.0944003
-0.139616
-0.0815021
-0.166014
-0.0632783
-0.194587
-0.031411
-0.224405
0.0129781
-0.255186
0.0708348
0.153591
-0.00149044
-0.0106269
-0.00647121
-0.0312905
-0.0147889
-0.050408
-0.0262167
-0.0687006
-0.0400984
-0.0886393
-0.0562426
-0.104574
-0.0749815
-0.11429
-0.0980109
-0.11405
-0.126251
-0.112284
-0.156245
-0.101502
-0.186969
-0.0834298
-0.22004
-0.0498619
-0.254596
-0.00755176
-0.291467
0.055045
0.14093
-0.00154101
-0.0117551
-0.00684538
-0.0345056
-0.0159435
-0.0558663
-0.0282929
-0.0781142
-0.0437358
-0.101732
-0.0623033
-0.120627
-0.0831362
-0.13294
-0.107803
-0.134464
-0.138602
-0.131439
-0.172862
-0.124674
-0.209001
-0.109727
-0.246888
-0.0763996
-0.286092
-0.0375829
-0.329314
0.0335765
0.12363
-0.00155206
-0.0131548
-0.00705394
-0.0386839
-0.0167921
-0.0629887
-0.0300114
-0.0893515
-0.0469809
-0.115559
-0.0679645
-0.138293
-0.0909726
-0.154844
-0.117235
-0.161228
-0.150316
-0.150821
-0.188973
-0.150713
-0.231647
-0.145219
-0.274692
-0.117757
-0.319085
-0.0742268
-0.369451
0.00765422
0.103506
-0.00159242
-0.0147533
-0.00723562
-0.043669
-0.0173925
-0.071705
-0.0314279
-0.101128
-0.0496945
-0.130082
-0.0726125
-0.15726
-0.0988311
-0.178901
-0.127108
-0.192413
-0.160504
-0.186999
-0.202524
-0.179832
-0.25066
-0.180545
-0.302115
-0.166455
-0.355723
-0.117419
-0.412574
-0.0218278
0.0826449
-0.00165029
-0.016459
-0.00746628
-0.0490063
-0.0179579
-0.0807928
-0.0325613
-0.112828
-0.0517045
-0.145009
-0.0758879
-0.176792
-0.103772
-0.203995
-0.134369
-0.227133
-0.169371
-0.233306
-0.212167
-0.227375
-0.262013
-0.21079
-0.324679
-0.221615
-0.394735
-0.190269
-0.460361
-0.0554422
0.0480146
-0.00173322
-0.0181261
-0.00777947
-0.0542002
-0.0185384
-0.0896602
-0.0334029
-0.124626
-0.0529054
-0.159889
-0.0777455
-0.195847
-0.105996
-0.228319
-0.137437
-0.261816
-0.174924
-0.277416
-0.220624
-0.285156
-0.27868
-0.276852
-0.353392
-0.302476
-0.436626
-0.308651
-0.554372
-0.230195
-0.215597
-0.00183587
-0.0196774
-0.00814725
-0.0590591
-0.019111
-0.0978866
-0.0340419
-0.135955
-0.0534477
-0.17454
-0.0779536
-0.213625
-0.105561
-0.249742
-0.136532
-0.288379
-0.173557
-0.319201
-0.217996
-0.333373
-0.277051
-0.351547
-0.3557
-0.385056
-0.456078
-0.429365
-0.612971
-0.481378
-0.624488
-0.00188363
-0.0211921
-0.00837515
-0.0637379
-0.0196481
-0.105519
-0.0346517
-0.146693
-0.0539172
-0.189288
-0.0781534
-0.231107
-0.104743
-0.269392
-0.132433
-0.309795
-0.164718
-0.34608
-0.207997
-0.36778
-0.261995
-0.390391
-0.325023
-0.431618
-0.401949
-0.490585
-0.498679
-0.586354
-0.780959
-0.00196346
-0.022708
-0.00870678
-0.0684421
-0.0201626
-0.113722
-0.0351651
-0.158145
-0.0545268
-0.205246
-0.0786585
-0.250423
-0.104529
-0.290936
-0.132953
-0.330551
-0.165497
-0.365595
-0.205367
-0.389122
-0.252312
-0.413969
-0.299974
-0.448262
-0.345091
-0.492924
-0.380075
-0.562787
-0.675243
-0.00201169
-0.0242307
-0.00899975
-0.0732343
-0.0208976
-0.122259
-0.0360224
-0.170477
-0.055605
-0.22264
-0.0805263
-0.271159
-0.106591
-0.315321
-0.135304
-0.353859
-0.170346
-0.38655
-0.209906
-0.406868
-0.251676
-0.429041
-0.292375
-0.451882
-0.325159
-0.474641
-0.3378
-0.493041
-0.503098
-0.00205737
-0.02576
-0.0092476
-0.0778428
-0.0215101
-0.130008
-0.0369885
-0.182644
-0.0570854
-0.240228
-0.0831393
-0.290992
-0.110408
-0.337773
-0.14092
-0.377759
-0.177861
-0.4078
-0.218783
-0.426126
-0.261421
-0.442399
-0.302359
-0.455304
-0.338137
-0.462363
-0.359879
-0.443334
-0.392734
-0.00208534
-0.0273619
-0.00931945
-0.082435
-0.0217919
-0.137167
-0.0380256
-0.196072
-0.0590763
-0.257514
-0.0864925
-0.309769
-0.116342
-0.35706
-0.150045
-0.398758
-0.190009
-0.428672
-0.234692
-0.448671
-0.28127
-0.462001
-0.326774
-0.469775
-0.372308
-0.46835
-0.415717
-0.43692
-0.37368
-0.00202888
-0.0291997
-0.00914084
-0.087972
-0.0218753
-0.146266
-0.0393581
-0.211106
-0.0620966
-0.274661
-0.0909014
-0.327855
-0.123353
-0.376402
-0.160141
-0.418122
-0.202607
-0.449995
-0.249968
-0.472129
-0.30105
-0.487589
-0.353336
-0.493887
-0.408353
-0.488683
-0.468185
-0.459342
-0.406532
-0.00202108
-0.0312
-0.00923896
-0.0940561
-0.0226565
-0.156959
-0.0416298
-0.226104
-0.0660197
-0.290169
-0.0961813
-0.34533
-0.130845
-0.396109
-0.170263
-0.43824
-0.215261
-0.472658
-0.265526
-0.497023
-0.320446
-0.514565
-0.378315
-0.521758
-0.440189
-0.515707
-0.506914
-0.487713
-0.439334
-0.00213761
-0.0331
-0.00959911
-0.0996936
-0.0233937
-0.166975
-0.0437356
-0.239195
-0.069853
-0.30462
-0.101796
-0.363317
-0.138605
-0.416613
-0.180416
-0.460062
-0.228079
-0.496907
-0.281429
-0.523589
-0.340163
-0.543379
-0.403269
-0.552029
-0.470858
-0.546313
-0.540408
-0.511406
-0.545366
-0.00226029
-0.0348795
-0.00994966
-0.105274
-0.0240559
-0.176928
-0.0455234
-0.251392
-0.0735592
-0.321232
-0.107511
-0.382605
-0.146624
-0.437759
-0.190888
-0.483995
-0.241088
-0.523153
-0.297485
-0.551537
-0.360896
-0.577634
-0.431073
-0.593749
-0.506982
-0.586069
-0.606014
-0.615914
-1.01629
-0.00237408
-0.0366457
-0.0104337
-0.110983
-0.0250761
-0.187142
-0.0477225
-0.265108
-0.077742
-0.340419
-0.11387
-0.403541
-0.155496
-0.459008
-0.20162
-0.507131
-0.253926
-0.552113
-0.316217
-0.597796
-0.387424
-0.629475
-0.466269
-0.676258
-0.481421
-0.79595
-0.514234
-0.732789
-1.63247
-0.00245308
-0.038365
-0.0108743
-0.11658
-0.0261212
-0.197578
-0.0499436
-0.280294
-0.0821923
-0.362662
-0.120785
-0.427421
-0.163492
-0.484218
-0.208865
-0.531013
-0.261712
-0.58117
-0.323452
-0.65159
-0.391853
-0.677857
-0.481886
-0.802048
-0.291892
-1.02293
-0.0105972
-0.574076
-1.55901
-0.00246029
-0.0399379
-0.0111845
-0.121948
-0.0272136
-0.208106
-0.0525218
-0.29733
-0.0877703
-0.389229
-0.130121
-0.455505
-0.173423
-0.515577
-0.211924
-0.564936
-0.257473
-0.604258
-0.285285
-0.654125
-0.266977
-0.621548
-0.154072
-0.692446
0.18979
-0.984216
0.621421
0.0411579
-0.342455
-0.0024544
-0.0409507
-0.0113313
-0.126494
-0.0282448
-0.218245
-0.0559107
-0.315804
-0.0951486
-0.4194
-0.142112
-0.487884
-0.186801
-0.5537
-0.21645
-0.620174
-0.249027
-0.612483
-0.22118
-0.424093
-0.0728176
-0.304437
0.182797
-0.115175
0.512723
-0.0850628
1.02262
1.14682
1.96306
-0.00247361
-0.0403912
-0.0114371
-0.128364
-0.0293438
-0.226813
-0.0603656
-0.333875
-0.104861
-0.450426
-0.157481
-0.523975
-0.208826
-0.601391
-0.249382
-0.709293
-0.237719
-0.642725
-0.175746
-0.186022
-0.0310148
0.228755
0.301156
0.651676
0.467512
1.50039
0.753624
2.23311
4.20572
-0.00229344
-0.037324
-0.0109797
-0.12343
-0.029691
-0.231394
-0.0653313
-0.348567
-0.116151
-0.478179
-0.175292
-0.562509
-0.248025
-0.660244
-0.34349
-0.831108
-0.415518
-0.781958
-0.467975
-0.199114
-0.417906
0.544273
-0.203144
1.34626
-0.298075
2.62379
-0.448905
2.5145
4.6452
-0.00127889
-0.0316745
-0.00819026
-0.109044
-0.0276312
-0.227019
-0.0690867
-0.355618
-0.12623
-0.499242
-0.191628
-0.602058
-0.304028
-0.728895
-0.494912
-0.940236
-0.691502
-0.912265
-0.853786
-0.280142
-1.0244
0.48243
-1.10657
1.53623
-1.2783
2.54431
-1.7087
1.93303
3.21396
0.00115844
-0.0238146
-0.000768111
-0.0865091
-0.0200385
-0.205248
-0.0679029
-0.352628
-0.131026
-0.511886
-0.200234
-0.641239
-0.345919
-0.805851
-0.615099
-1.04135
-0.943642
-1.01841
-1.24527
-0.583435
-1.52477
0.313904
-1.76692
1.2102
-1.91381
1.47465
-2.37694
0.920536
1.00379
0.00526321
-0.0137775
0.0133725
-0.0570174
-0.001142
-0.159208
-0.0554873
-0.341062
-0.125978
-0.516924
-0.195189
-0.678225
-0.360389
-0.888815
-0.701009
-1.18078
-1.06283
-1.19545
-1.46436
-1.08849
-1.85726
0.0892125
-1.84973
0.665771
-1.83765
0.489408
-2.40566
-0.197022
-1.30736
0.0106585
-0.00125478
0.0369375
-0.0200153
0.0405898
-0.0930053
-0.017248
-0.31042
-0.100208
-0.499261
-0.1674
-0.712602
-0.343038
-0.980745
-0.750146
-1.35621
-1.16516
-1.41344
-1.61415
-1.51425
-1.69884
-0.202722
-1.28108
0.155136
-1.30808
-0.113622
-1.84441
-1.1787
-3.31922
0.0170857
0.0139499
0.0688415
0.0253643
0.11231
-0.0191796
0.0834529
-0.211987
-0.0185621
-0.427546
-0.119124
-0.74103
-0.30796
-1.08002
-0.731384
-1.5532
-1.08777
-1.67992
-0.99061
-1.11028
-0.580999
-0.0508546
-0.344651
0.0834344
-0.45174
-0.419103
-0.802073
-1.84813
-4.78603
0.0235637
0.031998
0.098313
0.0792
0.206238
0.0627034
0.266413
-0.0659084
0.193163
-0.290267
0.111433
-0.65711
-0.125547
-1.07343
-0.599997
-1.60189
-0.460561
-1.58746
0.153056
0.0437694
0.472547
0.633402
0.636285
0.468866
0.649672
-0.305727
0.57966
-2.10086
-5.67651
0.0307015
0.0538509
0.129669
0.145375
0.281644
0.175245
0.414421
0.107959
0.486377
-0.0826266
0.550988
-0.42329
0.482812
-0.872187
0.522546
-1.18179
0.80028
-0.249321
1.04428
1.18455
1.34442
1.55247
1.65428
1.29479
1.93457
0.346523
2.28482
-1.73557
-5.69469
0.037555
0.0798598
0.160477
0.225933
0.356004
0.324266
0.553864
0.344219
0.725872
0.201357
0.896598
-0.0995466
0.984398
-0.37697
1.08283
0.250173
1.29013
1.52099
1.60054
2.35822
2.04464
2.73619
2.63089
2.58907
3.34975
1.76301
4.38132
-0.240772
-3.7566
0.0426199
0.108779
0.183479
0.316776
0.414361
0.494264
0.671785
0.633041
0.924213
0.555821
1.16099
0.398858
1.17655
0.851668
1.17213
1.95254
1.42493
2.78758
1.84566
3.55767
2.48846
4.10584
3.40433
4.32531
4.67434
4.08446
6.59641
2.95588
1.16094
0.0449259
0.139254
0.194234
0.414921
0.44304
0.679892
0.746933
0.9472
1.05016
1.03834
1.06925
1.41463
0.896006
2.26368
1.00963
3.08509
1.29101
3.89972
1.78573
4.71883
2.55757
5.53853
3.70019
6.30066
5.37234
6.93399
7.92897
7.50426
8.20222
0.0431518
0.16948
0.187928
0.516835
0.432767
0.890999
0.740144
1.30064
0.790567
1.70647
0.571847
2.45297
0.526883
3.13349
0.64928
3.91414
0.937149
4.78382
1.42813
5.74055
2.18997
6.87388
3.33198
8.21849
5.01234
9.69538
7.51654
11.7121
15.0126
0.0345769
0.195075
0.15122
0.604158
0.346119
1.08213
0.427272
1.65084
0.285746
2.27173
0.165695
2.94359
0.120868
3.63445
0.197378
4.4242
0.410039
5.36105
0.790095
6.47664
1.39658
7.8903
2.33853
9.73555
3.75472
12.0096
5.78382
14.7918
19.8583
0.0205928
0.21173
0.0846653
0.656966
0.16235
1.18251
0.131358
1.82312
-0.0367387
2.46035
-0.179307
3.10437
-0.260342
3.80929
-0.271059
4.62117
-0.200467
5.5987
-0.0253271
6.80644
0.29315
8.37298
0.829492
10.4948
1.79633
13.3104
3.4843
16.8497
22.689
0.00887861
0.220814
0.0323039
0.681591
0.0368211
1.20842
-0.0445216
1.81978
-0.196997
2.43516
-0.33904
3.07732
-0.467082
3.78568
-0.57587
4.60591
-0.654929
5.58987
-0.683026
6.8125
-0.654246
8.40799
-0.558581
10.5885
-0.329002
13.5424
0.272047
17.5386
23.221
-0.000493526
0.22438
-0.00766089
0.688554
-0.0445038
1.20161
-0.140262
1.77338
-0.28317
2.37019
-0.441777
3.00143
-0.610618
3.70267
-0.7889
4.51223
-0.97379
5.47865
-1.15762
6.67964
-1.34633
8.25277
-1.56184
10.4152
-1.8009
13.3648
-2.03241
17.405
22.7331
-0.00684617
0.223178
-0.033169
0.681718
-0.0919075
1.17748
-0.198961
1.71877
-0.349645
2.29277
-0.529888
2.90798
-0.736464
3.59303
-0.972156
4.3814
-1.24269
5.31843
-1.55797
6.48282
-1.9502
8.01307
-2.47032
10.1336
-3.1448
13.057
-3.77849
17.0906
22.9874
-0.0112793
0.219104
-0.0506667
0.666921
-0.12489
1.1441
-0.244226
1.65891
-0.408175
2.20828
-0.610927
2.80163
-0.852565
3.46292
-1.14064
4.22128
-1.49172
5.1179
-1.93562
6.22967
-2.5434
7.69221
-3.44323
9.71326
-4.75784
12.4901
-5.99881
16.3842
23.1053
-0.0145821
0.213137
-0.0638551
0.647082
-0.150868
1.10468
-0.283003
1.59399
-0.462033
2.11682
-0.687155
2.68305
-0.961652
3.31339
-1.29911
4.03258
-1.73059
4.87561
-2.31089
5.91327
-3.15643
7.27119
-4.48986
9.10422
-6.61495
11.4965
-8.75466
14.782
20.8773
-0.0171569
0.205683
-0.0743667
0.623341
-0.172522
1.06021
-0.317526
1.52376
-0.512349
2.01764
-0.759065
2.55148
-1.06359
3.14319
-1.44662
3.813
-1.95783
4.59004
-2.67803
5.53114
-3.75697
6.73983
-5.51781
8.28766
-8.57967
10.0478
-12.7684
12.2461
16.2203
-0.114416
0.155272
-0.491763
0.471311
-1.12128
0.784809
-2.02323
1.09664
-3.21565
1.4065
-4.72712
1.71917
-6.61585
2.04552
-9.09488
2.40273
-12.7626
2.83561
-18.4471
3.46316
-27.0218
3.88818
-41.0025
3.92333
-60.9926
3.11042
-83.3205
0.548964
-3.49391
-121.213
-0.12886
0.0959761
-0.567175
0.291687
-1.29466
0.473709
-2.29585
0.636856
-3.55334
0.775359
-5.03997
0.888217
-6.69445
0.980686
-8.40394
1.07038
-10.9155
1.2167
-16.7782
1.58212
-26.4046
1.80421
-39.7245
1.8745
-55.2142
-0.385046
-67.1057
-4.79112
-11.8446
-72.1024
-0.109648
0.0445886
-0.468162
0.132103
-1.05659
0.20685
-1.87872
0.261477
-2.93512
0.289329
-4.23538
0.285561
-5.80562
0.246544
-7.70976
0.173718
-10.1385
0.087364
-13.6942
0.0316567
-20.0616
0.0413524
-33.404
0.161836
-49.5618
-1.83698
-59.58
-6.11252
-12.9155
-61.6347
-0.0817842
0.00579395
-0.348884
0.0140069
-0.788253
0.0100559
-1.40687
-0.0140944
-2.20995
-0.0663319
-3.2099
-0.154232
-4.43129
-0.286208
-5.92968
-0.471975
-7.85792
-0.723628
-10.5822
-1.06049
-14.684
-1.53323
-21.4509
-2.27645
-36.2141
-3.5903
-47.4403
-7.26268
-12.2568
-42.9033
-0.0552684
-0.0213651
-0.235162
-0.0676846
-0.5296
-0.125916
-0.941582
-0.204254
-1.47251
-0.311318
-2.12682
-0.456207
-2.914
-0.65006
-3.85322
-0.90711
-4.9857
-1.24833
-6.40843
-1.71521
-8.32615
-2.41407
-11.0995
-3.60923
-14.9185
-5.48004
-17.3717
-8.33755
-11.7346
-15.999
-0.0271568
-0.0371719
-0.115535
-0.115187
-0.259676
-0.204867
-0.459808
-0.314347
-0.714096
-0.452323
-1.01971
-0.628002
-1.3728
-0.852756
-1.767
-1.14103
-2.18506
-1.51583
-2.57136
-2.02287
-2.77464
-2.78482
-2.80363
-4.19449
-2.78951
-6.36996
-2.49256
-8.75401
-11.3291
-1.66389
0.000175225
-0.0401015
0.00154541
-0.123023
0.00795229
-0.213996
0.027438
-0.318772
0.073929
-0.443899
0.169426
-0.597398
0.33599
-0.791059
0.596859
-1.03457
1.0018
-1.33872
1.67612
-1.73124
2.99055
-2.31602
5.00806
-3.65023
6.77082
-5.7289
7.66004
-7.9495
-10.245
7.80229
0.0202273
-0.0325546
0.0878318
-0.0986932
0.205676
-0.167219
0.387273
-0.239639
0.652706
-0.317766
1.03351
-0.404439
1.56499
-0.505047
2.27681
-0.621343
3.22129
-0.752766
4.51828
-0.921662
6.35471
-1.2564
8.36516
-2.25452
9.29372
-3.69689
8.276
-5.1277
-6.56838
5.04795
0.0209593
-0.0216864
0.090364
-0.0647852
0.207667
-0.106512
0.379723
-0.145513
0.615933
-0.180114
0.931393
-0.207883
1.35076
-0.224988
1.90739
-0.225773
2.64973
-0.196571
3.25325
-0.0844303
2.64897
0.0203368
0.124462
-0.0829259
-3.34797
-0.379271
-7.55003
-0.524409
-0.57992
-13.8103
0.0150961
-0.0135183
0.0644277
-0.039894
0.145398
-0.0638474
0.259547
-0.0834817
0.408172
-0.09623
0.592502
-0.0988745
0.814546
-0.087057
1.05348
-0.0545068
1.02317
0.0161383
0.276868
0.208631
-1.41705
0.739846
-3.66175
1.34505
-6.06526
1.83921
-8.9396
2.36687
3.07182
-12.7818
0.0061883
-0.00934242
0.0265501
-0.0275287
0.0596551
-0.0438792
0.104107
-0.0571527
0.156835
-0.0648566
0.214014
-0.0654139
0.2717
-0.0568711
0.32417
-0.0363766
0.358571
0.00332469
0.291779
0.0924324
0.0800858
0.473909
-0.222684
0.928751
-0.593221
1.34654
-0.97507
1.7815
2.33868
-1.27999
0.00152336
-0.00704631
0.00735729
-0.0209193
0.0165463
-0.0338667
0.0200893
-0.0451038
0.010246
-0.0535978
-0.00799114
-0.0595164
-0.0349398
-0.0625708
-0.0639772
-0.0619016
-0.00390445
-0.0547542
0.242063
-0.0263789
0.648585
0.0384543
1.13864
0.137372
1.74681
0.239843
2.70556
0.336512
0.440502
4.31516
0.000410308
-0.00562802
0.00180277
-0.0168448
0.00414653
-0.0276807
0.00665082
-0.0376842
0.00781255
-0.0469463
0.00793257
-0.0557084
0.0105465
-0.0639664
0.0275989
-0.0715833
0.0857859
-0.0786109
0.226797
-0.084149
0.498192
-0.0871509
0.960123
-0.0919777
1.7104
-0.112127
2.87848
-0.163015
-0.25165
4.56219
0.000404722
-0.00484914
0.00167949
-0.0145211
0.00351336
-0.0240232
0.00560562
-0.0332483
0.00780589
-0.0421429
0.0101034
-0.0507297
0.0125261
-0.0590418
0.0156259
-0.0671408
0.0220041
-0.0751081
0.04023
-0.0831414
0.0927203
-0.0922482
0.220504
-0.106118
0.469094
-0.132368
0.868897
-0.1811
-0.262343
1.41108
7.96338e-05
-0.00457368
0.000327604
-0.0137006
0.000671339
-0.0227317
0.000967532
-0.0316202
0.00110518
-0.0403537
0.00103312
-0.0489289
0.000631886
-0.0573587
-0.000302034
-0.065679
-0.0020487
-0.07398
-0.00499531
-0.0824226
-0.0094741
-0.0912595
-0.0150346
-0.100977
-0.0198417
-0.113042
-0.0207536
-0.131821
-0.165674
-0.0101521
-0.000100926
-0.00444166
-0.000409299
-0.0133142
-0.000883218
-0.0221429
-0.00157948
-0.0308996
-0.00259697
-0.0395795
-0.00398297
-0.048186
-0.00577697
-0.0567385
-0.00818419
-0.0652552
-0.011699
-0.0737955
-0.0169466
-0.0825001
-0.0242775
-0.0916001
-0.034286
-0.101373
-0.048651
-0.112402
-0.068722
-0.125868
-0.143425
-0.0888379
-0.000181645
-0.00434279
-0.00075056
-0.0130254
-0.00159439
-0.0217009
-0.00266744
-0.0303591
-0.0040146
-0.0389841
-0.00567806
-0.0475742
-0.00769511
-0.056147
-0.0101207
-0.0647294
-0.0130745
-0.073363
-0.016783
-0.0821087
-0.0216204
-0.0910827