/*--------------------------------*- C++ -*----------------------------------*\
  =========                 |
  \\      /  F ield         | OpenFOAM: The Open Source CFD Toolbox
   \\    /   O peration     | Website:  https://openfoam.org
    \\  /    A nd           | Version:  7
     \\/     M anipulation  |
\*---------------------------------------------------------------------------*/
FoamFile
{
    version     2.0;
    format      ascii;
    class       volScalarField;
    location    "3.8";
    object      T;
}
// * * * * * * * * * * * * * * * * * * * * * * * * * * * * * * * * * * * * * //

dimensions      [0 0 0 1 0 0 0];

internalField   nonuniform List<scalar> 
32100
(
9.09772e+109
-1.59482e+109
-1.26617e+108
2.05129e+107
-9.56197e+105
-1.28708e+105
2.5635e+104
1.36463e+103
-3.34078e+102
1.3804e+101
1.48455e+100
-8.96139e+98
2.26409e+96
-5.25908e+94
2.71819e+95
-1.6524e+109
-1.42371e+108
2.17873e+107
-9.73815e+105
-1.36063e+105
2.61809e+104
1.42588e+103
-3.41254e+102
1.53257e+101
3.24017e+100
3.63503e+99
-1.02338e+99
-5.83523e+96
-6.05891e+95
-8.59445e+92
-1.64296e+108
2.36371e+107
-1.01501e+106
-1.47152e+105
2.69727e+104
1.50076e+103
-3.53387e+102
1.53187e+101
2.54557e+100
-4.80636e+99
-2.38185e+98
-6.62496e+98
-1.36577e+97
6.07391e+95
1.97823e+94
2.60277e+107
-1.09576e+106
-1.81168e+105
2.6239e+104
1.72089e+103
-3.64241e+102
1.31369e+101
3.05185e+100
-4.53261e+99
-7.04858e+98
-4.83614e+98
-3.45116e+98
-1.18825e+97
2.04403e+96
3.33219e+94
-1.04027e+106
-2.53539e+105
6.81806e+103
1.94137e+102
-2.61134e+102
1.52806e+101
8.37498e+99
-3.27934e+98
5.77864e+98
-1.77363e+98
-2.36305e+98
-1.43758e+98
-4.69602e+96
2.68946e+96
3.408e+94
-2.34783e+105
-3.99822e+104
-1.96363e+104
-2.01274e+103
1.21187e+102
4.51997e+100
-2.40091e+100
4.1605e+99
9.55332e+98
-6.35276e+97
-6.08388e+97
-4.43713e+97
9.99407e+95
2.38975e+96
2.28629e+94
2.10733e+103
-6.32458e+104
-2.1373e+104
-1.68879e+103
9.70884e+101
2.68003e+100
-1.92831e+100
3.92092e+99
9.36041e+98
-5.94549e+96
-1.3423e+97
-6.74122e+96
2.86135e+96
1.58929e+96
3.43986e+93
-2.73438e+104
-6.07864e+104
-2.02469e+104
-1.78277e+103
7.99042e+101
4.64539e+100
-1.89485e+100
3.33693e+99
9.44101e+98
1.25474e+97
-2.86986e+96
2.14633e+96
2.18273e+96
8.00521e+95
-1.34558e+94
-3.02251e+104
-5.51956e+104
-1.94943e+104
-1.8636e+103
6.51819e+101
6.04632e+100
-1.86154e+100
2.80498e+99
9.32647e+98
2.05109e+97
-3.33545e+96
1.74098e+96
9.84822e+95
2.87753e+95
-1.94845e+94
-2.90942e+104
-5.01688e+104
-1.86846e+104
-1.93473e+103
4.86105e+101
7.27779e+100
-1.79088e+100
2.2741e+99
9.10339e+98
2.80173e+97
-4.3745e+96
6.5747e+95
2.65392e+95
5.29335e+94
-1.58388e+94
-2.82915e+104
-4.53892e+104
-1.78759e+104
-2.00284e+103
3.08846e+101
8.33479e+100
-1.69148e+100
1.76076e+99
8.78309e+98
3.55713e+97
-4.40096e+96
2.6045e+95
1.72793e+94
-1.61968e+94
-8.94085e+93
-2.74086e+104
-4.11893e+104
-1.70413e+104
-2.05978e+103
1.2349e+101
9.17087e+100
-1.56778e+100
1.27928e+99
8.37021e+98
4.20756e+97
-3.92038e+96
1.34392e+95
-1.05292e+94
-2.0309e+94
-3.65491e+93
-2.76182e+104
-3.84499e+104
-1.58448e+104
-2.08658e+103
-6.09705e+100
9.73194e+100
-1.42827e+100
8.43561e+98
7.87773e+98
4.70035e+97
-3.33258e+96
7.49071e+94
1.22948e+93
-1.17332e+94
-1.15348e+93
-3.48544e+104
-3.26045e+104
-1.2734e+104
-1.83891e+103
-2.20875e+101
9.81197e+100
-1.25163e+100
4.92675e+98
7.2994e+98
5.05698e+97
-2.8883e+96
3.05542e+94
6.2799e+93
-7.33166e+93
-4.93068e+92
-3.38145e+104
-2.39081e+104
-9.922e+103
-1.51965e+103
-3.07748e+101
8.56641e+100
-9.71549e+99
1.8235e+98
6.59734e+98
5.48791e+97
-2.58222e+96
-1.04033e+94
9.55402e+93
-7.12627e+93
-4.18364e+92
-2.181e+104
-1.7443e+104
-8.31518e+103
-1.35011e+103
-3.67737e+101
7.53295e+100
-7.4359e+99
-1.38762e+98
5.99795e+98
6.11991e+97
-2.1942e+96
-6.47131e+94
1.58252e+94
-8.39425e+93
-5.63866e+92
-1.47779e+104
-1.42307e+104
-7.40503e+103
-1.28297e+103
-4.45325e+101
7.21442e+100
-5.97732e+99
-4.26573e+98
5.5505e+98
6.76611e+97
-1.62626e+96
-1.28179e+95
2.1237e+94
-9.18846e+93
-8.04811e+92
-1.281e+104
-1.25344e+104
-6.91814e+103
-1.27013e+103
-5.43518e+101
6.909e+100
-4.55656e+99
-6.67142e+98
5.12042e+98
7.38483e+97
-9.01532e+95
-1.92324e+95
2.41823e+94
-9.04169e+93
-1.04313e+93
-1.17044e+104
-1.12331e+104
-6.48344e+103
-1.26371e+103
-6.51734e+101
6.48117e+100
-3.00526e+99
-8.78775e+98
4.66057e+98
7.95852e+97
-3.74425e+94
-2.50627e+95
2.52164e+94
-8.15705e+93
-1.22974e+93
-1.09298e+104
-1.00561e+104
-6.03486e+103
-1.25133e+103
-7.67816e+101
5.86206e+100
-1.32635e+99
-1.05626e+99
4.15456e+98
8.46192e+97
9.53808e+95
-3.03691e+95
2.53179e+94
-6.99918e+93
-1.38159e+93
-1.03402e+104
-8.95526e+103
-5.56338e+103
-1.23251e+103
-8.89688e+101
4.99986e+100
4.40299e+98
-1.19258e+99
3.60229e+98
8.90332e+97
2.06979e+96
-3.44517e+95
2.34672e+94
-5.56425e+93
-1.47792e+93
-9.74919e+103
-7.89615e+103
-5.08817e+103
-1.21074e+103
-1.0157e+102
3.854e+100
2.2381e+99
-1.28306e+99
3.01246e+98
9.30115e+97
3.3123e+96
-3.68086e+95
1.92657e+94
-3.93746e+93
-1.48151e+93
-9.08216e+103
-6.89651e+103
-4.62776e+103
-1.18563e+103
-1.14534e+102
2.38199e+100
3.99333e+99
-1.32179e+99
2.38844e+98
9.67203e+97
4.70585e+96
-3.78031e+95
1.39791e+94
-2.42031e+93
-1.42195e+93
-8.35087e+103
-5.96934e+103
-4.18307e+103
-1.15554e+103
-1.27652e+102
5.37429e+99
5.62061e+99
-1.30233e+99
1.72793e+98
9.99975e+97
6.3028e+96
-3.74092e+95
7.67106e+93
-1.09022e+93
-1.3416e+93
-7.59868e+103
-5.13997e+103
-3.76343e+103
-1.12208e+103
-1.40884e+102
-1.7035e+100
7.01879e+99
-1.21495e+99
1.02796e+98
1.02227e+98
8.14603e+96
-3.51633e+95
-1.00637e+92
8.45518e+91
-1.26863e+93
-6.84804e+103
-4.41281e+103
-3.36352e+103
-1.08446e+103
-1.54153e+102
-4.36388e+100
8.05415e+99
-1.04903e+99
2.90825e+97
1.03034e+98
1.02688e+97
-3.0384e+95
-9.92646e+93
1.16983e+93
-1.21761e+93
-6.12362e+103
-3.76727e+103
-2.98196e+103
-1.0431e+103
-1.67443e+102
-7.47954e+100
8.56956e+99
-7.97224e+98
-4.70102e+97
1.01879e+98
1.2674e+97
-2.13131e+95
-2.23388e+94
2.1974e+93
-1.15949e+93
-5.48323e+103
-3.20296e+103
-2.63155e+103
-1.00118e+103
-1.80684e+102
-1.10866e+101
8.36419e+99
-4.54048e+98
-1.22374e+98
9.87723e+97
1.53411e+97
-6.20295e+94
-3.66467e+94
3.02861e+93
-1.05266e+93
-4.94181e+103
-2.73855e+103
-2.32137e+103
-9.59888e+102
-1.93665e+102
-1.52336e+101
7.19273e+99
-1.89033e+97
-1.93525e+98
9.24593e+97
1.82306e+97
1.61966e+95
-5.23658e+94
3.58062e+93
-9.08478e+92
-4.45832e+103
-2.37398e+103
-2.04642e+103
-9.16266e+102
-2.05808e+102
-1.99597e+101
4.72443e+99
5.03431e+98
-2.5596e+98
8.19935e+97
2.12775e+97
4.8056e+95
-6.90416e+94
3.81388e+93
-7.31462e+92
-3.97179e+103
-2.06733e+103
-1.78714e+103
-8.6593e+102
-2.16745e+102
-2.52841e+101
5.23243e+98
1.09897e+99
-3.02525e+98
6.69552e+97
2.44714e+97
9.09257e+95
-8.291e+94
3.5078e+93
-5.21362e+92
-3.45728e+103
-1.76419e+103
-1.52285e+103
-8.09901e+102
-2.26215e+102
-3.12207e+101
-5.96254e+99
1.73063e+99
-3.22497e+98
4.64522e+97
2.78011e+97
1.45405e+96
-9.15372e+94
2.59849e+93
-3.14526e+92
-2.97458e+103
-1.46643e+103
-1.27518e+103
-7.49872e+102
-2.33391e+102
-3.77596e+101
-1.53851e+100
2.31874e+99
-3.00525e+98
1.97982e+97
3.12314e+97
2.21679e+96
-9.76842e+94
1.0705e+93
-1.09543e+92
-2.58448e+103
-1.22861e+103
-1.0729e+103
-6.87637e+102
-2.38435e+102
-4.49308e+101
-2.84664e+100
2.72249e+99
-2.19082e+98
-1.31587e+97
3.43367e+97
3.40704e+96
-9.66955e+94
-1.70622e+93
1.55914e+92
-2.26557e+103
-1.07366e+103
-9.1275e+102
-6.25361e+102
-2.41997e+102
-5.27695e+101
-4.58299e+100
2.72684e+99
-6.23239e+97
-5.11431e+97
3.6172e+97
5.09109e+96
-6.83959e+94
-6.89905e+93
5.45399e+92
-1.97854e+103
-9.55222e+102
-7.69644e+102
-5.6374e+102
-2.44007e+102
-6.11341e+101
-6.73512e+100
2.05579e+99
1.78252e+98
-8.99588e+97
3.52722e+97
7.43904e+96
2.46145e+94
-1.61251e+94
1.07896e+93
-1.71776e+103
-8.41708e+102
-6.38636e+102
-5.04764e+102
-2.44339e+102
-6.96602e+101
-9.29192e+100
3.96455e+98
4.9498e+98
-1.21111e+98
2.97194e+97
1.05771e+97
2.56384e+95
-3.09589e+94
1.62139e+93
-1.48387e+103
-7.43477e+102
-5.28161e+102
-4.4913e+102
-2.42566e+102
-7.78244e+101
-1.22857e+101
-2.61913e+99
8.54895e+98
-1.32354e+98
1.77802e+97
1.38385e+97
7.09082e+95
-4.93596e+94
1.64399e+93
-1.27277e+103
-6.67007e+102
-4.38728e+102
-3.94663e+102
-2.37028e+102
-8.44991e+101
-1.56748e+101
-7.39247e+99
1.18526e+99
-1.08081e+98
-4.00792e+95
1.65182e+97
1.46193e+96
-6.33257e+94
1.15059e+92
-1.08027e+103
-6.10401e+102
-3.696e+102
-3.42089e+102
-2.2445e+102
-8.90374e+101
-1.92828e+101
-1.42483e+100
1.37065e+99
-3.54349e+97
-2.25236e+97
1.7788e+97
2.65595e+96
-5.49466e+94
-4.65941e+93
-8.99193e+102
-5.652e+102
-3.18281e+102
-2.9184e+102
-2.05635e+102
-9.13351e+101
-2.28124e+101
-2.3065e+100
1.27888e+99
8.69862e+97
-4.44025e+97
1.67415e+97
4.37993e+96
1.69688e+94
-1.48589e+94
-7.25851e+102
-5.16218e+102
-2.80041e+102
-2.43911e+102
-1.84681e+102
-9.15792e+101
-2.60138e+101
-3.35748e+100
7.98228e+98
2.49098e+98
-6.00282e+97
1.23988e+97
5.79412e+96
1.72442e+95
-2.7947e+94
-5.69394e+102
-4.55692e+102
-2.48151e+102
-2.00749e+102
-1.63939e+102
-9.00655e+101
-2.86597e+101
-4.45236e+100
-1.76476e+98
4.30627e+98
-6.22908e+97
5.38731e+96
6.54808e+96
4.03298e+95
-3.84054e+94
-4.39752e+102
-3.90251e+102
-2.18255e+102
-1.65419e+102
-1.44381e+102
-8.71811e+101
-3.07438e+101
-5.54599e+100
-1.62262e+99
5.97651e+98
-5.20622e+97
-2.06892e+96
6.91333e+96
6.80627e+95
-4.4122e+94
-3.38483e+102
-3.30231e+102
-1.92622e+102
-1.38658e+102
-1.26636e+102
-8.34877e+101
-3.23441e+101
-6.55163e+100
-3.31221e+99
6.85796e+98
-3.23999e+97
-8.34188e+96
6.38956e+96
1.06132e+96
-4.47792e+94
-2.61919e+102
-2.80701e+102
-1.72778e+102
-1.18594e+102
-1.11132e+102
-7.95466e+101
-3.36923e+101
-7.48881e+100
-5.15376e+99
7.04031e+98
-4.79704e+96
-1.18146e+97
4.70076e+96
9.19027e+95
-1.18239e+94
-2.03539e+102
-2.40739e+102
-1.5835e+102
-1.03916e+102
-9.79889e+101
-7.58074e+101
-3.50687e+101
-8.54202e+100
-7.06116e+99
6.93366e+98
1.98616e+97
-1.34006e+97
3.29328e+96
6.51502e+95
-8.91739e+92
-1.58078e+102
-2.07259e+102
-1.48305e+102
-9.4036e+101
-8.69406e+101
-7.20547e+101
-3.6387e+101
-9.6952e+100
-9.27582e+99
6.65421e+98
4.24841e+97
-1.4856e+97
2.54459e+96
5.60205e+95
4.20793e+93
-1.21534e+102
-1.77487e+102
-1.39601e+102
-8.7219e+101
-7.72333e+101
-6.76666e+101
-3.72013e+101
-1.08473e+101
-1.18658e+100
6.18657e+98
6.56445e+97
-1.61814e+97
2.15035e+96
5.61031e+95
8.13191e+93
-9.22824e+101
-1.50129e+102
-1.30402e+102
-8.20224e+101
-6.85005e+101
-6.27056e+101
-3.73703e+101
-1.19243e+101
-1.47071e+100
5.34808e+98
9.06658e+97
-1.72905e+97
1.87903e+96
6.01727e+95
1.3163e+94
-6.90948e+101
-1.25689e+102
-1.21715e+102
-7.89062e+101
-6.11089e+101
-5.78672e+101
-3.74218e+101
-1.29844e+101
-1.79161e+100
4.02668e+98
1.16761e+98
-1.78937e+97
1.60438e+96
6.28957e+95
1.93171e+94
-5.07522e+101
-1.04066e+102
-1.14007e+102
-7.7193e+101
-5.5221e+101
-5.32675e+101
-3.7549e+101
-1.41587e+101
-2.16468e+100
2.12556e+98
1.41591e+98
-1.75534e+97
1.26949e+96
5.98394e+95
2.4395e+94
-3.66333e+101
-8.42871e+101
-1.04772e+102
-7.53927e+101
-5.04757e+101
-4.87832e+101
-3.74465e+101
-1.54366e+101
-2.59426e+100
-3.83872e+97
1.62206e+98
-1.62795e+97
9.17682e+95
5.15496e+95
2.70083e+94
-2.60229e+101
-6.66903e+101
-9.35345e+101
-7.34911e+101
-4.71511e+101
-4.45223e+101
-3.70365e+101
-1.67489e+101
-3.07906e+100
-3.49599e+98
1.76432e+98
-1.42949e+97
6.14043e+95
4.07368e+95
2.88917e+94
-1.80238e+101
-5.18953e+101
-8.23543e+101
-7.22191e+101
-4.56838e+101
-4.04759e+101
-3.62326e+101
-1.80416e+101
-3.61847e+100
-7.1121e+98
1.80599e+98
-1.17129e+97
3.8502e+95
2.94528e+95
3.21183e+94
-1.20034e+101
-3.93959e+101
-7.14301e+101
-7.13165e+101
-4.55125e+101
-3.6661e+101
-3.49896e+101
-1.9251e+101
-4.21017e+100
-1.09502e+99
1.69772e+98
-8.48069e+96
2.29386e+95
1.58122e+95
2.99582e+94
-7.52814e+100
-2.8692e+101
-6.03734e+101
-6.95953e+101
-4.61876e+101
-3.33248e+101
-3.3421e+101
-2.04645e+101
-4.84755e+100
-1.42032e+99
1.38555e+98
-4.58343e+96
7.21329e+94
4.10351e+94
2.80777e+94
-4.36312e+100
-1.97726e+101
-4.92476e+101
-6.65361e+101
-4.75035e+101
-3.06733e+101
-3.13514e+101
-2.16489e+101
-5.53107e+100
-1.6426e+99
9.5593e+97
-1.04831e+96
-2.22607e+95
1.8868e+92
2.67157e+94
-2.29516e+100
-1.26396e+101
-3.83082e+101
-6.19022e+101
-4.89135e+101
-2.88193e+101
-2.86578e+101
-2.25373e+101
-6.29774e+100
-1.90306e+99
6.21161e+97
4.75607e+95
-4.28419e+95
-6.57329e+94
2.47667e+94
-1.04805e+100
-7.27208e+100
-2.79387e+101
-5.55892e+101
-4.99651e+101
-2.80284e+101
-2.5466e+101
-2.27284e+101
-7.29187e+100
-3.10248e+99
5.3498e+97
5.21645e+95
-5.62478e+95
-2.27829e+95
-3.60747e+94
-3.55282e+99
-3.487e+100
-1.84981e+101
-4.78115e+101
-5.05153e+101
-2.86993e+101
-2.19393e+101
-2.16295e+101
-8.31898e+100
-7.10316e+99
1.61789e+98
6.19663e+95
2.40564e+96
9.42138e+95
2.10836e+95
-3.9336e+98
-1.08663e+100
-1.03631e+101
-3.87281e+101
-5.04387e+101
-3.13128e+101
-1.84847e+101
-1.89099e+101
-8.4264e+100
-1.21826e+100
1.47237e+98
4.06144e+97
3.55918e+97
2.33984e+97
8.28859e+96
2.61476e+98
4.93551e+98
-3.98301e+100
-2.8396e+101
-4.91759e+101
-3.6123e+101
-1.60966e+101
-1.56512e+101
-8.78651e+100
-2.46869e+100
-2.31025e+99
-1.23837e+99
-1.23152e+99
-8.9657e+98
-3.24576e+98
3.79965e+98
1.41176e+99
-8.72888e+98
-1.69721e+101
-4.54837e+101
-4.25399e+101
-1.57614e+101
-1.19074e+101
-8.80791e+100
-3.70123e+100
-1.65592e+100
-1.16438e+100
-1.3907e+100
-1.79373e+100
-1.16403e+100
1.24052e+99
2.15146e+99
1.84357e+99
-6.12773e+100
-3.74725e+101
-4.90541e+101
-1.80967e+101
-7.53014e+100
-7.20312e+100
-3.23882e+100
-3.19789e+100
-2.9113e+100
-3.89452e+100
-3.60381e+100
-1.96949e+100
5.58138e+99
1.88807e+99
-1.65356e+97
-2.95471e+100
-2.47201e+101
-5.31128e+101
-2.27309e+101
-3.97346e+100
-4.55339e+100
-1.06027e+100
-8.00392e+99
-1.65506e+100
-2.18845e+100
-1.81454e+100
-1.84961e+100
-2.33861e+100
-1.55017e+100
-4.66196e+99
-4.86411e+100
-2.15084e+101
-4.5828e+101
-2.70952e+101
-2.47383e+100
-2.52908e+100
1.46859e+99
-1.93296e+99
-2.10219e+99
-3.59932e+99
-6.65872e+99
-1.63626e+100
-1.20599e+102
-4.41623e+101
-2.28845e+101
-1.43207e+101
-2.98445e+101
-4.31869e+101
-1.943e+101
-3.19971e+100
-1.12738e+100
-2.21785e+100
-1.26635e+100
-8.23335e+99
-5.84248e+99
-5.29733e+99
-1.32752e+100
-9.53552e+102
-2.99222e+102
-2.11085e+102
-1.5343e+102
-1.03497e+102
-3.23858e+101
8.41459e+100
1.04394e+101
-1.21187e+100
-2.73528e+100
-1.85178e+100
-1.16032e+100
-7.35892e+99
-5.10655e+99
-1.12962e+100
3.53521e+104
8.8346e+103
2.59426e+103
9.62861e+102
4.13142e+102
2.10983e+102
8.17849e+101
8.02372e+100
-6.91025e+100
-6.8197e+100
-4.07586e+100
-2.23204e+100
-1.22243e+100
-6.9997e+99
-9.71041e+99
-3.11524e+105
-4.44631e+104
3.67858e+103
5.61793e+103
3.55019e+103
2.0037e+103
7.84433e+102
1.8281e+102
2.82388e+101
-3.8049e+99
-3.15745e+100
-2.10578e+100
-1.12909e+100
-6.4137e+99
-8.21484e+99
8.39696e+104
-2.01597e+105
-1.2027e+105
-3.70724e+104
-7.74605e+103
3.1541e+102
8.69249e+102
2.97911e+102
6.74018e+101
1.06724e+101
-3.60883e+99
-1.5497e+100
-1.08752e+100
-6.18633e+99
-4.74057e+99
2.77153e+107
2.22574e+106
-4.65889e+104
-7.35369e+104
-3.41594e+104
-4.73946e+103
4.94869e+102
2.74501e+102
6.34323e+101
1.03841e+101
-4.32932e+99
-1.686e+100
-1.25008e+100
-7.5025e+99
-8.45854e+99
5.47225e+107
3.05521e+107
4.60155e+106
4.32428e+103
3.01182e+104
-8.34835e+103
1.17494e+103
1.61583e+103
1.26479e+103
1.01823e+103
7.94824e+102
5.73258e+102
3.58217e+102
1.8305e+102
9.58476e+101
-2.94298e+109
3.9667e+107
3.74975e+107
9.88198e+105
-3.59108e+105
8.89094e+104
1.02976e+104
1.1003e+104
8.40561e+103
5.88631e+103
4.03966e+103
2.71431e+103
1.71218e+103
9.46376e+102
4.12326e+102
2.079e+110
-2.82585e+109
9.71499e+107
3.21261e+107
-8.42625e+105
-3.05253e+105
6.48459e+104
-2.3196e+104
-2.37671e+104
-2.34424e+104
-2.07562e+104
-1.57982e+104
-9.71313e+103
-4.29846e+103
-1.31042e+103
2.92625e+110
1.77177e+110
-2.57112e+109
9.64347e+107
2.87363e+107
-1.12146e+106
-4.60353e+105
6.1607e+103
-4.63563e+102
4.48753e+104
6.01306e+104
5.27557e+104
3.34928e+104
1.43936e+104
4.87484e+103
-1.9078e+112
3.59247e+110
1.5748e+110
-2.43952e+109
9.59206e+107
2.92739e+107
-3.7415e+105
-1.38556e+105
-3.81473e+104
-2.89124e+105
-3.48363e+105
-3.09051e+105
-2.10614e+105
-1.03301e+105
-3.82046e+104
-4.30478e+112
-1.75019e+112
3.90817e+110
1.44521e+110
-2.40713e+109
2.38763e+107
-4.29374e+107
-7.07366e+107
-6.62093e+107
-5.86353e+107
-4.91898e+107
-3.80138e+107
-2.57395e+107
-1.42695e+107
-5.94041e+106
1.47934e+114
-4.85851e+112
-1.6286e+112
3.8673e+110
1.23701e+110
-3.29514e+109
-7.3285e+108
-6.32218e+108
-5.23597e+108
-3.97571e+108
-2.89643e+108
-2.0689e+108
-1.39927e+108
-8.70913e+107
-4.33937e+107
-4.16398e+115
4.09707e+114
-1.20024e+113
-4.7249e+112
7.68617e+110
3.59129e+110
-1.03571e+110
-1.22312e+109
-3.4812e+106
6.81836e+108
1.11181e+109
1.19946e+109
1.00579e+109
7.82336e+108
5.71758e+108
1.23511e+116
-3.91294e+115
3.91481e+114
-9.3013e+112
-4.70711e+112
7.51801e+110
7.22958e+110
1.58529e+110
2.01412e+110
1.64887e+110
1.08798e+110
6.99082e+109
4.79452e+109
3.22601e+109
1.85667e+109
1.52394e+117
9.3335e+115
-3.54681e+115
3.73231e+114
-6.44446e+112
-4.80047e+112
8.70776e+110
1.36873e+111
5.8364e+110
4.7815e+110
3.45387e+110
2.28425e+110
1.32942e+110
7.24516e+109
4.21549e+109
1.78739e+118
1.46633e+117
7.36645e+115
-3.43875e+115
2.28622e+114
2.72937e+113
-8.07995e+112
-1.28324e+112
-5.2394e+110
-3.78644e+110
-4.27991e+109
1.40497e+110
1.48282e+110
1.00417e+110
5.90916e+109
-3.25354e+119
1.72122e+118
1.41314e+117
6.36697e+115
-2.89203e+115
2.80593e+114
-1.06286e+113
-4.68126e+112
-8.97592e+111
-4.27527e+111
-2.22901e+111
-1.07978e+111
-4.47676e+110
-1.02273e+110
2.65863e+109
1.78674e+118
1.55171e+117
6.3439e+115
-3.62781e+115
3.17863e+114
-2.61162e+113
-1.32568e+113
-4.18404e+112
-1.87525e+112
-8.7112e+111
-3.76599e+111
-1.65953e+111
-9.16704e+110
-4.12383e+110
-7.01917e+109
1.54368e+117
1.24089e+116
-4.0201e+115
-2.83862e+113
-5.24059e+113
-2.80758e+113
-1.22939e+113
-5.62815e+112
-2.68076e+112
-1.28248e+112
-5.70801e+111
-2.15852e+111
-9.06708e+110
-3.1721e+110
5.51682e+109
1.04292e+116
-9.63461e+114
-5.25589e+114
-1.89444e+114
-6.84047e+113
-2.66562e+113
-1.10798e+113
-4.82494e+112
-2.16821e+112
-9.79356e+111
-3.85924e+111
-4.53506e+110
1.36177e+110
3.58579e+110
4.01513e+110
-2.0313e+115
-3.36233e+114
-5.37729e+113
-9.54569e+112
-5.84977e+111
1.28271e+112
1.36432e+112
1.07368e+112
7.82111e+111
6.30107e+111
5.986e+111
7.47896e+111
8.16154e+110
1.13407e+110
1.39449e+108
1.08686e+114
2.99815e+113
1.24689e+113
6.3306e+112
3.4138e+112
1.96483e+112
1.20156e+112
7.72246e+111
6.03897e+111
1.19743e+112
2.90388e+111
-3.79791e+110
7.20306e+109
1.13364e+109
-9.07689e+107
9.83241e+111
4.29329e+111
-1.41568e+111
-2.04915e+111
-1.84254e+111
-1.54148e+111
-1.25712e+111
-1.20663e+111
-1.66491e+111
6.51538e+111
8.82607e+111
2.08062e+110
-4.14912e+110
-2.34929e+110
-1.26652e+110
-7.74044e+111
-2.6388e+111
-1.37821e+111
-9.56061e+110
-7.4099e+110
-5.28845e+110
-3.16194e+110
-1.57815e+110
4.99253e+110
1.37839e+111
7.36411e+111
4.86718e+111
2.797e+111
1.57301e+111
8.82524e+110
-2.47463e+110
-1.22081e+110
-1.92917e+109
1.48623e+109
2.69411e+109
2.51077e+109
-8.31501e+108
-3.28311e+109
-2.68788e+109
-1.49384e+110
3.58686e+110
8.92524e+110
9.62104e+110
7.89584e+110
5.96507e+110
1.16398e+110
4.64148e+109
1.97416e+109
1.04829e+109
6.45667e+108
3.8075e+108
1.99794e+108
5.9285e+107
-5.08095e+107
-6.77709e+108
-4.80748e+109
-5.30252e+109
-4.09561e+109
-3.1697e+109
-2.6043e+109
-1.11724e+109
-4.1251e+108
-2.19734e+108
-1.50032e+108
-1.15934e+108
-8.50659e+107
-3.79701e+107
1.96505e+106
2.55982e+107
1.03095e+108
-2.52195e+108
-4.72939e+108
-4.51151e+108
-3.77107e+108
-3.13699e+108
-1.9697e+107
-9.8624e+106
9.87796e+104
2.54042e+106
3.37066e+106
3.02815e+106
7.29315e+104
-2.20389e+106
-1.74558e+106
6.0789e+106
4.80469e+107
5.80669e+107
4.86377e+107
3.85857e+107
3.01566e+107
1.26705e+107
4.46971e+106
2.53417e+106
1.90998e+106
1.57945e+106
1.20508e+106
6.8515e+105
8.5229e+104
-8.71418e+105
-2.10132e+106
-2.09759e+106
-7.7213e+105
-7.38218e+104
1.27033e+105
1.39097e+105
8.21311e+105
3.95983e+105
7.81323e+104
-3.41924e+104
-6.82457e+104
-5.05324e+104
2.61599e+104
9.34932e+104
9.24601e+104
-9.29281e+104
-6.62487e+105
-8.30813e+105
-7.18528e+105
-5.65317e+105
-4.2856e+105
-3.61058e+105
-1.43713e+105
-5.68695e+104
-2.73753e+104
-1.49079e+104
-7.56783e+103
-1.9168e+103
8.61867e+103
3.33813e+104
7.53454e+104
1.13136e+105
9.93245e+104
7.49988e+104
5.61952e+104
4.27678e+104
4.57072e+104
1.72433e+104
8.46353e+103
5.36419e+103
3.77232e+103
2.26836e+103
5.92592e+102
-6.99484e+102
-7.09533e+102
2.64808e+103
9.29651e+103
1.12117e+104
9.8423e+103
8.02298e+103
6.54633e+103
-1.13586e+103
-4.15828e+102
-3.6327e+102
-3.03335e+102
-2.42178e+102
-1.31942e+102
1.28837e+101
3.72652e+101
-2.0837e+102
-8.13041e+102
-1.48352e+103
-1.42496e+103
-1.02563e+103
-5.333e+102
2.32144e+101
-3.35781e+102
-1.21483e+102
-6.75559e+101
-4.95208e+101
-3.98532e+101
-2.90902e+101
-1.26035e+101
1.67007e+101
6.31755e+101
9.9065e+101
1.04348e+102
1.05132e+102
1.64008e+102
3.23811e+102
6.11452e+102
-1.44599e+101
-6.64627e+100
-7.80696e+99
1.07743e+100
1.34059e+100
2.30024e+99
-2.18733e+100
-4.07495e+100
-2.5945e+100
6.415e+100
2.28416e+101
3.95457e+101
8.68946e+101
2.14506e+102
4.57869e+102
6.76145e+100
2.6954e+100
1.12809e+100
5.88295e+99
3.51847e+99
1.86573e+99
-1.91595e+98
-4.65698e+99
-1.46917e+100
-3.15892e+100
-4.77295e+100
-3.81016e+100
1.1805e+101
8.90883e+101
2.72031e+102
-6.76973e+99
-2.62214e+99
-1.36728e+99
-9.04658e+98
-6.52991e+98
-4.01495e+98
-1.02127e+98
1.28733e+98
-1.02077e+98
-2.3602e+99
-6.63115e+99
-1.1602e+100
-1.08865e+100
4.84309e+100
2.86452e+101
2.51605e+97
2.61068e+96
3.03295e+97
3.46011e+97
3.14293e+97
2.08179e+97
7.41861e+96
1.18271e+97
-1.08089e+98
-1.76814e+99
-4.29265e+99
-7.68617e+99
-1.32831e+100
-2.08187e+100
-2.2559e+100
6.36946e+97
2.50539e+97
1.36077e+97
9.42817e+96
7.28279e+96
5.61368e+96
5.23212e+96
7.50859e+96
-1.85641e+98
-2.42212e+99
-5.53446e+99
-9.06581e+99
-1.36384e+100
-2.02224e+100
-2.984e+100
7.2933e+95
5.07219e+95
-1.24084e+95
-3.34757e+95
-3.44651e+95
3.5857e+93
2.59673e+96
1.09554e+97
-2.03318e+98
-2.89999e+99
-6.54207e+99
-1.06772e+100
-1.57791e+100
-2.21932e+100
-3.00792e+100
-9.6901e+95
-4.17668e+95
-1.91004e+95
-1.06022e+95
-6.11397e+94
1.76722e+95
2.72673e+96
1.32673e+97
-2.32335e+98
-3.15455e+99
-7.063e+99
-1.18814e+100
-1.79285e+100
-2.54696e+100
-3.44503e+100
8.8001e+94
3.57609e+94
1.9879e+94
1.28482e+94
1.54515e+94
2.33576e+95
3.03905e+96
1.65643e+97
-2.78086e+98
-2.87308e+99
-6.46689e+99
-1.12719e+100
-1.76154e+100
-2.57363e+100
-3.56196e+100
1.72618e+93
6.58839e+92
-7.24444e+92
-2.04485e+93
2.57293e+93
2.18788e+95
3.3156e+96
2.09442e+97
-1.31957e+98
-2.08026e+99
-5.07718e+99
-9.1286e+99
-1.44831e+100
-2.14547e+100
-3.01953e+100
-1.33322e+93
-9.6959e+92
-1.24447e+93
-2.2664e+93
1.09859e+93
2.00708e+95
3.46554e+96
2.58765e+97
-6.53504e+97
-1.19407e+99
-3.21439e+99
-5.93036e+99
-9.43509e+99
-1.39777e+100
-1.97551e+100
-2.14494e+92
-5.56496e+92
-1.13263e+93
-2.34822e+93
-7.38355e+91
1.7873e+95
3.42188e+96
3.03141e+97
-4.03626e+97
-4.8985e+98
-1.38942e+99
-2.73504e+99
-4.53859e+99
-6.86105e+99
-9.81551e+99
-2.53192e+92
-6.41824e+92
-1.30967e+93
-2.62332e+93
-1.06556e+93
1.62041e+95
3.31682e+96
3.68285e+97
1.0218e+97
-1.25624e+98
-4.12057e+98
-8.8928e+98
-1.57786e+99
-2.50045e+99
-3.72046e+99
-3.11426e+92
-7.6477e+92
-1.54475e+93
-2.97154e+93
-2.16583e+93
1.5031e+95
3.53193e+96
4.2846e+97
5.78361e+97
3.33912e+97
-2.87363e+97
-1.39253e+98
-3.12091e+98
-5.64069e+98
-9.1832e+98
-3.67411e+92
-9.16575e+92
-1.8544e+93
-3.42972e+93
-3.49091e+93
1.28251e+95
3.81083e+96
3.7066e+97
6.31999e+97
7.45664e+97
7.86136e+97
7.46926e+97
6.08595e+97
3.33588e+97
-1.43653e+97
-4.2776e+92
-1.08066e+93
-2.19303e+93
-3.92432e+93
-4.5545e+93
9.17247e+94
4.29773e+96
2.73647e+97
4.37786e+97
5.63595e+97
6.83041e+97
8.02105e+97
9.27266e+97
1.05912e+98
1.18661e+98
-4.899e+92
-1.25014e+93
-2.54123e+93
-4.42304e+93
-5.06341e+93
5.47406e+94
3.48555e+96
1.54301e+97
2.28988e+97
2.91891e+97
3.53959e+97
4.22411e+97
5.02354e+97
5.95171e+97
6.99393e+97
-5.6e+92
-1.44291e+93
-2.9373e+93
-4.97799e+93
-5.08839e+93
3.349e+94
1.34076e+96
6.69231e+96
9.72588e+96
1.20144e+97
1.41699e+97
1.65737e+97
1.9445e+97
2.27885e+97
2.65324e+97
-6.38026e+92
-1.66274e+93
-3.40229e+93
-5.64977e+93
-4.78566e+93
3.18509e+94
6.83962e+95
2.16002e+96
3.19248e+96
3.918e+96
4.53907e+96
5.23293e+96
6.03105e+96
6.9124e+96
7.8582e+96
-7.20142e+92
-1.8953e+93
-3.90148e+93
-6.42669e+93
-5.219e+93
3.51856e+94
2.12958e+95
4.99541e+95
7.39061e+95
9.25975e+95
1.0879e+96
1.25473e+96
1.43223e+96
1.61663e+96
1.80476e+96
-7.87615e+92
-2.13942e+93
-4.56897e+93
-7.92455e+93
-9.94119e+93
-4.37635e+93
1.47992e+94
4.82702e+94
8.64807e+94
1.22017e+95
1.54633e+95
1.86479e+95
2.18259e+95
2.49753e+95
2.80712e+95
-6.47583e+92
-1.79988e+93
-3.92646e+93
-7.19082e+93
-1.13275e+94
-1.52985e+94
-1.71325e+94
-1.57426e+94
-1.23817e+94
-8.38951e+93
-4.20946e+93
2.31988e+91
4.27784e+93
8.51529e+93
1.27026e+94
-3.3918e+92
-9.54755e+92
-2.01832e+93
-3.5004e+93
-5.1867e+93
-6.78746e+93
-7.94173e+93
-8.45105e+93
-8.49968e+93
-8.36928e+93
-8.16125e+93
-7.888e+93
-7.55028e+93
-7.1505e+93
-6.70031e+93
-7.44596e+91
-2.44469e+92
-5.16132e+92
-8.48237e+92
-1.17596e+93
-1.46227e+93
-1.67982e+93
-1.8164e+93
-1.89046e+93
-1.93257e+93
-1.95901e+93
-1.97152e+93
-1.96769e+93
-1.94686e+93
-1.9106e+93
1.25618e+91
-4.14077e+90
-3.38811e+91
-6.86734e+91
-1.02021e+92
-1.30811e+92
-1.53902e+92
-1.71108e+92
-1.83531e+92
-1.92977e+92
-2.00497e+92
-2.06163e+92
-2.09772e+92
-2.11239e+92
-2.10645e+92
1.24161e+91
1.54609e+91
1.58728e+91
1.49208e+91
1.31442e+91
1.11141e+91
9.09248e+90
7.20585e+90
5.52414e+90
4.05708e+90
2.77813e+90
1.65934e+90
6.82915e+89
-1.6246e+89
-8.74304e+89
3.38111e+90
4.4574e+90
4.91143e+90
5.04694e+90
4.95644e+90
4.74238e+90
4.45574e+90
4.13895e+90
3.84035e+90
3.58003e+90
3.34634e+90
3.12576e+90
2.91242e+90
2.70485e+90
2.50514e+90
5.30203e+89
6.56765e+89
7.01296e+89
7.11726e+89
6.96311e+89
6.65485e+89
6.24676e+89
5.78107e+89
5.34368e+89
4.97794e+89
4.65045e+89
4.33539e+89
4.02669e+89
3.72481e+89
3.43341e+89
7.45707e+88
7.72309e+88
7.20463e+88
6.71346e+88
6.21271e+88
5.7154e+88
5.22638e+88
4.75467e+88
4.34769e+88
4.01872e+88
3.72695e+88
3.44868e+88
3.17888e+88
2.91733e+88
2.66701e+88
1.18497e+88
1.13176e+88
9.20592e+87
7.44943e+87
6.05139e+87
4.95912e+87
4.10184e+87
3.44333e+87
2.95698e+87
2.59136e+87
2.29523e+87
2.04108e+87
1.817e+87
1.617e+87
1.43916e+87
1.25052e+87
1.39713e+87
1.22473e+87
1.01458e+87
8.19902e+86
6.57875e+86
5.27961e+86
4.28596e+86
3.54893e+86
2.98069e+86
2.51617e+86
2.12529e+86
1.7938e+86
1.51285e+86
1.2764e+86
-1.74787e+85
2.12688e+85
4.28479e+85
4.89605e+85
4.75939e+85
4.3337e+85
3.83065e+85
3.36914e+85
2.97712e+85
2.62738e+85
2.30352e+85
2.00414e+85
1.73112e+85
1.4863e+85
1.26959e+85
-1.52925e+85
-1.46363e+85
-1.10826e+85
-7.99513e+84
-5.67701e+84
-4.02553e+84
-2.87638e+84
-2.09029e+84
-1.53999e+84
-1.1384e+84
-8.37538e+83
-6.10556e+83
-4.39873e+83
-3.12361e+83
-2.19303e+83
-9.30783e+83
-9.96458e+83
-9.67473e+83
-8.58681e+83
-7.27302e+83
-6.04982e+83
-5.03331e+83
-4.24026e+83
-3.60705e+83
-3.07064e+83
-2.60435e+83
-2.1984e+83
-1.84702e+83
-1.54524e+83
-1.28969e+83
-2.58572e+83
-1.26344e+83
-5.8974e+82
-3.18524e+82
-2.01787e+82
-1.45382e+82
-1.14828e+82
-9.7103e+81
-8.59895e+81
-7.77884e+81
-7.06165e+81
-6.37724e+81
-5.71071e+81
-5.06456e+81
-4.47093e+81
-8.13973e+82
-5.44127e+82
-3.16275e+82
-1.87981e+82
-1.15077e+82
-7.31193e+81
-4.85023e+81
-3.35035e+81
-2.38269e+81
-1.72574e+81
-1.26484e+81
-9.3537e+80
-6.97069e+80
-5.23049e+80
-3.98056e+80
-1.08485e+82
-7.81424e+81
-5.04092e+81
-3.3409e+81
-2.27462e+81
-1.60651e+81
-1.18493e+81
-9.03654e+80
-7.00455e+80
-5.46482e+80
-4.2765e+80
-3.35246e+80
-2.63114e+80
-2.06763e+80
-1.62975e+80
-9.58887e+80
-5.96174e+80
-3.47983e+80
-2.22777e+80
-1.51735e+80
-1.09099e+80
-8.24282e+79
-6.45041e+79
-5.13136e+79
-4.10508e+79
-3.2897e+79
-2.63705e+79
-2.11334e+79
-1.69365e+79
-1.35865e+79
-4.61057e+79
-3.89218e+79
-2.19236e+79
-1.29168e+79
-7.93801e+78
-5.14138e+78
-3.50117e+78
-2.46998e+78
-1.77674e+78
-1.29243e+78
-9.48955e+77
-7.03279e+77
-5.25918e+77
-3.97176e+77
-3.02185e+77
1.69215e+79
6.50962e+78
2.16208e+78
7.01784e+77
1.80589e+77
-1.577e+76
-8.42093e+76
-9.76578e+76
-8.93318e+76
-7.44452e+76
-5.91797e+76
-4.57467e+76
-3.47094e+76
-2.60352e+76
-1.90748e+76
3.35856e+78
2.08501e+78
1.08267e+78
6.0429e+77
3.58996e+77
2.2557e+77
1.48641e+77
1.01465e+77
7.06868e+76
4.97569e+76
3.52544e+76
2.51113e+76
1.79689e+76
1.29306e+76
9.39936e+75
1.27593e+75
6.98826e+76
6.38092e+76
4.83905e+76
3.55792e+76
2.64153e+76
1.99028e+76
1.51325e+76
1.15156e+76
8.73341e+75
6.5968e+75
4.96378e+75
3.72325e+75
2.78967e+75
2.09379e+75
-3.73539e+76
-2.16045e+76
-1.03414e+76
-5.30609e+75
-2.8793e+75
-1.63144e+75
-9.54191e+74
-5.67434e+74
-3.36258e+74
-1.94979e+74
-1.08822e+74
-5.72113e+73
-2.71118e+73
-1.01222e+73
-1.07944e+72
-4.84758e+74
-9.27083e+74
-7.55547e+74
-5.52332e+74
-3.99814e+74
-2.93392e+74
-2.18499e+74
-1.64147e+74
-1.2334e+74
-9.22731e+73
-6.86532e+73
-5.08331e+73
-3.75321e+73
-2.77275e+73
-2.06063e+73
3.02198e+74
1.86945e+74
9.47749e+73
5.04847e+73
2.83323e+73
1.66035e+73
1.00416e+73
6.18215e+72
3.81423e+72
2.33111e+72
1.40161e+72
8.25125e+71
4.72391e+71
2.58696e+71
1.32098e+71
1.41559e+73
9.27722e+72
6.26827e+72
4.2733e+72
3.01847e+72
2.19618e+72
1.63264e+72
1.22898e+72
9.27257e+71
6.96694e+71
5.20252e+71
3.86543e+71
2.86574e+71
2.12972e+71
1.59715e+71
2.93443e+72
9.63359e+71
2.41439e+71
4.68245e+70
-7.5409e+69
-2.01135e+70
-1.96897e+70
-1.57602e+70
-1.14895e+70
-7.89865e+69
-5.19769e+69
-3.29735e+69
-2.02214e+69
-1.19804e+69
-6.64855e+68
3.33784e+71
2.34394e+71
1.18127e+71
6.3191e+70
3.57257e+70
2.1195e+70
1.30362e+70
8.20526e+69
5.22161e+69
3.33736e+69
2.13935e+69
1.37641e+69
8.89291e+68
5.77544e+68
3.77927e+68
-3.16098e+70
-1.11886e+70
-1.84436e+69
4.99147e+68
1.05186e+69
1.06353e+69
9.19071e+68
7.45112e+68
5.82011e+68
4.43305e+68
3.32041e+68
2.46332e+68
1.82233e+68
1.35367e+68
1.0119e+68
6.83736e+68
-1.50072e+69
-1.23522e+69
-8.25527e+68
-5.37378e+68
-3.54132e+68
-2.37603e+68
-1.61671e+68
-1.10811e+68
-7.62483e+67
-5.26537e+67
-3.65197e+67
-2.54832e+67