/*--------------------------------*- C++ -*----------------------------------*\
  =========                 |
  \\      /  F ield         | OpenFOAM: The Open Source CFD Toolbox
   \\    /   O peration     | Website:  https://openfoam.org
    \\  /    A nd           | Version:  7
     \\/     M anipulation  |
\*---------------------------------------------------------------------------*/
FoamFile
{
    version     2.0;
    format      ascii;
    class       volScalarField;
    location    "100";
    object      epsilon;
}
// * * * * * * * * * * * * * * * * * * * * * * * * * * * * * * * * * * * * * //

dimensions      [0 2 -3 0 0 0 0];

internalField   nonuniform List<scalar> 
32100
(
0.0128857
0.0128859
0.0128861
0.0128862
0.0128862
0.0128864
0.012886
0.0128861
0.0128863
0.0128861
0.0128861
0.0128861
0.0128861
0.0128289
0.00189426
0.0118099
0.0118098
0.0118095
0.0118094
0.0118095
0.0118093
0.0118097
0.0118096
0.0118094
0.0118096
0.0118095
0.0118097
0.0118101
0.0116544
0.00188083
0.0108602
0.0108603
0.0108605
0.0108606
0.0108606
0.0108608
0.0108604
0.0108605
0.0108608
0.0108606
0.0108608
0.0108609
0.0108617
0.0106377
0.00186685
0.0100203
0.0100202
0.0100199
0.0100198
0.0100199
0.0100197
0.0100201
0.01002
0.0100199
0.0100202
0.0100203
0.0100206
0.010022
0.00975319
0.00185242
0.0092716
0.0092717
0.00927192
0.00927201
0.00927198
0.00927219
0.00927186
0.00927205
0.00927235
0.00927233
0.00927272
0.00927299
0.00927482
0.0089793
0.0018376
0.00860382
0.00860374
0.00860353
0.00860347
0.00860355
0.0086034
0.00860384
0.0086038
0.00860374
0.00860418
0.00860466
0.00860496
0.0086074
0.00829837
0.00182246
0.00800364
0.00800373
0.00800394
0.00800403
0.00800402
0.00800426
0.00800398
0.00800427
0.00800465
0.00800474
0.00800552
0.00800581
0.00800868
0.0076963
0.00180707
0.00746435
0.00746428
0.0074641
0.00746408
0.00746419
0.00746408
0.00746456
0.00746456
0.00746464
0.00746517
0.00746601
0.00746631
0.00746977
0.00716107
0.00179145
0.00697611
0.00697621
0.00697639
0.00697649
0.00697652
0.00697679
0.00697656
0.00697694
0.00697741
0.00697758
0.00697873
0.00697906
0.00698296
0.0066834
0.00177568
0.00653459
0.00653452
0.00653439
0.00653439
0.00653452
0.00653446
0.00653498
0.00653503
0.00653524
0.00653582
0.00653698
0.00653731
0.00654185
0.0062551
0.00175978
0.00613227
0.00613239
0.00613254
0.00613266
0.00613273
0.00613302
0.00613285
0.0061333
0.00613385
0.00613407
0.00613551
0.00613592
0.00614095
0.00586993
0.00174379
0.00576641
0.00576634
0.00576626
0.00576628
0.00576642
0.00576642
0.00576696
0.00576705
0.0057674
0.005768
0.00576939
0.00576978
0.00577555
0.00552208
0.00172773
0.00543112
0.00543125
0.00543137
0.00543152
0.00543162
0.00543192
0.00543182
0.0054323
0.00543293
0.00543319
0.00543483
0.00543535
0.00544166
0.00520721
0.00171164
0.0051247
0.00512461
0.00512458
0.00512461
0.00512476
0.00512481
0.00512538
0.0051255
0.00512596
0.00512656
0.0051281
0.00512859
0.00513577
0.00492111
0.00169553
0.00484241
0.00484257
0.00484266
0.00484283
0.00484296
0.00484326
0.00484322
0.00484373
0.00484441
0.00484469
0.00484646
0.00484712
0.00485488
0.00466068
0.00167944
0.00458332
0.0045832
0.00458322
0.00458326
0.00458343
0.00458352
0.00458409
0.00458424
0.0045848
0.00458538
0.004587
0.00458762
0.00459639
0.00442279
0.00166336
0.0043435
0.00434368
0.00434374
0.00434392
0.00434408
0.00434437
0.0043444
0.0043449
0.00434561
0.00434593
0.00434775
0.00434856
0.00435794
0.00420518
0.00164734
0.00412252
0.00412238
0.00412246
0.00412249
0.00412267
0.0041228
0.00412336
0.00412354
0.00412417
0.00412474
0.00412637
0.00412715
0.00413766
0.0040055
0.00163136
0.00391711
0.00391731
0.00391735
0.00391754
0.00391772
0.003918
0.00391808
0.00391857
0.0039193
0.00391966
0.00392149
0.00392245
0.0039336
0.00382207
0.00161547
0.00372716
0.00372702
0.00372714
0.00372718
0.00372736
0.00372751
0.00372806
0.00372826
0.00372895
0.00372949
0.0037311
0.00373206
0.00374442
0.00365306
0.00159965
0.00354995
0.00355015
0.00355016
0.00355037
0.00355055
0.00355081
0.00355096
0.00355144
0.00355216
0.00355255
0.00355435
0.00355549
0.00356852
0.00349725
0.00158393
0.00338549
0.00338535
0.00338551
0.00338556
0.00338574
0.00338591
0.00338644
0.00338665
0.00338739
0.00338789
0.00338947
0.0033906
0.0034049
0.00335316
0.0015683
0.0032316
0.00323178
0.00323178
0.00323198
0.00323218
0.00323242
0.00323261
0.00323308
0.00323378
0.00323422
0.00323597
0.00323726
0.00325228
0.00321993
0.0015528
0.00308827
0.00308814
0.00308833
0.00308839
0.00308856
0.00308876
0.00308925
0.00308948
0.00309024
0.00309071
0.00309225
0.00309357
0.00310985
0.00309632
0.0015374
0.00295383
0.00295399
0.00295397
0.00295415
0.00295436
0.00295458
0.00295483
0.00295527
0.00295595
0.00295643
0.0029581
0.00295958
0.00297665
0.00298172
0.00152214
0.00282814
0.00282804
0.00282826
0.00282834
0.0028285
0.00282871
0.00282916
0.0028294
0.00283017
0.00283062
0.00283211
0.0028336
0.00285194
0.00287509
0.00150699
0.00271006
0.0027102
0.00271016
0.00271031
0.00271054
0.00271074
0.00271102
0.00271144
0.00271211
0.00271261
0.00271419
0.00271584
0.0027351
0.00277602
0.001492
0.00259923
0.00259917
0.0025994
0.00259951
0.00259964
0.00259986
0.00260029
0.00260054
0.00260129
0.00260172
0.00260317
0.00260482
0.00262532
0.00268358
0.00147713
0.00249499
0.0024951
0.00249504
0.00249517
0.00249541
0.00249559
0.0024959
0.00249629
0.00249695
0.00249748
0.00249895
0.00250078
0.00252232
0.00259757
0.00146242
0.00239677
0.00239674
0.00239697
0.00239711
0.00239723
0.00239746
0.00239786
0.00239813
0.00239884
0.00239926
0.00240068
0.00240248
0.0024252
0.00251714
0.00144784
0.0023043
0.00230438
0.00230432
0.00230442
0.00230466
0.00230483
0.00230515
0.00230552
0.00230618
0.00230672
0.00230808
0.00231011
0.00233397
0.00244221
0.00143343
0.00221686
0.00221686
0.00221709
0.00221725
0.00221737
0.0022176
0.00221798
0.00221826
0.00221892
0.00221933
0.00222072
0.00222268
0.00224767
0.00237199
0.00141915
0.00213446
0.0021345
0.00213444
0.00213454
0.00213476
0.00213493
0.00213525
0.00213559
0.00213626
0.00213681
0.00213806
0.0021403
0.00216652
0.00230654
0.00140505
0.0020563
0.00205633
0.00205655
0.00205672
0.00205684
0.00205707
0.00205744
0.00205772
0.00205833
0.00205872
0.00206009
0.00206222
0.00208951
0.00224508
0.00139109
0.00198255
0.00198256
0.00198251
0.00198259
0.0019828
0.00198297
0.00198329
0.0019836
0.00198427
0.00198483
0.00198598
0.00198843
0.00201704
0.00218781
0.00137731
0.00191243
0.00191248
0.00191269
0.00191286
0.00191299
0.0019132
0.00191357
0.00191386
0.00191442
0.00191479
0.00191613
0.00191844
0.00194808
0.00213393
0.00136367
0.00184614
0.00184613
0.00184609
0.00184616
0.00184635
0.00184653
0.00184684
0.00184713
0.00184779
0.00184836
0.00184943
0.00185209
0.00188311
0.00208374
0.0013502
0.00178302
0.00178309
0.00178328
0.00178346
0.00178359
0.00178379
0.00178414
0.00178444
0.00178496
0.00178532
0.00178662
0.00178911
0.00182114
0.00203646
0.00133689
0.0017232
0.00172319
0.00172315
0.00172321
0.00172339
0.00172357
0.00172389
0.00172414
0.00172479
0.00172537
0.00172638
0.00172925
0.0017627
0.00199247
0.00132376
0.00166622
0.00166629
0.00166645
0.00166664
0.00166678
0.00166697
0.0016673
0.0016676
0.0016681
0.00166843
0.00166969
0.00167239
0.00170683
0.00195098
0.00131077
0.00161202
0.00161202
0.001612
0.00161204
0.0016122
0.0016124
0.00161271
0.00161295
0.00161356
0.00161416
0.00161511
0.0016182
0.0016541
0.00191243
0.00129797
0.00156044
0.00156049
0.00156064
0.00156084
0.00156098
0.00156115
0.00156146
0.00156177
0.00156225
0.00156255
0.00156376
0.00156669
0.00160359
0.00187606
0.00128532
0.00151116
0.00151118
0.00151117
0.00151119
0.00151135
0.00151155
0.00151187
0.00151208
0.00151266
0.00151328
0.00151419
0.00151748
0.00155588
0.00184233
0.00127285
0.00146435
0.00146438
0.00146451
0.00146473
0.00146486
0.00146501
0.00146529
0.00146561
0.00146607
0.00146636
0.00146752
0.00147069
0.00151008
0.0018105
0.00126053
0.0014194
0.00141944
0.00141944
0.00141943
0.00141959
0.0014198
0.00142013
0.00142032
0.00142085
0.00142149
0.00142236
0.00142587
0.00146681
0.00178106
0.0012484
0.00137679
0.0013768
0.00137691
0.00137715
0.00137727
0.0013774
0.00137766
0.00137799
0.00137844
0.0013787
0.00137982
0.00138323
0.00142517
0.0017533
0.00123642
0.00133568
0.00133574
0.00133575
0.00133571
0.00133588
0.0013361
0.00133642
0.00133661
0.0013371
0.00133775
0.00133858
0.00134232
0.00138584
0.00172772
0.00122462
0.00129679
0.00129678
0.00129688
0.00129714
0.00129724
0.00129735
0.0012976
0.00129792
0.00129836
0.0012986
0.00129969
0.00130336
0.00134788
0.00170361
0.00121297
0.0012591
0.00125918
0.0012592
0.00125912
0.0012593
0.00125953
0.00125985
0.00126002
0.00126047
0.00126115
0.00126194
0.0012659
0.00131207
0.00168152
0.00120151
0.00122349
0.00122348
0.00122356
0.00122384
0.00122393
0.00122401
0.00122425
0.00122459
0.001225
0.00122521
0.00122628
0.00123022
0.00127739
0.00166069
0.00119019
0.00118888
0.00118897
0.00118899
0.00118888
0.00118907
0.00118932
0.00118963
0.00118978
0.0011902
0.00119089
0.00119164
0.00119584
0.00124474
0.00164179
0.00117907
0.00115619
0.00115617
0.00115624
0.00115654
0.00115662
0.00115666
0.0011569
0.00115725
0.00115764
0.00115782
0.00115888
0.0011631
0.00121297
0.00162395
0.00116808
0.00112432
0.00112442
0.00112445
0.00112432
0.00112452
0.00112479
0.00112507
0.0011252
0.0011256
0.00112632
0.00112701
0.00113144
0.00118317
0.00160799
0.0011573
0.00109426
0.00109422
0.00109429
0.00109459
0.00109466
0.00109467
0.0010949
0.00109528
0.00109565
0.00109578
0.00109684
0.00110136
0.001154
0.00159285
0.00114665
0.00106483
0.00106494
0.00106499
0.00106484
0.00106505
0.00106534
0.0010656
0.00106569
0.00106607
0.00106683
0.00106747
0.00107213
0.00112678
0.0015796
0.00113618
0.00103715
0.0010371
0.00103714
0.00103745
0.00103751
0.00103748
0.00103771
0.00103812
0.00103847
0.00103855
0.00103962
0.00104445
0.00109994
0.00156697
0.00112589
0.00100988
0.00101001
0.00101008
0.00100994
0.00101015
0.00101046
0.00101069
0.00101073
0.0010111
0.0010119
0.00101248
0.00101739
0.00107509
0.0015562
0.00111572
0.000984376
0.000984314
0.000984322
0.000984618
0.000984677
0.000984616
0.000984842
0.000985305
0.000985632
0.000985629
0.000986737
0.00099189
0.00105033
0.00154593
0.0011058
0.000959037
0.000959182
0.000959285
0.000959156
0.000959365
0.000959681
0.0009599
0.000959879
0.000960243
0.000961092
0.000961623
0.000966767
0.00102763
0.00153745
0.00109591
0.000935519
0.000935439
0.000935403
0.00093567
0.000935744
0.000935655
0.00093587
0.000936393
0.000936693
0.00093661
0.000937751
0.000943251
0.00100476
0.00152941
0.00108639
0.000911895
0.000912059
0.000912206
0.00091211
0.000912295
0.000912616
0.000912823
0.000912738
0.0009131
0.000913998
0.00091449
0.000919871
0.000984006
0.00152304
0.00107675
0.000890187
0.000890094
0.000890009
0.000890228
0.000890333
0.000890223
0.000890422
0.000891007
0.000891281
0.000891119
0.000892291
0.000898163
0.000962917
0.00151712
0.00106764
0.000868117
0.000868301
0.000868495
0.000868447
0.000868587
0.000868904
0.000869108
0.000868962
0.000869326
0.000870261
0.000870736
0.000876349
0.000943867
0.0015127
0.00105823
0.000848033
0.000847939
0.000847808
0.000847966
0.00084811
0.000847991
0.000848173
0.00084881
0.000849058
0.000848832
0.000850025
0.000856294
0.000924521
0.00150883
0.00104956
0.000827392
0.000827606
0.000827839
0.000827852
0.000827921
0.000828228
0.000828436
0.000828242
0.000828611
0.000829562
0.000830048
0.000835898
0.000906896
0.0015062
0.00104037
0.000808748
0.000808675
0.000808511
0.000808607
0.00080878
0.000808665
0.000808834
0.000809497
0.000809726
0.000809464
0.000810667
0.000817341
0.000889315
0.00150432
0.00103213
0.000789441
0.000789706
0.000789959
0.000790045
0.000790007
0.000790295
0.000790523
0.000790299
0.000790676
0.000791615
0.000792143
0.000798262
0.000872839
0.00150339
0.00102314
0.000772052
0.000772043
0.000771868
0.000771923
0.000772071
0.000771977
0.000772151
0.000772798
0.000773017
0.000772768
0.000773967
0.000781016
0.000857043
0.00150356
0.00101537
0.000754006
0.000754362
0.000754608
0.00075479
0.000754578
0.000754846
0.000755113
0.000754879
0.000755265
0.000756175
0.000756774
0.000763233
0.000841511
0.0015043
0.00100656
0.000737703
0.000737825
0.000737659
0.000737728
0.000737741
0.000737687
0.000737898
0.000738471
0.000738693
0.000738531
0.000739714
0.000747061
0.00082743
0.00150571
0.000999289
0.000720847
0.000721363
0.000721571
0.0007219
0.000721391
0.000721653
0.000721991
0.000721744
0.000722141
0.000723039
0.00072373
0.000730613
0.000812802
0.0015088
0.000990607
0.00070549
0.000705835
0.00070569
0.000705877
0.000705569
0.000705582
0.000705875
0.000706299
0.000706545
0.000706576
0.000707731
0.000715293
0.000800196
0.00151133
0.000983888
0.000689742
0.000690518
0.000690666
0.000691239
0.000690237
0.000690526
0.000690979
0.000690671
0.000691091
0.00069206
0.00069284
0.000700157
0.000786619
0.00151671
0.000975296
0.000675226
0.000675913
0.000675791
0.000676256
0.000675363
0.000675485
0.000675912
0.000676088
0.000676388
0.000676769
0.000677879
0.000685633
0.000775144
0.00152035
0.000969192
0.000660487
0.000661652
0.000661739
0.000662712
0.000660943
0.000661321
0.000661941
0.000661451
0.000661922
0.000663151
0.000663971
0.000671572
0.00076278
0.00152838
0.000960624
0.000646734
0.000647902
0.000647813
0.000648767
0.000646964
0.000647259
0.000647876
0.000647652
0.000648055
0.000649015
0.000650042
0.00065803
0.000752276
0.00153222
0.000955234
0.000632891
0.000634594
0.000634657
0.000636238
0.000633376
0.000633935
0.000634775
0.000633894
0.000634469
0.000636273
0.000637021
0.00064464
0.000740888
0.00154663
0.000946536
0.000619827
0.000621633
0.000621624
0.000623314
0.000620245
0.000620809
0.000621672
0.000620806
0.00062139
0.000623263
0.000624118
0.00063229
0.000732111
0.00155445
0.000942409
0.000606771
0.000609166
0.000609301
0.000611718
0.000607437
0.000608292
0.000609403
0.000607819
0.000608587
0.000611401
0.000611895
0.000619315
0.000719585
0.00156758
0.000931178
0.000594314
0.000596913
0.0005971
0.00059977
0.000595103
0.000596065
0.000597224
0.000595368
0.000596241
0.000599485
0.000599992
0.000608125
0.000718486
0.00157093
0.000951379
0.000559192
0.000561844
0.000562165
0.000564905
0.000560008
0.000561027
0.000562262
0.000560184
0.00056106
0.000564459
0.000564429
0.000570939
0.000653149
0.00144698
0.0215487
0.000508609
0.000511479
0.000511918
0.000514882
0.000509745
0.000510894
0.000512047
0.000509598
0.000510774
0.000514894
0.000515898
0.000527751
0.000767208
0.00626986
0.095848
0.000464381
0.000467298
0.000468015
0.000471016
0.000465633
0.000466876
0.000468118
0.000465262
0.00046645
0.000471013
0.000470113
0.000481046
0.00083716
0.0124035
0.133379
0.000425538
0.000428661
0.000429579
0.000432728
0.000427232
0.000428604
0.000429764
0.000426495
0.000428011
0.000433178
0.000434343
0.000454629
0.00124279
0.0215249
0.139604
0.000391149
0.000394317
0.000395573
0.000398704
0.000393064
0.000394534
0.000395759
0.000392027
0.000393565
0.000399428
0.000398063
0.000426886
0.00170792
0.0273484
0.134766
0.000360549
0.000363908
0.000365424
0.000368617
0.000363003
0.000364603
0.000365751
0.000361566
0.000363375
0.000369695
0.000370302
0.000415792
0.00241309
0.0337787
0.12584
0.000333221
0.000336636
0.000338532
0.000341637
0.000336003
0.000337713
0.000338876
0.000334245
0.000336165
0.00034333
0.000343189
0.000419805
0.00357684
0.0409452
0.117013
0.000308602
0.000312185
0.000314377
0.000317451
0.000311991
0.000313842
0.000314917
0.000309822
0.000311921
0.000319374
0.000318806
0.000477242
0.00571103
0.0493896
0.108167
0.000286449
0.00029013
0.000292703
0.000295625
0.000290269
0.000292249
0.000293276
0.000287829
0.000290193
0.000298501
0.000302879
0.000568796
0.00899307
0.0562158
0.100148
0.000266288
0.000270108
0.000272979
0.000275796
0.000270752
0.000272879
0.000273813
0.000267927
0.000270336
0.000278871
0.000282285
0.000910806
0.0135819
0.0609407
0.093389
0.000248019
0.000251986
0.000255203
0.00025782
0.000252981
0.000255251
0.000256078
0.000249959
0.000252775
0.000262298
0.000282727
0.00151429
0.0190865
0.0626616
0.0873224
0.00023124
0.000235326
0.000238804
0.000241269
0.000236856
0.000239272
0.000240016
0.000233538
0.000236286
0.000245793
0.000298345
0.00279137
0.0247215
0.0625783
0.0818424
0.000215961
0.000220218
0.000223988
0.000226225
0.00022209
0.000224654
0.000225238
0.000218619
0.000221821
0.000234131
0.000384343
0.00486741
0.0298118
0.0618654
0.0769903
0.000201805
0.000206157
0.000210126
0.00021219
0.000208563
0.000211256
0.000211808
0.000204963
0.000208129
0.000222084
0.000551173
0.00742327
0.0334714
0.0601599
0.0723927
0.00018885
0.000193375
0.000197574
0.000199408
0.000196093
0.000198944
0.00019928
0.000192339
0.000195921
0.000219137
0.000918649
0.0103414
0.0360452
0.0581751
0.0680787
0.000176798
0.000181387
0.000185709
0.000187363
0.000184601
0.000187546
0.000187948
0.000180929
0.000184664
0.000224452
0.00150119
0.0131812
0.0373484
0.0558497
0.0639624
0.000165675
0.000170415
0.000174906
0.000176352
0.000173903
0.000177022
0.000177132
0.000170053
0.0001747
0.000251445
0.0023003
0.0158629
0.0379573
0.0535059
0.0601627
0.000155352
0.000160126
0.000164658
0.000165921
0.000164037
0.000167193
0.000167499
0.000160491
0.00016569
0.000298383
0.00330623
0.0181527
0.0378741
0.0511244
0.0566597
0.000145714
0.000150592
0.000155239
0.000156338
0.000154744
0.000158092
0.000158006
0.00015098
0.000158888
0.000391936
0.00447879
0.020025
0.0374612
0.0488035
0.0534569
0.00013683
0.000141722
0.000146329
0.000147241
0.000146198
0.000149507
0.000149749
0.00014302
0.000153392
0.000535996
0.00579108
0.0214815
0.0368012
0.0466147
0.0505657
0.000128424
0.000133366
0.000138038
0.000138849
0.000138048
0.000141572
0.000141342
0.00013451
0.000150402
0.000759916
0.00723004
0.022602
0.0361015
0.0446149
0.0479842
0.000120755
0.000125697
0.000130255
0.000130878
0.000130597
0.00013399
0.000134148
0.000128181
0.00016661
0.00107761
0.00874497
0.0234464
0.0354012
0.0428032
0.0456925
0.000113393
0.000118335
0.000122916
0.000123506
0.000123403
0.000127037
0.000126755
0.000120502
0.00017425
0.00154637
0.0103413
0.0240788
0.0347314
0.0411963
0.0436729
0.000106761
0.00011169
0.000116094
0.000116502
0.000116878
0.000120282
0.000120289
0.00011617
0.000221852
0.00221067
0.0119644
0.0245899
0.0341167
0.039786
0.0419081
0.000100307
0.000105196
0.000109599
0.000110024
0.00011051
0.00011419
0.000113974
0.000109464
0.000277455
0.00312588
0.0135524
0.0250629
0.033591
0.0385793
0.0403841
9.45594e-05
9.942e-05
0.000103591
0.000103864
0.000104782
0.000108122
0.000107943
0.000108676
0.000413378
0.00433185
0.0150496
0.0255218
0.0331553
0.037551
0.0390755
8.89109e-05
9.37065e-05
9.78723e-05
9.81701e-05
9.91436e-05
0.000102806
0.000102753
0.000107946
0.00065163
0.00577613
0.0164164
0.0259643
0.0327933
0.0366641
0.0379378
8.39256e-05
8.86676e-05
9.25517e-05
9.27614e-05
9.41123e-05
9.7317e-05
9.72335e-05
0.000131419
0.00108768
0.00740358
0.0176251
0.026354
0.0324688
0.0358738
0.0369232
7.89889e-05
8.36529e-05
8.75465e-05
8.77452e-05
8.91198e-05
9.27143e-05
9.35247e-05
0.000157587
0.00176211
0.00906376
0.0186874
0.0266649
0.0321492
0.0351416
0.0359913
7.46715e-05
7.92469e-05
8.28117e-05
8.3015e-05
8.46989e-05
8.77217e-05
8.87155e-05
0.000247001
0.00270404
0.0106446
0.019622
0.0269104
0.0318193
0.0344408
0.0351118
7.03687e-05
7.48536e-05
7.84558e-05
7.85768e-05
8.02792e-05
8.38108e-05
9.20432e-05
0.000398999
0.00386501
0.0120706
0.0203967
0.0269635
0.0314255
0.0337382
0.0342585
6.6634e-05
7.09966e-05
7.4233e-05
7.44573e-05
7.63858e-05
7.93079e-05
9.57447e-05
0.000699542
0.00517644
0.0133207
0.0210361
0.0270121
0.0309975
0.0330312
0.0334229
6.29031e-05
6.71569e-05
7.04587e-05
7.0517e-05
7.24827e-05
7.63844e-05
0.000126921
0.0011786
0.00653838
0.0143959
0.0215267
0.0269255
0.0305292
0.0323201
0.0326036
5.9676e-05
6.37859e-05
6.67088e-05
6.69419e-05
6.90625e-05
7.29301e-05
0.000170138
0.00185426
0.00785326
0.015323
0.0219164
0.0268705
0.0300596
0.0316178
0.0318038
5.64609e-05
6.04444e-05
6.34468e-05
6.3446e-05
6.56181e-05
7.14944e-05
0.000274324
0.00271238
0.00906687
0.016115
0.0221927
0.0267012
0.029562
0.0309222
0.0310261
5.36713e-05
5.7512e-05
6.01541e-05
6.03449e-05
6.27026e-05
7.92138e-05
0.000468348
0.00369492
0.0101541
0.0167814
0.0223739
0.0264761
0.0290467
0.0302358
0.0302714
5.09174e-05
5.4621e-05
5.7341e-05
5.72715e-05
5.97773e-05
8.7265e-05
0.000787584
0.00474729
0.0111169
0.0173383
0.0224846
0.0262144
0.0285244
0.0295625
0.0295414
4.84955e-05
5.20879e-05
5.44883e-05
5.45677e-05
5.78221e-05
0.000123079
0.00124822
0.00579946
0.0119657
0.0177818
0.0224984
0.0259083
0.0279925
0.0289002
0.0288327
4.61411e-05
4.95944e-05
5.20687e-05
5.19174e-05
5.52228e-05
0.000177929
0.00185494
0.0068061
0.0127142
0.018139
0.0224821
0.0255828
0.0274594
0.0282509
0.0281443
4.40228e-05
4.74234e-05
4.9619e-05
4.95535e-05
5.97615e-05
0.000293522
0.0025816
0.00774029
0.0133722
0.0184248
0.0224276
0.0252446
0.0269307
0.0276171
0.0274764
4.19947e-05
4.52573e-05
4.75374e-05
4.73948e-05
6.26116e-05
0.00049341
0.00339625
0.00859609
0.0139473
0.0186441
0.0223222
0.0248902
0.0264067
0.0269995
0.0268292
4.01221e-05
4.34072e-05
4.54325e-05
4.5468e-05
8.63483e-05
0.000799824
0.00425399
0.00937569
0.014444
0.0188066
0.0221866
0.0245266
0.0258901
0.0263988
0.0262026
3.83467e-05
4.14872e-05
4.36304e-05
4.41348e-05
0.000114421
0.00122989
0.00511419
0.0100912
0.0148733
0.0189223
0.0220279
0.0241592
0.0253834
0.0258161
0.0255966
3.66705e-05
3.99071e-05
4.17999e-05
4.47563e-05
0.000185041
0.00178528
0.00594596
0.0107455
0.0152427
0.0189976
0.0218506
0.0237908
0.0248878
0.025251
0.0250103
3.50962e-05
3.81641e-05
4.02743e-05
4.8696e-05
0.000307941
0.00244472
0.00673745
0.0113445
0.0155617
0.0190404
0.0216595
0.0234238
0.0244041
0.0247034
0.024443
3.35719e-05
3.67895e-05
3.86832e-05
5.35009e-05
0.000524604
0.00318231
0.00748187
0.0118876
0.0158345
0.019052
0.0214564
0.0230592
0.023932
0.0241723
0.0238935
3.21858e-05
3.51882e-05
3.74869e-05
8.53416e-05
0.000851801
0.00395412
0.0081834
0.0123772
0.0160656
0.0190411
0.0212438
0.0226972
0.023471
0.0236569
0.0233608
3.07692e-05
3.39601e-05
3.73603e-05
0.000125177
0.00130834
0.00472749
0.00884387
0.0128182
0.016261
0.0190116
0.0210259
0.02234
0.0230216
0.0231568
0.0228447
2.9589e-05
3.24896e-05
3.71837e-05
0.00021967
0.00187967
0.00547902
0.00946128
0.0132128
0.0164198
0.0189566
0.0207996
0.021986
0.0225829
0.0226714
0.0223445
2.8246e-05
3.14551e-05
4.94817e-05
0.00038972
0.00254453
0.00619899
0.0100335
0.0135646
0.0165468
0.0188844
0.0205677
0.0216363
0.0221552
0.0222009
0.0218606
2.72835e-05
3.02499e-05
6.12547e-05
0.000671345
0.00325823
0.00688547
0.0105579
0.0138744
0.0166438
0.0187957
0.0203308
0.0212907
0.021738
0.0217449
0.0213928
2.60273e-05
3.06179e-05
0.000112469
0.00108108
0.00398585
0.00753946
0.011037
0.0141448
0.016713
0.0186919
0.0200901
0.0209501
0.0213321
0.0213045
0.0209417
2.52533e-05
2.9715e-05
0.00018897
0.00161145
0.00469897
0.0081546
0.0114704
0.0143776
0.0167575
0.0185748
0.0198461
0.0206143
0.0209368
0.0208786
0.0205068
2.42681e-05
4.34116e-05
0.000352356
0.00223842
0.00539047
0.00873142
0.0118635
0.0145751
0.0167729
0.0184443
0.0196
0.0202845
0.0205531
0.0204676
0.0200885
2.40192e-05
5.65043e-05
0.000633629
0.00291587
0.00605267
0.00926101
0.0122109
0.0147365
0.0167676
0.0183003
0.0193494
0.0199578
0.0201781
0.0200687
0.0196844
2.58828e-05
0.000119175
0.00104627
0.00360814
0.00668808
0.00974954
0.0125206
0.0148704
0.0167481
0.0181492
0.0190985
0.0196365
0.0198126
0.0196819
0.0192935
2.45879e-05
0.000213126
0.00158685
0.00428848
0.00728593
0.0101919
0.012789
0.0149728
0.0167053
0.0179862
0.0188438
0.0193174
0.0194536
0.0193041
0.0189128
5.6458e-05
0.000415513
0.00221148
0.00494964
0.00784606
0.0105933
0.0130203
0.0150452
0.0166405
0.0178116
0.0185854
0.0190003
0.0191001
0.0189337
0.0185404
8.84555e-05
0.000764831
0.00287747
0.00558457
0.00835949
0.010947
0.0132111
0.0150869
0.0165541
0.0176226
0.0183193
0.0186807
0.0187479
0.0185669
0.0181726
0.000236785
0.00125861
0.00354499
0.00618846
0.00882888
0.0112579
0.0133648
0.015098
0.016448
0.0174223
0.0180481
0.0183603
0.0183977
0.0182034
0.0178084
0.000457578
0.00187352
0.00419878
0.0067519
0.00924983
0.0115236
0.0134822
0.0150848
0.0163217
0.0172075
0.0177678
0.0180354
0.0180461
0.0178404
0.0174459
0.000934991
0.00253274
0.0048304
0.00727433
0.00962727
0.0117497
0.013567
0.0150474
0.0161796
0.0169829
0.0174821
0.0177081
0.0176945
0.0174778
0.0170843
0.00164592
0.0032115
0.00542965
0.00774668
0.00995215
0.0119286
0.0136123
0.0149745
0.0160122
0.0167411
0.0171856
0.0173747
0.01734
0.0171142
0.0167226
0.00247935
0.0038912
0.00598438
0.00816746
0.0102314
0.0120707
0.0136305
0.0148793
0.0158264
0.0164857
0.0168797
0.0170355
0.0169822
0.016749
0.0163604
0.00333934
0.00456528
0.00649629
0.00853615
0.0104602
0.0121683
0.0136118
0.0147596
0.0156237
0.0162189
0.0165672
0.0166927
0.0166228
0.0163836
0.0159989
0.00415777
0.00520986
0.00695914
0.00884835
0.0106365
0.0122196
0.0135507
0.0146066
0.0153971
0.0159365
0.0162447
0.0163442
0.0162609
0.0160179
0.0156383
0.00490336
0.00580567
0.0073713
0.00910832
0.0107697
0.0122462
0.0134642
0.0144334
0.0151557
0.0156438
0.015916
0.0159928
0.0158985
0.0156535
0.0152803
0.00556244
0.00634054
0.00773483
0.0093231
0.0108596
0.012224
0.0133494
0.01424
0.0148999
0.0153422
0.0155826
0.0156399
0.0155368
0.0152917
0.014926
0.00613046
0.00680421
0.00803938
0.00947823
0.0108885
0.0121519
0.0131984
0.014023
0.0146303
0.0150332
0.0152462
0.0152872
0.0151778
0.0149343
0.0145772
0.0066096
0.00719641
0.00829231
0.00959925
0.010907
0.0120562
0.0130235
0.0137877
0.0143489
0.0147178
0.014908
0.0149363
0.0148229
0.0145828
0.0142356
0.00700878
0.00752332
0.00849763
0.00967938
0.0108724
0.011935
0.0128306
0.0135388
0.0140593
0.0143988
0.01457
0.0145886
0.0144738
0.0142388
0.0139026
0.007329
0.00777995
0.00864204
0.00970277
0.0107928
0.0117829
0.0126184
0.0132792
0.0137642
0.0140788
0.0142347
0.0142464
0.014132
0.0139038
0.0135797
0.0075859
0.00798608
0.00876078
0.00973491
0.0107076
0.0116161
0.0123932
0.0130117
0.0134659
0.0137598
0.0139037
0.0139113
0.0137994
0.0135795
0.0132685
0.00778546
0.00814099
0.0088332
0.00970724
0.0105986
0.0114363
0.01216
0.0127401
0.0131673
0.0134441
0.0135792
0.013585
0.0134775
0.0132672
0.0129701
0.00793753
0.00825333
0.00887034
0.00965331
0.0104721
0.0112473
0.0119226
0.0124678
0.0128714
0.013134
0.0132628
0.0132691
0.0131676
0.0129681
0.0126858
0.00803881
0.00831839
0.00886797
0.00957597
0.0103305
0.0110509
0.0116833
0.0121974
0.0125806
0.0128316
0.0129564
0.012965
0.0128709
0.0126833
0.0124165
0.00811576
0.00836888
0.00887196
0.009498
0.0101855
0.0108529
0.0114453
0.0119313
0.0122966
0.0125384
0.0126612
0.0126736
0.0125881
0.0124133
0.0121625
0.00815247
0.00838136
0.00883507
0.0094065
0.0100371
0.010656
0.0112115
0.0116719
0.0120214
0.0122558
0.012378
0.0123955
0.0123195
0.0121583
0.011924
0.00820669
0.00840103
0.00878863
0.00930827
0.00988748
0.0104622
0.0109837
0.0114205
0.0117559
0.0119843
0.0121072
0.0121308
0.0120651
0.0119179
0.0117002
0.00819994
0.00837119
0.008725
0.00920162
0.00973645
0.0102718
0.0107625
0.0111779
0.0115009
0.0117244
0.0118489
0.0118793
0.0118244
0.0116914
0.0114902
0.00817603
0.00832904
0.00865387
0.00909188
0.00958671
0.0100864
0.0105488
0.0109447
0.0112564
0.011476
0.0116027
0.0116403
0.0115962
0.0114774
0.0112925
0.00813956
0.00828207
0.00857931
0.00898181
0.00943999
0.0099068
0.0103432
0.010721
0.0110223
0.0112386
0.0113678
0.0114126
0.0113792
0.0112742
0.011105
0.00809435
0.00822784
0.00850101
0.0088718
0.00929669
0.0097333
0.0101455
0.0105063
0.0107979
0.011011
0.0111427
0.0111945
0.0111713
0.0110796
0.0109252
0.00804451
0.00816787
0.00841928
0.00876158
0.00915627
0.00956513
0.00995479
0.0102995
0.0105818
0.0107918
0.0109255
0.0109837
0.0109701
0.0108905
0.0107499
0.00798972
0.00810327
0.00833483
0.00865132
0.00901842
0.00940156
0.00976999
0.0100993
0.0103724
0.0105788
0.0107141
0.0107778
0.0107727
0.0107041
0.0105759
0.00792965
0.00803412
0.00824751
0.00854037
0.00888204
0.00924121
0.0095895
0.00990387
0.0101676
0.01037
0.0105058
0.0105739
0.0105762
0.0105173
0.0104002
0.00786351
0.00795976
0.00815664
0.00842788
0.00874597
0.00908257
0.00941158
0.00971125
0.0099653
0.010163
0.0102985
0.0103699
0.0103782
0.0103275
0.0102202
0.0077912
0.00787994
0.00806161
0.00831278
0.00860882
0.00892408
0.00923451
0.00951961
0.00976364
0.00995583
0.0100899
0.0101634
0.0101766
0.0101327
0.0100339
0.00771196
0.00779384
0.00796153
0.0081941
0.00846946
0.00876442
0.00905681
0.00932739
0.00956102
0.00974696
0.00987866
0.00995307
0.00996995
0.00993165
0.00984018
0.00762518
0.00770078
0.00785555
0.00807077
0.00832674
0.00860239
0.0088773
0.00913343
0.00935628
0.00953529
0.00966368
0.00973798
0.00975742
0.00972375
0.00963866
0.00753085
0.00760053
0.00774321
0.00794227
0.00818001
0.00843725
0.00869519
0.00893698
0.00914879
0.0093203
0.00944461
0.00951793
0.00953905
0.00950917
0.00942974
0.00742853
0.00749282
0.0076244
0.00780845
0.00802903
0.00826873
0.00851026
0.0087379
0.00893853
0.00910211
0.00922175
0.00929341
0.00931551
0.00928883
0.00921453
0.00731843
0.00737782
0.00749922
0.00766936
0.00787386
0.0080969
0.00832263
0.00853643
0.00872588
0.0088813
0.00899586
0.00906538
0.009088
0.00906409
0.00899463
0.00720136
0.00725624
0.00736826
0.00752549
0.00771493
0.00792224
0.00813287
0.00833324
0.00851167
0.00865889
0.00876817
0.00883527
0.00885811
0.00883677
0.008772
0.0070782
0.00712892
0.00723226
0.00737749
0.00755289
0.0077454
0.00794169
0.00812918
0.00829692
0.00843605
0.00854004
0.00860463
0.00862759
0.00860873
0.00854863
0.00694999
0.00699685
0.00709218
0.00722631
0.00738864
0.00756731
0.00775009
0.00792535
0.00808285
0.00821418
0.00831302
0.00837516
0.00839826
0.0083819
0.00832655
0.0068177
0.00686101
0.00694895
0.00707283
0.00722307
0.00738886
0.00755901
0.00772278
0.0078706
0.00799452
0.00808849
0.00814834
0.00817169
0.00815792
0.00810739
0.00668239
0.00672244
0.0068036
0.00691806
0.00705716
0.00721105
0.00736948
0.00752254
0.00766131
0.00777831
0.00786774
0.00792554
0.00794929
0.00793821
0.00789256
0.006545
0.00658206
0.00665701
0.00676285
0.00689172
0.00703466
0.00718228
0.00732544
0.00745584
0.00756645
0.00765172
0.00770773
0.00773204
0.00772371