/*--------------------------------*- C++ -*----------------------------------*\
  =========                 |
  \\      /  F ield         | OpenFOAM: The Open Source CFD Toolbox
   \\    /   O peration     | Website:  https://openfoam.org
    \\  /    A nd           | Version:  7
     \\/     M anipulation  |
\*---------------------------------------------------------------------------*/
FoamFile
{
    version     2.0;
    format      ascii;
    class       volScalarField;
    location    "100";
    object      k;
}
// * * * * * * * * * * * * * * * * * * * * * * * * * * * * * * * * * * * * * //

dimensions      [0 2 -2 0 0 0 0];

internalField   nonuniform List<scalar> 
32100
(
0.000629645
0.000629659
0.000629683
0.000629694
0.000629691
0.000629712
0.000629673
0.000629679
0.000629701
0.000629684
0.000629688
0.000629686
0.000629678
0.000629688
0.000642697
0.000601704
0.000601688
0.000601662
0.00060165
0.000601653
0.00060163
0.000601674
0.000601666
0.000601642
0.000601662
0.000601658
0.000601663
0.000601693
0.000602401
0.000638139
0.00057589
0.000575904
0.000575929
0.000575939
0.000575935
0.000575957
0.000575915
0.000575927
0.000575951
0.000575931
0.000575938
0.000575941
0.000575989
0.000577957
0.000633397
0.000552268
0.000552254
0.000552226
0.000552216
0.000552222
0.000552197
0.000552244
0.000552233
0.000552209
0.000552235
0.000552235
0.000552245
0.000552356
0.000555927
0.000628499
0.000530285
0.000530297
0.000530324
0.000530333
0.000530327
0.000530352
0.000530307
0.000530325
0.000530353
0.000530334
0.00053035
0.000530358
0.000530517
0.000536014
0.000623472
0.000510067
0.000510055
0.000510027
0.000510018
0.000510026
0.000510002
0.000510052
0.000510038
0.000510017
0.00051005
0.000510059
0.000510072
0.000510314
0.000517914
0.000618335
0.000491132
0.000491144
0.000491169
0.000491179
0.000491173
0.0004912
0.000491154
0.000491179
0.000491209
0.000491192
0.000491223
0.000491236
0.00049155
0.000501439
0.000613112
0.000473643
0.000473633
0.000473606
0.000473599
0.000473608
0.000473584
0.000473639
0.000473622
0.000473607
0.000473645
0.000473666
0.00047368
0.000474098
0.000486358
0.000607815
0.000457172
0.000457184
0.000457207
0.000457217
0.000457213
0.000457241
0.000457195
0.000457227
0.00045726
0.000457245
0.000457292
0.000457311
0.000457821
0.00047256
0.000602465
0.000441903
0.000441892
0.000441869
0.000441863
0.000441873
0.000441851
0.000441909
0.000441891
0.000441882
0.000441925
0.000441957
0.000441974
0.000442611
0.000459855
0.000597069
0.000427449
0.000427464
0.000427483
0.000427494
0.000427492
0.000427522
0.000427476
0.000427514
0.000427549
0.000427535
0.000427597
0.000427626
0.000428372
0.000448182
0.000591644
0.000414012
0.000413997
0.00041398
0.000413974
0.000413984
0.000413965
0.000414025
0.000414007
0.000414006
0.000414051
0.000414092
0.000414115
0.000415014
0.000437381
0.000586194
0.000401228
0.000401248
0.000401261
0.000401274
0.000401275
0.000401304
0.00040126
0.000401303
0.000401339
0.000401328
0.000401402
0.000401444
0.000402466
0.000427421
0.000580736
0.000389317
0.000389298
0.000389288
0.000389281
0.000389291
0.000389276
0.000389338
0.00038932
0.000389327
0.000389372
0.000389421
0.000389453
0.000390654
0.000418166
0.000575269
0.000377934
0.000377958
0.000377966
0.000377982
0.000377985
0.000378013
0.000377972
0.000378017
0.000378054
0.000378047
0.000378131
0.000378187
0.000379523
0.000409607
0.000569809
0.000367308
0.000367283
0.00036728
0.000367273
0.000367283
0.000367272
0.000367333
0.000367317
0.000367331
0.000367376
0.00036743
0.000367474
0.000369018
0.000401627
0.000564355
0.000357109
0.000357138
0.00035714
0.000357158
0.000357164
0.00035719
0.000357153
0.000357199
0.000357236
0.000357233
0.000357325
0.000357397
0.000359084
0.000394228
0.000558919
0.000347572
0.000347543
0.000347548
0.000347539
0.000347549
0.000347542
0.000347602
0.000347588
0.00034761
0.000347653
0.00034771
0.000347771
0.000349692
0.000387309
0.000553498
0.000338386
0.000338419
0.000338415
0.000338436
0.000338444
0.000338466
0.000338436
0.000338482
0.000338517
0.000338521
0.000338618
0.000338708
0.000340782
0.000380883
0.000548106
0.00032978
0.000329748
0.000329761
0.00032975
0.00032976
0.000329758
0.000329814
0.000329803
0.000329833
0.000329872
0.000329931
0.000330012
0.000332343
0.000374858
0.000542738
0.000321468
0.000321502
0.000321493
0.000321516
0.000321525
0.000321545
0.000321521
0.000321566
0.000321599
0.00032161
0.000321711
0.000321821
0.000324315
0.000369257
0.000537405
0.00031366
0.000313627
0.000313648
0.000313637
0.000313646
0.000313648
0.0003137
0.000313691
0.000313729
0.000313762
0.000313823
0.000313928
0.000316697
0.000363994
0.000532103
0.000306111
0.000306144
0.000306129
0.000306151
0.000306163
0.00030618
0.000306163
0.000306207
0.000306237
0.000306256
0.000306358
0.000306491
0.000309438
0.0003591
0.000526843
0.000298989
0.000298958
0.000298986
0.000298978
0.000298984
0.00029899
0.000299037
0.000299032
0.000299075
0.000299103
0.000299167
0.000299298
0.00030253
0.000354493
0.000521618
0.00029211
0.00029214
0.00029212
0.000292139
0.000292155
0.000292168
0.000292159
0.000292201
0.000292229
0.000292256
0.000292356
0.000292516
0.000295945
0.000350212
0.000516441
0.000285583
0.000285556
0.000285591
0.000285587
0.00028559
0.000285599
0.000285641
0.000285639
0.000285686
0.000285709
0.000285777
0.000285936
0.000289654
0.000346175
0.000511302
0.000279297
0.000279322
0.000279296
0.000279311
0.00027933
0.00027934
0.000279338
0.000279377
0.000279405
0.00027944
0.000279535
0.000279725
0.000283665
0.00034243
0.000506215
0.000273288
0.000273268
0.000273307
0.00027331
0.000273308
0.000273321
0.000273359
0.000273361
0.000273408
0.000273426
0.000273502
0.000273689
0.000277915
0.000338895
0.00050117
0.000267526
0.000267544
0.000267514
0.000267524
0.000267545
0.000267553
0.000267557
0.000267592
0.000267623
0.000267665
0.000267751
0.000267978
0.000272454
0.000335625
0.000496179
0.000261974
0.000261962
0.000262004
0.000262014
0.00026201
0.000262025
0.000262059
0.000262066
0.000262109
0.000262124
0.000262209
0.000262425
0.000267181
0.000332536
0.000491232
0.000256675
0.000256686
0.000256653
0.000256658
0.000256681
0.000256688
0.000256694
0.000256726
0.000256762
0.00025681
0.000256885
0.000257154
0.000262189
0.00032969
0.000486342
0.000251532
0.000251529
0.000251572
0.000251588
0.000251582
0.000251599
0.000251632
0.000251642
0.00025168
0.000251691
0.000251787
0.000252035
0.000257341
0.000327001
0.000481499
0.000246641
0.000246643
0.00024661
0.00024661
0.000246633
0.00024664
0.000246648
0.000246676
0.000246719
0.000246772
0.000246836
0.000247151
0.000252765
0.000324537
0.000476714
0.000241867
0.000241873
0.000241916
0.000241935
0.00024193
0.000241948
0.00024198
0.000241995
0.000242025
0.000242032
0.00024214
0.000242422
0.000248298
0.00032221
0.000471978
0.000237334
0.000237327
0.000237295
0.000237292
0.000237315
0.000237322
0.000237331
0.000237355
0.000237405
0.000237464
0.000237517
0.000237881
0.000244095
0.000320095
0.0004673
0.000232899
0.000232913
0.000232953
0.000232976
0.000232972
0.000232989
0.000233022
0.00023304
0.000233063
0.000233065
0.000233184
0.000233504
0.000239971
0.000318098
0.000462673
0.000228677
0.000228664
0.000228634
0.000228629
0.00022865
0.00022866
0.00022867
0.000228688
0.000228744
0.00022881
0.000228854
0.000229269
0.000236101
0.000316305
0.000458105
0.000224557
0.000224576
0.000224612
0.000224637
0.000224635
0.00022465
0.000224683
0.000224706
0.000224723
0.00022472
0.000224847
0.00022521
0.000232288
0.000314611
0.000453588
0.000220604
0.000220587
0.000220562
0.000220555
0.000220574
0.000220587
0.000220598
0.000220612
0.00022067
0.000220745
0.000220782
0.00022125
0.00022872
0.000313117
0.000449132
0.00021678
0.000216799
0.000216831
0.000216858
0.000216857
0.000216871
0.000216901
0.000216928
0.000216943
0.000216933
0.000217066
0.000217478
0.000225188
0.000311705
0.000444727
0.000213057
0.000213042
0.000213021
0.000213012
0.000213031
0.000213046
0.000213061
0.00021307
0.000213128
0.000213211
0.000213246
0.000213768
0.000221894
0.000310491
0.000440384
0.000209514
0.000209529
0.000209555
0.000209585
0.000209584
0.000209595
0.000209622
0.000209653
0.000209668
0.000209651
0.000209787
0.000210254
0.000218616
0.000309343
0.000436091
0.000205986
0.000205978
0.000205964
0.00020595
0.00020597
0.000205988
0.000206007
0.000206013
0.000206068
0.00020616
0.000206194
0.000206771
0.000215575
0.000308393
0.000431861
0.00020271
0.000202717
0.000202736
0.00020277
0.000202767
0.000202776
0.000202799
0.000202833
0.000202851
0.000202826
0.000202965
0.000203493
0.000212526
0.000307495
0.000427681
0.000199351
0.000199352
0.000199344
0.000199327
0.000199349
0.000199369
0.000199393
0.000199396
0.000199446
0.000199547
0.000199581
0.000200216
0.000209718
0.000306796
0.000423566
0.000196325
0.000196323
0.000196334
0.000196371
0.000196366
0.000196372
0.000196391
0.000196428
0.000196448
0.000196417
0.000196558
0.000197152
0.000206878
0.000306135
0.000419499
0.000193113
0.000193124
0.000193124
0.000193103
0.000193128
0.000193152
0.000193178
0.00019318
0.000193225
0.000193334
0.000193368
0.000194064
0.000204286
0.000305676
0.000415497
0.000190319
0.000190308
0.000190312
0.00019035
0.000190343
0.000190345
0.000190363
0.000190401
0.000190423
0.000190388
0.000190531
0.000191196
0.000201638
0.000305243
0.000411543
0.000187241
0.000187262
0.000187268
0.000187246
0.000187274
0.000187301
0.000187328
0.000187329
0.000187371
0.000187485
0.00018752
0.000188278
0.000199244
0.000305015
0.000407656
0.00018466
0.000184641
0.000184637
0.000184675
0.000184665
0.000184664
0.000184682
0.000184722
0.000184744
0.000184705
0.000184851
0.000185593
0.000196774
0.000304801
0.000403815
0.000181705
0.000181733
0.000181747
0.000181724
0.000181756
0.000181786
0.000181812
0.000181812
0.000181851
0.000181971
0.000182005
0.000182828
0.000194563
0.000304797
0.000400042
0.000179316
0.000179291
0.00017928
0.000179318
0.000179305
0.000179299
0.000179318
0.000179361
0.000179383
0.000179339
0.000179491
0.000180316
0.00019226
0.000304851
0.000396315
0.000176477
0.000176513
0.000176534
0.00017651
0.000176546
0.00017658
0.000176604
0.0001766
0.000176638
0.000176765
0.000176796
0.000177685
0.000190217
0.000305004
0.000392654
0.000174264
0.000174233
0.000174214
0.000174253
0.000174237
0.000174226
0.000174245
0.000174294
0.000174315
0.000174265
0.000174426
0.00017534
0.000188071
0.000305227
0.000389043
0.000171534
0.000171575
0.000171604
0.00017158
0.000171619
0.000171657
0.000171679
0.00017167
0.000171706
0.000171841
0.000171867
0.000172825
0.000186183
0.000305664
0.000385488
0.000169479
0.000169444
0.000169416
0.000169456
0.000169438
0.00016942
0.00016944
0.000169497
0.000169518
0.000169459
0.000169631
0.00017064
0.000184187
0.000306032
0.000382
0.000166852
0.0001669
0.000166937
0.000166911
0.000166954
0.000166996
0.000167017
0.000166998
0.000167033
0.000167178
0.0001672
0.000168228
0.000182443
0.000306738
0.000378545
0.000164941
0.0001649
0.000164865
0.000164905
0.000164887
0.000164862
0.000164881
0.00016495
0.00016497
0.000164899
0.000165085
0.000166196
0.00018059
0.000307242
0.000375186
0.000162414
0.000162467
0.000162513
0.000162487
0.000162531
0.000162577
0.000162597
0.000162566
0.000162601
0.000162757
0.000162775
0.000163878
0.000178976
0.00030822
0.000371823
0.00016063
0.000160584
0.00016054
0.00016058
0.000160564
0.000160533
0.000160549
0.000160634
0.000160653
0.000160568
0.000160767
0.000161986
0.000177277
0.000308846
0.000368598
0.000158201
0.000158261
0.000158314
0.00015829
0.000158331
0.000158381
0.000158403
0.000158356
0.000158393
0.000158559
0.000158577
0.000159757
0.000175788
0.000310076
0.000365322
0.000156528
0.000156478
0.000156427
0.000156463
0.000156452
0.000156416
0.000156429
0.000156531
0.000156547
0.00015645
0.000156658
0.000157992
0.000174264
0.000310819
0.000362237
0.0001542
0.000154265
0.000154325
0.000154306
0.000154339
0.00015439
0.000154415
0.000154353
0.000154393
0.000154567
0.000154592
0.000155854
0.000172872
0.000312281
0.000359042
0.000152616
0.000152566
0.000152509
0.000152537
0.000152536
0.000152496
0.000152505
0.000152623
0.000152636
0.000152529
0.000152743
0.000154198
0.00017154
0.000313189
0.000356101
0.000150394
0.000150465
0.00015053
0.00015052
0.000150538
0.000150589
0.000150618
0.000150543
0.000150586
0.000150764
0.000150805
0.000152154
0.000170219
0.000314811
0.00035298
0.000148878
0.000148835
0.000148775
0.000148793
0.000148799
0.000148759
0.000148766
0.000148895
0.000148905
0.000148794
0.000149009
0.00015059
0.000169084
0.000315942
0.000350189
0.000146768
0.000146849
0.000146914
0.000146918
0.000146911
0.000146961
0.000146996
0.000146912
0.00014696
0.000147137
0.000147201
0.000148647
0.000167835
0.000317694
0.000347136
0.000145298
0.000145272
0.000145213
0.000145224
0.000145228
0.000145191
0.0001452
0.00014533
0.000145339
0.000145232
0.000145448
0.000147152
0.000166869
0.000319048
0.000344503
0.000143307
0.000143407
0.000143466
0.000143492
0.000143441
0.000143489
0.000143535
0.000143446
0.0001435
0.000143676
0.000143764
0.000145327
0.000165727
0.000320957
0.000341508
0.000141865
0.000141873
0.000141816
0.00014183
0.000141808
0.00014178
0.000141799
0.000141917
0.000141926
0.000141837
0.000142056
0.000143872
0.000164875
0.000322477
0.000339044
0.000139996
0.000140128
0.000140174
0.000140236
0.000140112
0.00014016
0.000140223
0.000140129
0.000140191
0.000140373
0.000140484
0.000142184
0.000163891
0.000324647
0.000336094
0.00013857
0.000138632
0.000138579
0.000138617
0.000138528
0.000138514
0.000138553
0.000138641
0.000138656
0.00013861
0.000138832
0.000140743
0.000163105
0.000326219
0.000333816
0.000136817
0.000137005
0.000137031
0.000137151
0.000136908
0.000136964
0.000137054
0.000136946
0.000137017
0.000137225
0.000137359
0.000139203
0.000162307
0.000328773
0.000330896
0.000135403
0.000135548
0.000135497
0.000135596
0.000135377
0.000135387
0.00013546
0.00013549
0.000135522
0.000135561
0.000135775
0.000137773
0.000161568
0.000330351
0.000328824
0.000133756
0.00013403
0.000134033
0.000134246
0.000133821
0.000133897
0.000134027
0.000133879
0.000133966
0.000134238
0.000134391
0.000136355
0.000160937
0.000333293
0.000325915
0.000132353
0.000132615
0.000132566
0.000132775
0.000132346
0.000132398
0.000132518
0.00013245
0.000132515
0.000132706
0.000132889
0.000134972
0.00016024
0.000335085
0.000324067
0.000130793
0.000131189
0.000131177
0.000131527
0.000130846
0.000130964
0.000131146
0.000130907
0.000131025
0.000131438
0.000131588
0.00013361
0.000159771
0.000338165
0.000321187
0.000129399
0.000129816
0.00012978
0.000130155
0.00012943
0.000129548
0.000129731
0.000129502
0.000129623
0.000130056
0.000130177
0.000132331
0.000159121
0.00034067
0.000319421
0.000127902
0.000128462
0.000128457
0.000128994
0.000127982
0.00012817
0.000128421
0.000128008
0.000128182
0.000128855
0.000128949
0.00013096
0.000158795
0.000344662
0.000316285
0.00012651
0.000127124
0.000127129
0.000127726
0.000126623
0.00012684
0.000127103
0.00012662
0.000126831
0.000127626
0.000127641
0.000129801
0.000158304
0.000347382
0.000323275
0.000122547
0.000123182
0.000123231
0.000123848
0.000122661
0.000122893
0.00012319
0.000122634
0.000122833
0.000123676
0.000123806
0.000125801
0.000156688
0.000384666
0.00226128
0.000116587
0.000117326
0.000117401
0.000118115
0.000116825
0.000117114
0.000117397
0.000116725
0.000117068
0.000118164
0.000118099
0.000121303
0.000163527
0.000667517
0.00538624
0.000111097
0.000111862
0.000112038
0.000112769
0.000111361
0.000111678
0.000112002
0.000111162
0.000111465
0.000112761
0.00011264
0.000115687
0.000172632
0.00113026
0.0069796
0.000106063
0.000106941
0.000107177
0.000107985
0.00010651
0.00010689
0.000107208
0.000106246
0.000106739
0.000108217
0.000108263
0.000112702
0.000212227
0.0017689
0.00767092
0.00010138
0.000102291
0.000102659
0.000103472
0.000101903
0.000102316
0.000102659
0.000101473
0.000101905
0.000103757
0.000103282
0.000109028
0.000258312
0.00217504
0.00774288
9.702e-05
9.80498e-05
9.85064e-05
9.93707e-05
9.77785e-05
9.82637e-05
9.86125e-05
9.72969e-05
9.79372e-05
9.98617e-05
9.99445e-05
0.00010735
0.000325594
0.00269142
0.00782752
9.29462e-05
9.40237e-05
9.46408e-05
9.54914e-05
9.38441e-05
9.43712e-05
9.47175e-05
9.31489e-05
9.37443e-05
9.62165e-05
9.56353e-05
0.0001092
0.000460521
0.0033926
0.00794292
8.90854e-05
9.02808e-05
9.10117e-05
9.18824e-05
9.02657e-05
9.08756e-05
9.12309e-05
8.95281e-05
9.03204e-05
9.27079e-05
9.25374e-05
0.000111632
0.000698695
0.00425392
0.00804038
8.54701e-05
8.67411e-05
8.76475e-05
8.84855e-05
8.6859e-05
8.75221e-05
8.78466e-05
8.59024e-05
8.67087e-05
8.98001e-05
8.98869e-05
0.000139124
0.00109965
0.00503642
0.00813092
8.19869e-05
8.33691e-05
8.44049e-05
8.52338e-05
8.36961e-05
8.44506e-05
8.47775e-05
8.2692e-05
8.36489e-05
8.65144e-05
8.6919e-05
0.000179411
0.00165043
0.00566016
0.00822935
7.87236e-05
8.02126e-05
8.14234e-05
8.22056e-05
8.06996e-05
8.1518e-05
8.18001e-05
7.95193e-05
8.056e-05
8.42573e-05
8.7288e-05
0.000288336
0.00234
0.00613795
0.00830272
7.55306e-05
7.71214e-05
7.8464e-05
7.92154e-05
7.78561e-05
7.87698e-05
7.90331e-05
7.66061e-05
7.77519e-05
8.11471e-05
9.26189e-05
0.000489864
0.00307454
0.00647963
0.00833549
7.25454e-05
7.4266e-05
7.57722e-05
7.64698e-05
7.51743e-05
7.61596e-05
7.6388e-05
7.38318e-05
7.50846e-05
7.97201e-05
0.000107246
0.000833386
0.00374448
0.00672489
0.00834652
6.95865e-05
7.13961e-05
7.30245e-05
7.36771e-05
7.25807e-05
7.36593e-05
7.38367e-05
7.11326e-05
7.25201e-05
7.73054e-05
0.000148852
0.00125004
0.00426242
0.00687985
0.00834193
6.682e-05
6.87697e-05
7.05445e-05
7.11475e-05
7.01306e-05
7.12871e-05
7.14651e-05
6.87009e-05
7.01385e-05
7.75828e-05
0.000225626
0.00171034
0.0046939
0.00702291
0.00831114
6.40723e-05
6.60939e-05
6.79706e-05
6.85179e-05
6.77427e-05
6.89857e-05
6.9076e-05
6.61647e-05
6.78879e-05
8.04575e-05
0.000349149
0.00216706
0.00499923
0.00708015
0.00823128
6.14799e-05
6.36371e-05
6.56422e-05
6.61559e-05
6.54594e-05
6.67823e-05
6.69186e-05
6.40156e-05
6.57799e-05
8.66568e-05
0.000514272
0.00259759
0.005231
0.0071232
0.00814201
5.89378e-05
6.11493e-05
6.32257e-05
6.36716e-05
6.32502e-05
6.46508e-05
6.46659e-05
6.16298e-05
6.40864e-05
0.000101627
0.000720364
0.00297278
0.00539401
0.00710668
0.00803617
5.64948e-05
5.88232e-05
6.10104e-05
6.14517e-05
6.10932e-05
6.25634e-05
6.26596e-05
5.97002e-05
6.23649e-05
0.000125832
0.000954319
0.00329362
0.00551143
0.00706791
0.00792448
5.41555e-05
5.65251e-05
5.87441e-05
5.91016e-05
5.90423e-05
6.0586e-05
6.05422e-05
5.74899e-05
6.21973e-05
0.000163298
0.00121479
0.00356861
0.00560871
0.00703196
0.0078225
5.1853e-05
5.43107e-05
5.66244e-05
5.70194e-05
5.69929e-05
5.85783e-05
5.86284e-05
5.57144e-05
6.1941e-05
0.000221781
0.0014982
0.00381409
0.00570224
0.00701723
0.00774158
4.97128e-05
5.2203e-05
5.45036e-05
5.47939e-05
5.50822e-05
5.67479e-05
5.66602e-05
5.37651e-05
6.71236e-05
0.000303501
0.001801
0.00403212
0.00579172
0.00701484
0.00768069
4.75504e-05
5.00981e-05
5.24809e-05
5.2857e-05
5.31399e-05
5.48004e-05
5.47972e-05
5.21849e-05
7.05297e-05
0.000425216
0.0021216
0.00423553
0.00587802
0.00700594
0.00763338
4.56022e-05
4.81745e-05
5.04969e-05
5.07487e-05
5.13523e-05
5.31117e-05
5.29919e-05
5.05333e-05
8.53378e-05
0.000594045
0.00245038
0.00443422
0.00596808
0.00701715
0.00760788
4.35874e-05
4.61911e-05
4.85919e-05
4.89682e-05
4.95298e-05
5.12244e-05
5.11676e-05
4.97291e-05
0.0001051
0.000824998
0.00277931
0.004639
0.00607045
0.00704295
0.00759959
4.18189e-05
4.44353e-05
4.67258e-05
4.69727e-05
4.78504e-05
4.9667e-05
4.95334e-05
4.90589e-05
0.000148631
0.00111895
0.00310657
0.00485308
0.00618942
0.0070952
0.00761041
3.99609e-05
4.25925e-05
4.49694e-05
4.53519e-05
4.61621e-05
4.78525e-05
4.7786e-05
5.30255e-05
0.00022836
0.00146735
0.00342136
0.00507026
0.00631949
0.00716369
0.00764266
3.8361e-05
4.0984e-05
4.31971e-05
4.34738e-05
4.4583e-05
4.64224e-05
4.64222e-05
5.67083e-05
0.000366376
0.00184961
0.00372673
0.00528495
0.00645393
0.00724047
0.00768432
3.66647e-05
3.92963e-05
4.16159e-05
4.19996e-05
4.30326e-05
4.46737e-05
4.4821e-05
7.45316e-05
0.000574061
0.00223316
0.00401964
0.00549027
0.00658513
0.00731791
0.00772842
3.52268e-05
3.78178e-05
3.99201e-05
4.02558e-05
4.1554e-05
4.34199e-05
4.47354e-05
0.000103389
0.000849262
0.0026018
0.00429733
0.00568213
0.00670749
0.00739024
0.00776939
3.3695e-05
3.62927e-05
3.85263e-05
3.88983e-05
4.01357e-05
4.16958e-05
4.4982e-05
0.000167228
0.00117533
0.00294458
0.00455608
0.00585843
0.00681736
0.007453
0.00780271
3.24111e-05
3.49312e-05
3.69059e-05
3.73167e-05
3.8758e-05
4.07328e-05
5.1489e-05
0.000280634
0.00153059
0.00326269
0.00479464
0.00601828
0.00691423
0.00750544
0.00782716
3.10466e-05
3.35747e-05
3.56954e-05
3.60361e-05
3.74697e-05
3.92293e-05
5.97978e-05
0.000452968
0.00188858
0.00355735
0.00501
0.00616005
0.00699831
0.00754833
0.00784403
2.9906e-05
3.23205e-05
3.41715e-05
3.46509e-05
3.62042e-05
3.8913e-05
8.575e-05
0.000684557
0.00223046
0.00382848
0.0052027
0.00628361
0.00706869
0.00758104
0.00785369
2.87094e-05
3.11423e-05
3.31282e-05
3.34127e-05
3.50276e-05
3.88049e-05
0.000130924
0.000962456
0.00255011
0.00407764
0.005376
0.00639228
0.00712808
0.00760639
0.00785887
2.76952e-05
2.99851e-05
3.1731e-05
3.2244e-05
3.39578e-05
4.34796e-05
0.00021724
0.00126846
0.00284496
0.00430529
0.00553211
0.00648831
0.00717864
0.00762572
0.00785923
2.66618e-05
2.89952e-05
3.08407e-05
3.10463e-05
3.30067e-05
4.85742e-05
0.000350128
0.0015826
0.00311842
0.00451277
0.00567269
0.00657332
0.00722208
0.00764108
0.00785835
2.57516e-05
2.79236e-05
2.95852e-05
3.008e-05
3.20667e-05
6.59562e-05
0.000532785
0.00188894
0.00337385
0.00470327
0.00580049
0.00664915
0.00725946
0.00765287
0.00785625
2.48636e-05
2.71175e-05
2.88411e-05
2.89535e-05
3.29098e-05
9.67792e-05
0.000758992
0.0021814
0.00361237
0.00487767
0.00591583
0.0067164
0.0072908
0.00766
0.00784919
2.40369e-05
2.6125e-05
2.77172e-05
2.81866e-05
3.34617e-05
0.000155481
0.00101797
0.00245596
0.00383407
0.00503741
0.00601995
0.00677574
0.00731678
0.00766353
0.00783962
2.32543e-05
2.54646e-05
2.71035e-05
2.7189e-05
3.99186e-05
0.0002517
0.00129544
0.00271494
0.00404073
0.00518505
0.00611512
0.00682872
0.00733851
0.00766415
0.00782816
2.25045e-05
2.45591e-05
2.60907e-05
2.67176e-05
4.76015e-05
0.000391038
0.00157701
0.00296077
0.00423359
0.00532192
0.00620262
0.00687667
0.00735721
0.00766321
0.00781571
2.17692e-05
2.39701e-05
2.5573e-05
2.68234e-05
6.89494e-05
0.000576875
0.00185361
0.00319609
0.00441531
0.00545012
0.00628418
0.00692096
0.00737389
0.00766117
0.00780278
2.11062e-05
2.31711e-05
2.46637e-05
2.76669e-05
0.000106474
0.000802897
0.00212114
0.00342097
0.00458686
0.00557048
0.00636045
0.00696208
0.00738893
0.00765846
0.00778957
2.03683e-05
2.25761e-05
2.41979e-05
2.87813e-05
0.000177296
0.00105921
0.00237888
0.00363643
0.00475016
0.0056846
0.0064326
0.00700084
0.00740284
0.00765533
0.00777619
1.98024e-05
2.18847e-05
2.34389e-05
3.80837e-05
0.000290442
0.00133254
0.00262875
0.00384228
0.00490541
0.00579276
0.00650078
0.00703724
0.0074155
0.00765161
0.00776247
1.90528e-05
2.12594e-05
2.305e-05
5.00628e-05
0.00045249
0.00160836
0.0028718
0.00403932
0.0050533
0.0058955
0.00656537
0.00707147
0.007427
0.00764731
0.00774841
1.85774e-05
2.06398e-05
2.37223e-05
8.18021e-05
0.000663528
0.00188124
0.00310835
0.00422826
0.0051942
0.00599307
0.00662654
0.00710365
0.0074374
0.00764247
0.00773407
1.78412e-05
2.0015e-05
2.42166e-05
0.000138233
0.000913453
0.00214625
0.0033368
0.00440902
0.00532825
0.00608555
0.00668418
0.00713363
0.00744657
0.00763705
0.00771949
1.74526e-05
1.95817e-05
3.27639e-05
0.000240427
0.0011877
0.00240507
0.00355682
0.00458204
0.00545602
0.0061734
0.00673876
0.0071618
0.00745485
0.00763136
0.00770499
1.67483e-05
1.94098e-05
4.3073e-05
0.000396884
0.00146886
0.00265795
0.00376793
0.00474694
0.00557724
0.00625642
0.00679005
0.00718796
0.0074621
0.00762532
0.00769057
1.64814e-05
2.0175e-05
7.64592e-05
0.000606854
0.00174834
0.00290479
0.00397079
0.00490431
0.00569247
0.00633508
0.00683847
0.00721246
0.00746861
0.00761917
0.00767646
1.58073e-05
2.00469e-05
0.00012975
0.000862404
0.00202066
0.00314329
0.00416449
0.00505339
0.005801
0.00640874
0.00688342
0.00723476
0.00747391
0.00761252
0.00766229
1.58179e-05
3.06924e-05
0.000237124
0.00114403
0.00228764
0.00337379
0.00435052
0.00519601
0.00590454
0.00647879
0.006926
0.00725568
0.00747853
0.00760567
0.00764816
1.61872e-05
4.24974e-05
0.000406851
0.00143356
0.00254849
0.0035941
0.00452636
0.00532954
0.00600051
0.00654293
0.00696421
0.00727356
0.00748116
0.00759746
0.00763303
1.77366e-05
8.60319e-05
0.000635814
0.00172022
0.00280315
0.00380607
0.00469442
0.00545665
0.00609158
0.00660351
0.00699976
0.00728926
0.00748173
0.00758767
0.00761652
1.89588e-05
0.000156685
0.000913945
0.00200079
0.00304847
0.00400706
0.00485167
0.00557405
0.0061743
0.00665709
0.00702967
0.00730071
0.00747964
0.00757529
0.0075975
4.4358e-05
0.000298886
0.00121214
0.00227489
0.00328402
0.00419858
0.00500067
0.00568466
0.00625167
0.00670664
0.00705668
0.00731015
0.00747449
0.00755998
0.00757546
7.50098e-05
0.000519281
0.00151545
0.00254265
0.0035082
0.00437762
0.00513737
0.00578372
0.0063184
0.00674637
0.00707449
0.00731054
0.00746264
0.00753919
0.00754862
0.000179877
0.000804401
0.00181134
0.0028002
0.0037206
0.00454584
0.00526517
0.00587595
0.00638021
0.0067828
0.00709004
0.00730902
0.00744767
0.00751468
0.00751774
0.000352115
0.00112938
0.00210216
0.00304662
0.00391982
0.00470038
0.00537944
0.00595511
0.00642966
0.00680813
0.00709754
0.00729987
0.00742631
0.00748462
0.00748192
0.000681072
0.00145796
0.00238356
0.00328027
0.004107
0.00484495
0.00548627
0.00602944
0.00647661
0.00683182
0.00709951
0.00728599
0.00740062
0.0074503
0.00744188
0.00111024
0.00179324
0.00265789
0.0035025
0.00428135
0.00497629
0.00558001
0.00609086
0.00651057
0.00684294
0.00709251
0.0072649
0.0073688
0.00741068
0.00739713
0.00156452
0.00212789
0.00291654
0.00370542
0.00443691
0.00509073
0.00565892
0.00613948
0.00653426
0.00684822
0.00707785
0.00723686
0.00733084
0.0073657
0.00734765
0.0020035
0.00246195
0.00316753
0.00389867
0.00458392
0.00519856
0.00573371
0.00618725
0.00656099
0.006848
0.00705948
0.00720483
0.00728884
0.00731681
0.00729452
0.00240348
0.00277998
0.00340284
0.00407364
0.00471194
0.00528776
0.00578983
0.00621493
0.00656469
0.00683233
0.00703032
0.00716494
0.0072409
0.00726327
0.00723761
0.00276303
0.00307706
0.00362382
0.00423473
0.00482674
0.00536505
0.00583585
0.00623469
0.00656246
0.00681138
0.00699601
0.00712033
0.00718883
0.00720625
0.00717783
0.00307837
0.00334416
0.00382401
0.00437819
0.00492624
0.00542981
0.00587227
0.0062467
0.00655006
0.00678394
0.00695634
0.00707135
0.00713322
0.0071464
0.00711586
0.00335503
0.00358352
0.00400681
0.0045094
0.00501603
0.00548652
0.00590223
0.00625562
0.00653435
0.00675258
0.00691311
0.00701939
0.00707526
0.00708481
0.00705268
0.00359483
0.00379312
0.00416722
0.00462132
0.00508711
0.00552413
0.00591212
0.00624216
0.00650732
0.00671394
0.00686511
0.00696433
0.00701538
0.00702217
0.00698914
0.00380102
0.00397456
0.00430683
0.00471839
0.00514847
0.00555819
0.00592702
0.00622803
0.00647659
0.0066714
0.006814
0.00690722
0.00695443
0.00695931
0.00692608
0.00397767
0.00413123
0.00442857
0.00480279
0.00519969
0.00558182
0.00592685
0.00620942
0.0064432
0.00662695
0.00676164
0.00684955
0.00689367
0.00689734
0.00686452
0.00412904
0.00426558
0.00453228
0.00487256
0.00523792
0.00559182
0.0059119
0.00618235
0.00640526
0.00658029
0.00670857
0.00679225
0.00683411
0.00683727
0.00680545
0.00425787
0.00437981
0.00461973
0.00492909
0.00526459
0.00559244
0.0058923
0.00615094
0.00636457
0.00653249
0.00665571
0.00673624
0.0067767
0.00678004
0.00674978
0.00436797
0.0044776
0.00469475
0.00497781
0.00528941
0.00560113
0.00587652
0.00612037
0.00632421
0.00648548
0.00660439
0.00668256
0.00672234
0.00672648
0.00669829
0.00446342
0.00456253
0.00475984
0.00501925
0.00530786
0.00559915
0.00585865
0.00609009
0.00628507
0.00644039
0.00655567
0.00663213
0.00667182
0.00667727
0.00665155
0.00454613
0.0046359
0.00481559
0.00505355
0.00531968
0.00558843
0.00583799
0.0060599
0.00624752
0.00639781
0.00651017
0.00658551
0.00662561
0.00663278
0.00660986
0.00461873
0.00470039
0.0048646
0.00508351
0.00533022
0.00558135
0.00581886
0.00603144
0.00621234
0.00635825
0.00646826
0.00654296
0.00658387
0.00659306
0.00657314
0.00468249
0.00475721
0.00490802
0.00511006
0.00533959
0.00557544
0.00580122
0.00600503
0.00617977
0.00632184
0.00642994
0.00650437
0.00654637
0.00655776
0.00654093
0.00474047
0.00480902
0.00494789
0.00513535
0.00535064
0.00557518
0.00578713
0.00598159
0.00615021
0.00628863
0.00639507
0.00646942
0.00651263
0.00652628
0.00651247
0.00479311
0.00485621
0.0049844
0.0051584
0.00535943
0.00556972
0.00577307
0.00596004
0.00612325
0.00625833
0.00636325
0.00643758
0.00648199
0.00649779
0.00648683
0.00484107
0.00489932
0.00501802
0.00517997
0.00536825
0.00556652
0.00576074
0.0059405
0.00609855
0.00623043
0.00633385
0.0064081
0.00645355
0.00647128
0.00646289
0.00488535
0.00493924
0.00504944
0.00520055
0.00537731
0.00556478
0.00574993
0.00592259
0.00607555
0.0062042
0.006306
0.00637996
0.00642619
0.00644552
0.0064393
0.00492575
0.00497571
0.0050782
0.00521941
0.00538556
0.00556297
0.00573949
0.00590528
0.00605321
0.00617854
0.00627852
0.0063519
0.00639855
0.00641904
0.00641451
0.00496256
0.00500903
0.00510458
0.0052368
0.00539321
0.00556127
0.00572913
0.00588796
0.00603067
0.00615241
0.00625022
0.00632263
0.00636924
0.00639041
0.00638706
0.0049954
0.00503864
0.00512773
0.00525149
0.00539866
0.00555779
0.00571737
0.00586931
0.00600667
0.00612455
0.00621985
0.00629085
0.00633696
0.00635832
0.00635565
0.0050235
0.00506388
0.00514722
0.00526338
0.00540213
0.00555176
0.00570327
0.0058483
0.00598013
0.00609386
0.00618627
0.00625547
0.00630064
0.00632176
0.00631937
0.00504678
0.00508443
0.00516215
0.00527074
0.00540088
0.00554199
0.00568566
0.00582384
0.00595003
0.00605939
0.0061486
0.00621565
0.00625955
0.0062801
0.00627768
0.00506451
0.00509968
0.00517238
0.00527436
0.00539584
0.00552842
0.00566418
0.00579541
0.0059158
0.00602057
0.00610634
0.00617098
0.00621335
0.00623309
0.00623047
0.00507631
0.00510946
0.00517788