/*--------------------------------*- C++ -*----------------------------------*\
  =========                 |
  \\      /  F ield         | OpenFOAM: The Open Source CFD Toolbox
   \\    /   O peration     | Website:  https://openfoam.org
    \\  /    A nd           | Version:  7
     \\/     M anipulation  |
\*---------------------------------------------------------------------------*/
FoamFile
{
    version     2.0;
    format      ascii;
    class       volScalarField;
    location    "100";
    object      nut;
}
// * * * * * * * * * * * * * * * * * * * * * * * * * * * * * * * * * * * * * //

dimensions      [0 2 -1 0 0 0 0];

internalField   nonuniform List<scalar> 
32100
(
2.76901e-06
2.76911e-06
2.76927e-06
2.76934e-06
2.76932e-06
2.76947e-06
2.7692e-06
2.76925e-06
2.76939e-06
2.76928e-06
2.7693e-06
2.76928e-06
2.76922e-06
2.78167e-06
1.96252e-05
2.75906e-06
2.75895e-06
2.75876e-06
2.75868e-06
2.7587e-06
2.75853e-06
2.75884e-06
2.75879e-06
2.75862e-06
2.75876e-06
2.75873e-06
2.75875e-06
2.75891e-06
2.80237e-06
1.9486e-05
2.74843e-06
2.74853e-06
2.74871e-06
2.74879e-06
2.74875e-06
2.74892e-06
2.7486e-06
2.74869e-06
2.74886e-06
2.74871e-06
2.74874e-06
2.74873e-06
2.74899e-06
2.82607e-06
1.93413e-05
2.73945e-06
2.73934e-06
2.73913e-06
2.73905e-06
2.73909e-06
2.7389e-06
2.73926e-06
2.73916e-06
2.73897e-06
2.73914e-06
2.73911e-06
2.73913e-06
2.73985e-06
2.85188e-06
1.91917e-05
2.72965e-06
2.72974e-06
2.72995e-06
2.73002e-06
2.72997e-06
2.73016e-06
2.7298e-06
2.72993e-06
2.73012e-06
2.72993e-06
2.72998e-06
2.72999e-06
2.73109e-06
2.87973e-06
1.90382e-05
2.72148e-06
2.72138e-06
2.72115e-06
2.72107e-06
2.72113e-06
2.72092e-06
2.72132e-06
2.72118e-06
2.72098e-06
2.72119e-06
2.72114e-06
2.72117e-06
2.72299e-06
2.90914e-06
1.88813e-05
2.71239e-06
2.71248e-06
2.7127e-06
2.71277e-06
2.71271e-06
2.71292e-06
2.71251e-06
2.71269e-06
2.7129e-06
2.71268e-06
2.71275e-06
2.7128e-06
2.7153e-06
2.94034e-06
1.87218e-05
2.70491e-06
2.70482e-06
2.70458e-06
2.7045e-06
2.70457e-06
2.70434e-06
2.70479e-06
2.70459e-06
2.70439e-06
2.70464e-06
2.70457e-06
2.70462e-06
2.70814e-06
2.97287e-06
1.85601e-05
2.69642e-06
2.69653e-06
2.69673e-06
2.69681e-06
2.69674e-06
2.69698e-06
2.69652e-06
2.69675e-06
2.69696e-06
2.69671e-06
2.69682e-06
2.69692e-06
2.70144e-06
3.00717e-06
1.83967e-05
2.68955e-06
2.68944e-06
2.68921e-06
2.68914e-06
2.68921e-06
2.68896e-06
2.68945e-06
2.68921e-06
2.68902e-06
2.6893e-06
2.68921e-06
2.68929e-06
2.69517e-06
3.04264e-06
1.82319e-05
2.68157e-06
2.68171e-06
2.68188e-06
2.68197e-06
2.68191e-06
2.68216e-06
2.68166e-06
2.68194e-06
2.68213e-06
2.68187e-06
2.68202e-06
2.6822e-06
2.68937e-06
3.07977e-06
1.80663e-05
2.67523e-06
2.67508e-06
2.6749e-06
2.67481e-06
2.67488e-06
2.67463e-06
2.67515e-06
2.67487e-06
2.6747e-06
2.675e-06
2.67489e-06
2.67501e-06
2.68394e-06
3.11788e-06
1.78999e-05
2.6677e-06
2.66789e-06
2.66801e-06
2.66811e-06
2.66807e-06
2.66831e-06
2.66778e-06
2.6681e-06
2.66828e-06
2.66801e-06
2.66819e-06
2.66848e-06
2.67898e-06
3.15754e-06
1.77332e-05
2.66184e-06
2.66163e-06
2.66149e-06
2.66139e-06
2.66145e-06
2.66121e-06
2.66176e-06
2.66145e-06
2.66131e-06
2.66162e-06
2.66149e-06
2.66167e-06
2.67437e-06
3.198e-06
1.75663e-05
2.65468e-06
2.65494e-06
2.65499e-06
2.65512e-06
2.6551e-06
2.65533e-06
2.65477e-06
2.65513e-06
2.65528e-06
2.65501e-06
2.65523e-06
2.65565e-06
2.67018e-06
3.23988e-06
1.73995e-05
2.64925e-06
2.64896e-06
2.6489e-06
2.64878e-06
2.64882e-06
2.64861e-06
2.64917e-06
2.64884e-06
2.64873e-06
2.64904e-06
2.64889e-06
2.64916e-06
2.66637e-06
3.28241e-06
1.7233e-05
2.64243e-06
2.64275e-06
2.64275e-06
2.64291e-06
2.6429e-06
2.6431e-06
2.64254e-06
2.64291e-06
2.64303e-06
2.64279e-06
2.64304e-06
2.64362e-06
2.66289e-06
3.32623e-06
1.7067e-05
2.63737e-06
2.63701e-06
2.63704e-06
2.63687e-06
2.63691e-06
2.63673e-06
2.63728e-06
2.63695e-06
2.63688e-06
2.63717e-06
2.637e-06
2.63742e-06
2.65987e-06
3.37056e-06
1.69015e-05
2.63088e-06
2.63126e-06
2.63118e-06
2.63137e-06
2.63137e-06
2.63154e-06
2.63101e-06
2.63139e-06
2.63145e-06
2.63126e-06
2.63155e-06
2.6323e-06
2.65708e-06
3.41606e-06
1.67368e-05
2.62611e-06
2.6257e-06
2.62582e-06
2.62563e-06
2.62565e-06
2.62551e-06
2.62602e-06
2.6257e-06
2.62569e-06
2.62593e-06
2.62574e-06
2.62636e-06
2.6548e-06
3.46194e-06
1.65729e-05
2.61997e-06
2.62038e-06
2.62022e-06
2.62044e-06
2.62045e-06
2.62058e-06
2.62009e-06
2.62047e-06
2.62048e-06
2.62036e-06
2.62067e-06
2.62164e-06
2.6527e-06
3.50891e-06
1.64101e-05
2.6154e-06
2.61496e-06
2.61519e-06
2.61498e-06
2.61498e-06
2.61487e-06
2.61534e-06
2.61503e-06
2.61509e-06
2.61526e-06
2.61506e-06
2.61593e-06
2.6511e-06
3.55612e-06
1.62482e-05
2.60965e-06
2.61007e-06
2.60981e-06
2.61003e-06
2.61008e-06
2.61016e-06
2.60973e-06
2.6101e-06
2.61004e-06
2.61002e-06
2.61034e-06
2.61156e-06
2.64972e-06
3.60435e-06
1.60875e-05
2.60518e-06
2.60475e-06
2.60508e-06
2.60489e-06
2.60484e-06
2.60478e-06
2.60519e-06
2.6049e-06
2.60501e-06
2.60511e-06
2.60492e-06
2.60609e-06
2.64874e-06
3.65268e-06
1.5928e-05
2.59987e-06
2.60026e-06
2.59991e-06
2.6001e-06
2.60019e-06
2.60023e-06
2.59986e-06
2.60021e-06
2.60011e-06
2.60018e-06
2.60049e-06
2.60202e-06
2.64811e-06
3.702e-06
1.57699e-05
2.59541e-06
2.59502e-06
2.59545e-06
2.59531e-06
2.5952e-06
2.59519e-06
2.59553e-06
2.59528e-06
2.59543e-06
2.59543e-06
2.59531e-06
2.59682e-06
2.64766e-06
3.7513e-06
1.5613e-05
2.59057e-06
2.5909e-06
2.59046e-06
2.59059e-06
2.59072e-06
2.59072e-06
2.59042e-06
2.59074e-06
2.59062e-06
2.59079e-06
2.59104e-06
2.593e-06
2.64777e-06
3.80158e-06
1.54576e-05
2.58606e-06
2.58574e-06
2.58626e-06
2.5862e-06
2.58604e-06
2.58606e-06
2.58634e-06
2.58614e-06
2.58628e-06
2.5862e-06
2.58618e-06
2.58808e-06
2.6478e-06
3.85175e-06
1.53036e-05
2.58169e-06
2.58194e-06
2.58142e-06
2.58147e-06
2.58164e-06
2.5816e-06
2.58135e-06
2.58164e-06
2.58154e-06
2.58181e-06
2.58195e-06
2.58444e-06
2.64868e-06
3.90286e-06
1.51512e-05
2.57711e-06
2.5769e-06
2.57749e-06
2.57752e-06
2.57731e-06
2.57737e-06
2.57761e-06
2.57745e-06
2.57754e-06
2.57738e-06
2.57753e-06
2.57985e-06
2.64915e-06
3.95379e-06
1.50001e-05
2.57318e-06
2.57331e-06
2.57273e-06
2.57269e-06
2.5729e-06
2.57284e-06
2.57262e-06
2.57285e-06
2.57283e-06
2.57319e-06
2.57318e-06
2.5763e-06
2.65079e-06
4.00562e-06
1.48508e-05
2.56856e-06
2.5685e-06
2.56912e-06
2.56925e-06
2.569e-06
2.56909e-06
2.56931e-06
2.5692e-06
2.5692e-06
2.56895e-06
2.56931e-06
2.5721e-06
2.65172e-06
4.05722e-06
1.47029e-05
2.56498e-06
2.56497e-06
2.56435e-06
2.56425e-06
2.56446e-06
2.56439e-06
2.56418e-06
2.56435e-06
2.56445e-06
2.5649e-06
2.56472e-06
2.56857e-06
2.65408e-06
4.10969e-06
1.45568e-05
2.56041e-06
2.5605e-06
2.56113e-06
2.56133e-06
2.56107e-06
2.56117e-06
2.56139e-06
2.56135e-06
2.56122e-06
2.56088e-06
2.56147e-06
2.56479e-06
2.65549e-06
4.16187e-06
1.44122e-05
2.55704e-06
2.55688e-06
2.55626e-06
2.5561e-06
2.55631e-06
2.55625e-06
2.55604e-06
2.55614e-06
2.55635e-06
2.55691e-06
2.55656e-06
2.56124e-06
2.65855e-06
4.21494e-06
1.42694e-05
2.55266e-06
2.55289e-06
2.5535e-06
2.55376e-06
2.5535e-06
2.55359e-06
2.55383e-06
2.55385e-06
2.55359e-06
2.55315e-06
2.55397e-06
2.5579e-06
2.66045e-06
4.26761e-06
1.41281e-05
2.54931e-06
2.54902e-06
2.54842e-06
2.54822e-06
2.54842e-06
2.54839e-06
2.54818e-06
2.5482e-06
2.54853e-06
2.54922e-06
2.54871e-06
2.55429e-06
2.66418e-06
4.32126e-06
1.39886e-05
2.5453e-06
2.54562e-06
2.54619e-06
2.5465e-06
2.54625e-06
2.54632e-06
2.54655e-06
2.54665e-06
2.54629e-06
2.54571e-06
2.54674e-06
2.5514e-06
2.66658e-06
4.37436e-06
1.38506e-05
2.54175e-06
2.54139e-06
2.54085e-06
2.5406e-06
2.54079e-06
2.5408e-06
2.54061e-06
2.54055e-06
2.54095e-06
2.54179e-06
2.54118e-06
2.54773e-06
2.67099e-06
4.42858e-06
1.37146e-05
2.53833e-06
2.53868e-06
2.53917e-06
2.53953e-06
2.53929e-06
2.53932e-06
2.53952e-06
2.53969e-06
2.53929e-06
2.53855e-06
2.53975e-06
2.54527e-06
2.67388e-06
4.48206e-06
1.35801e-05
2.53432e-06
2.53399e-06
2.53352e-06
2.53323e-06
2.53342e-06
2.53348e-06
2.53333e-06
2.5332e-06
2.53361e-06
2.53464e-06
2.53397e-06
2.54154e-06
2.67899e-06
4.53685e-06
1.34474e-05
2.53174e-06
2.53202e-06
2.53241e-06
2.53282e-06
2.53256e-06
2.53255e-06
2.53271e-06
2.53295e-06
2.53255e-06
2.53164e-06
2.53297e-06
2.5395e-06
2.68234e-06
4.59068e-06
1.33164e-05
2.52702e-06
2.52679e-06
2.52645e-06
2.52609e-06
2.52631e-06
2.52641e-06
2.52634e-06
2.52614e-06
2.52652e-06
2.52774e-06
2.52705e-06
2.53571e-06
2.6882e-06
4.64607e-06
1.31872e-05
2.5255e-06
2.52564e-06
2.52589e-06
2.52635e-06
2.52606e-06
2.52601e-06
2.5261e-06
2.5264e-06
2.52603e-06
2.52494e-06
2.52639e-06
2.53407e-06
2.69196e-06
4.70024e-06
1.30596e-05
2.51984e-06
2.5198e-06
2.5196e-06
2.51919e-06
2.51946e-06
2.51961e-06
2.51961e-06
2.51935e-06
2.51967e-06
2.52109e-06
2.52041e-06
2.53023e-06
2.69861e-06
4.75622e-06
1.29339e-05
2.51955e-06
2.51949e-06
2.51959e-06
2.52009e-06
2.51974e-06
2.51964e-06
2.51967e-06
2.52002e-06
2.5197e-06
2.51845e-06
2.52e-06
2.52899e-06
2.70276e-06
4.81075e-06
1.28097e-05
2.51282e-06
2.51301e-06
2.51297e-06
2.51253e-06
2.51286e-06
2.51305e-06
2.51312e-06
2.51283e-06
2.51309e-06
2.51468e-06
2.51402e-06
2.52508e-06
2.71023e-06
4.86734e-06
1.26875e-05
2.51385e-06
2.51357e-06
2.51349e-06
2.51399e-06
2.51358e-06
2.51345e-06
2.51344e-06
2.51382e-06
2.51354e-06
2.51215e-06
2.51381e-06
2.52426e-06
2.71478e-06
4.92226e-06
1.25668e-05
2.506e-06
2.50642e-06
2.50656e-06
2.50612e-06
2.50652e-06
2.50675e-06
2.50684e-06
2.50654e-06
2.50675e-06
2.50849e-06
2.50785e-06
2.52024e-06
2.72306e-06
4.97947e-06
1.24481e-05
2.50833e-06
2.50786e-06
2.50758e-06
2.50805e-06
2.50758e-06
2.50739e-06
2.50737e-06
2.50778e-06
2.50752e-06
2.50603e-06
2.50782e-06
2.5199e-06
2.72805e-06
5.03485e-06
1.23308e-05
2.4994e-06
2.50002e-06
2.50035e-06
2.49994e-06
2.50041e-06
2.5007e-06
2.50079e-06
2.50046e-06
2.50064e-06
2.50251e-06
2.50187e-06
2.51568e-06
2.73707e-06
5.09267e-06
1.22156e-05
2.50295e-06
2.50231e-06
2.50183e-06
2.50226e-06
2.50172e-06
2.50146e-06
2.50147e-06
2.50191e-06
2.50167e-06
2.50006e-06
2.50202e-06
2.51591e-06
2.74263e-06
5.15045e-06
1.21018e-05
2.49304e-06
2.49383e-06
2.49435e-06
2.49398e-06
2.49454e-06
2.49489e-06
2.49494e-06
2.49457e-06
2.49473e-06
2.49673e-06
2.49607e-06
2.51137e-06
2.7523e-06
5.20679e-06
1.19899e-05
2.49768e-06
2.49689e-06
2.4962e-06
2.49661e-06
2.496e-06
2.49565e-06
2.49568e-06
2.49621e-06
2.49598e-06
2.49424e-06
2.49643e-06
2.51232e-06
2.75854e-06
5.26396e-06
1.18798e-05
2.48692e-06
2.48786e-06
2.48859e-06
2.48822e-06
2.48888e-06
2.4893e-06
2.48933e-06
2.48885e-06
2.489e-06
2.49116e-06
2.49044e-06
2.50731e-06
2.76875e-06
5.32335e-06
1.17711e-05
2.49249e-06
2.49157e-06
2.49066e-06
2.49109e-06
2.49042e-06
2.48996e-06
2.49e-06
2.49068e-06
2.49045e-06
2.48854e-06
2.49101e-06
2.5091e-06
2.77581e-06
5.37917e-06
1.16647e-05
2.48105e-06
2.48214e-06
2.48308e-06
2.48267e-06
2.48342e-06
2.48393e-06
2.48395e-06
2.4833e-06
2.48344e-06
2.48578e-06
2.48499e-06
2.50354e-06
2.78646e-06
5.44142e-06
1.15591e-05
2.48736e-06
2.48629e-06
2.48519e-06
2.48567e-06
2.48496e-06
2.48437e-06
2.48438e-06
2.4853e-06
2.48508e-06
2.48294e-06
2.48574e-06
2.50623e-06
2.79451e-06
5.49559e-06
1.14567e-05
2.47544e-06
2.4767e-06
2.47782e-06
2.47736e-06
2.47816e-06
2.47875e-06
2.47881e-06
2.4779e-06
2.47804e-06
2.4806e-06
2.47977e-06
2.50011e-06
2.80541e-06
5.56111e-06
1.13538e-05
2.48225e-06
2.48104e-06
2.47977e-06
2.4803e-06
2.4796e-06
2.47888e-06
2.47882e-06
2.48005e-06
2.47982e-06
2.47744e-06
2.48055e-06
2.50363e-06
2.81503e-06
5.6131e-06
1.12555e-05
2.47012e-06
2.47154e-06
2.4728e-06
2.47231e-06
2.47309e-06
2.47377e-06
2.47389e-06
2.47267e-06
2.47283e-06
2.47559e-06
2.47482e-06
2.49711e-06
2.82634e-06
5.68156e-06
1.11553e-05
2.47711e-06
2.47579e-06
2.4744e-06
2.47493e-06
2.47431e-06
2.47347e-06
2.47332e-06
2.47492e-06
2.47466e-06
2.47204e-06
2.47538e-06
2.50125e-06
2.83837e-06
5.7311e-06
1.10613e-05
2.46509e-06
2.46665e-06
2.46802e-06
2.46754e-06
2.4682e-06
2.46894e-06
2.46915e-06
2.4676e-06
2.46781e-06
2.47073e-06
2.4702e-06
2.49459e-06
2.84958e-06
5.80206e-06
1.09636e-05
2.47189e-06
2.47055e-06
2.46909e-06
2.46953e-06
2.46906e-06
2.46814e-06
2.4679e-06
2.46985e-06
2.46955e-06
2.46675e-06
2.47021e-06
2.49907e-06
2.86456e-06
5.85081e-06
1.08739e-05
2.46032e-06
2.46202e-06
2.46343e-06
2.46307e-06
2.46346e-06
2.46423e-06
2.46456e-06
2.46268e-06
2.46299e-06
2.46598e-06
2.46589e-06
2.49261e-06
2.87542e-06
5.9219e-06
1.07785e-05
2.46654e-06
2.46533e-06
2.46385e-06
2.46416e-06
2.46384e-06
2.46288e-06
2.46258e-06
2.46482e-06
2.46445e-06
2.46158e-06
2.46504e-06
2.49707e-06
2.8933e-06
5.97196e-06
1.06933e-05
2.45576e-06
2.45766e-06
2.45903e-06
2.45891e-06
2.45878e-06
2.45956e-06
2.46004e-06
2.45791e-06
2.45835e-06
2.46136e-06
2.46183e-06
2.49121e-06
2.9045e-06
6.04215e-06
1.06e-05
2.46103e-06
2.46018e-06
2.45873e-06
2.45892e-06
2.45858e-06
2.45765e-06
2.4574e-06
2.45974e-06
2.45932e-06
2.45651e-06
2.46001e-06
2.49526e-06
2.92409e-06
6.09303e-06
1.05197e-05
2.45134e-06
2.45359e-06
2.4548e-06
2.45511e-06
2.45406e-06
2.45483e-06
2.45554e-06
2.45325e-06
2.45384e-06
2.45691e-06
2.45796e-06
2.49044e-06
2.93743e-06
6.1631e-06
1.04281e-05
2.45535e-06
2.45521e-06
2.45381e-06
2.45404e-06
2.45326e-06
2.45243e-06
2.45239e-06
2.45458e-06
2.45415e-06
2.45162e-06
2.45527e-06
2.49366e-06
2.95678e-06
6.21581e-06
1.03529e-05
2.44697e-06
2.44985e-06
2.45074e-06
2.45179e-06
2.44917e-06
2.44998e-06
2.45104e-06
2.4486e-06
2.44939e-06
2.45271e-06
2.45426e-06
2.49033e-06
2.9742e-06
6.28686e-06
1.02627e-05
2.44956e-06
2.45058e-06
2.4492e-06
2.44991e-06
2.44783e-06
2.44726e-06
2.44764e-06
2.44927e-06
2.44896e-06
2.44721e-06
2.45105e-06
2.49238e-06
2.99213e-06
6.33725e-06
1.01932e-05
2.44251e-06
2.44648e-06
2.44689e-06
2.44915e-06
2.44401e-06
2.44497e-06
2.44659e-06
2.44383e-06
2.44488e-06
2.44885e-06
2.45088e-06
2.49083e-06
3.01405e-06
6.41404e-06
1.01039e-05
2.44371e-06
2.44648e-06
2.44506e-06
2.44696e-06
2.44228e-06
2.4422e-06
2.44327e-06
2.44375e-06
2.44381e-06
2.44384e-06
2.44756e-06
2.49161e-06
3.03091e-06
6.46027e-06
1.00406e-05
2.43783e-06
2.44353e-06
2.44333e-06
2.44748e-06
2.43853e-06
2.4399e-06
2.44234e-06
2.43875e-06
2.4402e-06
2.44559e-06
2.44814e-06
2.49168e-06
3.056e-06
6.54126e-06
9.95173e-06
2.43771e-06
2.44297e-06
2.4415e-06
2.4456e-06
2.4366e-06
2.4374e-06
2.43949e-06
2.43785e-06
2.43871e-06
2.44214e-06
2.44501e-06
2.49164e-06
3.0719e-06
6.59523e-06
9.8947e-06
2.43265e-06
2.44086e-06
2.44016e-06
2.44709e-06
2.43278e-06
2.435e-06
2.43857e-06
2.43306e-06
2.43523e-06
2.44364e-06
2.44636e-06
2.49233e-06
3.10087e-06
6.65448e-06
9.80893e-06
2.43127e-06
2.43987e-06
2.43853e-06
2.44602e-06
2.4308e-06
2.43301e-06
2.43651e-06
2.4313e-06
2.43358e-06
2.44249e-06
2.44368e-06
2.49257e-06
3.1126e-06
6.71945e-06
9.74386e-06
2.42647e-06
2.43812e-06
2.4374e-06
2.4481e-06
2.42683e-06
2.43055e-06
2.43563e-06
2.4263e-06
2.42982e-06
2.4441e-06
2.44569e-06
2.49233e-06
3.15378e-06
6.82026e-06
9.66865e-06
2.42369e-06
2.43662e-06
2.43603e-06
2.44804e-06
2.4248e-06
2.42918e-06
2.43454e-06
2.42361e-06
2.42812e-06
2.44536e-06
2.44386e-06
2.49347e-06
3.13911e-06
6.91354e-06
9.88626e-06
2.41707e-06
2.43063e-06
2.43117e-06
2.44368e-06
2.41801e-06
2.42278e-06
2.42915e-06
2.4162e-06
2.42026e-06
2.43884e-06
2.44408e-06
2.49472e-06
3.38301e-06
9.20343e-06
2.13565e-05
2.40523e-06
2.42216e-06
2.42319e-06
2.43864e-06
2.4097e-06
2.41616e-06
2.42242e-06
2.40627e-06
2.41487e-06
2.4406e-06
2.43317e-06
2.50931e-06
3.13695e-06
6.39601e-06
2.72415e-05
2.39207e-06
2.40998e-06
2.41389e-06
2.42988e-06
2.39699e-06
2.40422e-06
2.41179e-06
2.39033e-06
2.39724e-06
2.42958e-06
2.429e-06
2.50393e-06
3.20388e-06
9.26945e-06
3.28711e-05
2.37919e-06
2.40115e-06
2.40658e-06
2.42523e-06
2.38977e-06
2.39915e-06
2.40695e-06
2.38205e-06
2.39569e-06
2.43315e-06
2.42867e-06
2.51449e-06
3.26171e-06
1.30831e-05
3.79349e-05
2.36488e-06
2.38822e-06
2.39779e-06
2.41678e-06
2.37767e-06
2.38806e-06
2.39666e-06
2.36389e-06
2.37475e-06
2.42569e-06
2.41178e-06
2.50614e-06
3.51613e-06
1.55685e-05
4.00374e-05
2.34964e-06
2.37763e-06
2.38987e-06
2.41093e-06
2.37039e-06
2.38346e-06
2.39288e-06
2.35642e-06
2.37565e-06
2.42771e-06
2.42775e-06
2.49444e-06
3.95386e-06
1.93003e-05
4.382e-05
2.33331e-06
2.3635e-06
2.38122e-06
2.40219e-06
2.35892e-06
2.37341e-06
2.38266e-06
2.33632e-06
2.35277e-06
2.42678e-06
2.39853e-06
2.55647e-06
5.33632e-06
2.5299e-05
4.85253e-05
2.3145e-06
2.34975e-06
2.3713e-06
2.39348e-06
2.35042e-06
2.36824e-06
2.37865e-06
2.32835e-06
2.3538e-06
2.42201e-06
2.41741e-06
2.35009e-06
7.69314e-06
3.29751e-05
5.37902e-05
2.29521e-06
2.33399e-06
2.36208e-06
2.38367e-06
2.33922e-06
2.35899e-06
2.36819e-06
2.30738e-06
2.33174e-06
2.43136e-06
2.40085e-06
3.0626e-06
1.21017e-05
4.06096e-05
5.94129e-05
2.27185e-06
2.31587e-06
2.34881e-06
2.37071e-06
2.32853e-06
2.35222e-06
2.36238e-06
2.29696e-06
2.32948e-06
2.41555e-06
2.40871e-06
3.18066e-06
1.805e-05
4.73144e-05
6.52647e-05
2.24889e-06
2.298e-06
2.33806e-06
2.359e-06
2.31685e-06
2.34305e-06
2.35168e-06
2.27677e-06
2.31072e-06
2.43591e-06
2.4254e-06
4.94121e-06
2.58195e-05
5.41112e-05
7.1049e-05
2.22036e-06
2.27469e-06
2.32029e-06
2.34078e-06
2.30326e-06
2.33384e-06
2.34218e-06
2.26158e-06
2.30265e-06
2.41112e-06
2.58775e-06
7.73707e-06
3.44135e-05
6.03835e-05
7.64058e-05
2.19324e-06
2.25408e-06
2.30695e-06
2.32639e-06
2.29009e-06
2.32369e-06
2.33159e-06
2.24409e-06
2.2874e-06
2.44298e-06
2.69333e-06
1.28421e-05
4.23291e-05
6.57907e-05
8.14361e-05
2.15954e-06
2.22532e-06
2.28402e-06
2.30241e-06
2.27325e-06
2.31147e-06
2.31656e-06
2.22179e-06
2.27419e-06
2.42183e-06
3.61798e-06
1.89451e-05
4.88518e-05
7.08098e-05
8.6513e-05
2.12783e-06
2.20108e-06
2.26694e-06
2.28465e-06
2.25733e-06
2.29897e-06
2.30657e-06
2.20851e-06
2.25983e-06
2.47205e-06
4.98738e-06
2.5458e-05
5.50127e-05
7.63026e-05
9.13171e-05
2.08981e-06
2.16749e-06
2.23899e-06
2.2551e-06
2.23735e-06
2.28378e-06
2.28486e-06
2.17764e-06
2.24618e-06
2.59569e-06
7.30852e-06
3.2065e-05
6.02249e-05
8.07806e-05
9.53349e-05
2.05329e-06
2.13873e-06
2.2172e-06
2.23356e-06
2.21758e-06
2.26745e-06
2.27531e-06
2.16885e-06
2.22913e-06
2.68785e-06
1.03477e-05
3.82826e-05
6.4881e-05
8.53475e-05
9.91697e-05
2.01239e-06
2.10167e-06
2.18498e-06
2.19904e-06
2.19495e-06
2.24995e-06
2.24688e-06
2.12997e-06
2.23089e-06
3.11523e-06
1.41258e-05
4.38154e-05
6.91391e-05
8.89094e-05
0.000102581
1.97133e-06
2.06794e-06
2.15799e-06
2.17393e-06
2.17078e-06
2.2283e-06
2.23637e-06
2.12459e-06
2.20308e-06
3.63589e-06
1.83008e-05
4.87547e-05
7.29777e-05
9.21243e-05
0.000105726
1.92906e-06
2.02903e-06
2.12247e-06
2.13506e-06
2.14598e-06
2.20965e-06
2.20291e-06
2.07984e-06
2.26977e-06
4.47755e-06
2.29344e-05
5.33551e-05
7.6932e-05
9.54711e-05
0.000108912
1.88427e-06
1.99053e-06
2.09051e-06
2.10738e-06
2.11765e-06
2.18142e-06
2.18871e-06
2.07693e-06
2.29587e-06
5.82538e-06
2.79409e-05
5.79265e-05
8.10602e-05
9.9333e-05
0.00011241
1.84193e-06
1.95123e-06
2.05258e-06
2.06462e-06
2.09089e-06
2.16307e-06
2.15384e-06
2.02964e-06
2.43384e-06
7.69306e-06
3.3382e-05
6.2407e-05
8.52786e-05
0.000103467
0.000116198
1.79458e-06
1.90885e-06
2.01668e-06
2.03591e-06
2.05949e-06
2.12754e-06
2.13204e-06
2.03394e-06
2.5693e-06
1.05232e-05
3.91737e-05
6.70538e-05
8.95327e-05
0.00010723
0.000120078
1.75309e-06
1.8701e-06
1.97681e-06
1.98956e-06
2.03062e-06
2.11069e-06
2.10104e-06
1.97836e-06
2.95435e-06
1.43667e-05
4.51666e-05
7.19647e-05
9.39605e-05
0.000111387
0.0001243
1.70463e-06
1.8254e-06
1.93893e-06
1.96148e-06
1.99791e-06
2.0681e-06
2.06741e-06
2.03327e-06
3.58304e-06
1.95964e-05
5.12978e-05
7.7279e-05
9.87329e-05
0.000115717
0.00012871
1.66449e-06
1.78742e-06
1.89684e-06
1.91191e-06
1.96665e-06
2.05336e-06
2.04572e-06
1.99318e-06
4.80966e-06
2.60132e-05
5.7714e-05
8.30552e-05
0.000103989
0.000120656
0.000133399
1.61643e-06
1.74236e-06
1.85959e-06
1.88562e-06
1.93441e-06
2.00463e-06
2.0001e-06
2.34426e-06
7.2025e-06
3.35485e-05
6.41742e-05
8.911e-05
0.000109603
0.000125972
0.000138567
1.57808e-06
1.70493e-06
1.81455e-06
1.83371e-06
1.90079e-06
1.99301e-06
1.9947e-06
2.20231e-06
1.1107e-05
4.15871e-05
7.09197e-05
9.53846e-05
0.000115458
0.000131522
0.000143931
1.5317e-06
1.66136e-06
1.78042e-06
1.80929e-06
1.87009e-06
1.93731e-06
1.93321e-06
3.17251e-06
1.68316e-05
4.95191e-05
7.78159e-05
0.00010174
0.000121395
0.00013715
0.000149357
1.49566e-06
1.62425e-06
1.73194e-06
1.75689e-06
1.8348e-06
1.93425e-06
2.03023e-06
3.89487e-06
2.40056e-05
5.7235e-05
8.47028e-05
0.00010798
0.000127254
0.000142721
0.000154726
1.45209e-06
1.58369e-06
1.70268e-06
1.73305e-06
1.80593e-06
1.86692e-06
1.97846e-06
6.30791e-06
3.2167e-05
6.46485e-05
9.15936e-05
0.000114559
0.000133104
0.000148178
0.000159943
1.41884e-06
1.54679e-06
1.65135e-06
1.68322e-06
1.76992e-06
1.88284e-06
2.49205e-06
1.01323e-05
4.07314e-05
7.19229e-05
9.83532e-05
0.000120678
0.000138805
0.000153487
0.000164971
1.37911e-06
1.5107e-06
1.62754e-06
1.65739e-06
1.74329e-06
1.81326e-06
2.53559e-06
1.56679e-05
4.90955e-05
7.9115e-05
0.00010494
0.000126837
0.000144382
0.000158662
0.000169846
1.34883e-06
1.47392e-06
1.57539e-06
1.61426e-06
1.70812e-06
1.86864e-06
3.88965e-06
2.27452e-05
5.70138e-05
8.60898e-05
0.000111155
0.000132247
0.000149602
0.000163594
0.000174546
1.31384e-06
1.44407e-06
1.55678e-06
1.58365e-06
1.68283e-06
1.89559e-06
5.62362e-06
3.07364e-05
6.45508e-05
9.28604e-05
0.000117206
0.000137728
0.000154687
0.000168395
0.000179158
1.28621e-06
1.40701e-06
1.50642e-06
1.5506e-06
1.65514e-06
2.14789e-06
9.06889e-06
3.91912e-05
7.17384e-05
9.94074e-05
0.000123106
0.000143104
0.000159672
0.000173094
0.000183641
1.25648e-06
1.38527e-06
1.49288e-06
1.51469e-06
1.64025e-06
2.4334e-06
1.40087e-05
4.74833e-05
7.87278e-05
0.000105711
0.000128806
0.000148345
0.00016457
0.000177751
0.000188137
1.23069e-06
1.34725e-06
1.44573e-06
1.49232e-06
1.6005e-06
3.18106e-06
2.0467e-05
5.53723e-05
8.56165e-05
0.000111961
0.000134592
0.000153581
0.000169438
0.000182385
0.000192658
1.20582e-06
1.33447e-06
1.43777e-06
1.45322e-06
1.76512e-06
4.73761e-06
2.79503e-05
6.29236e-05
9.23716e-05
0.000118047
0.0001401
0.000158697
0.000174222
0.000186925
0.000197016
1.1812e-06
1.29528e-06
1.39345e-06
1.44296e-06
1.68623e-06
7.41236e-06
3.61267e-05
7.01337e-05
9.89372e-05
0.000123952
0.000145427
0.000163677
0.000178911
0.000191391
0.000201313
1.15893e-06
1.28951e-06
1.39078e-06
1.40378e-06
2.29054e-06
1.15558e-05
4.4471e-05
7.71725e-05
0.000105359
0.00012978
0.00015077
0.000168614
0.000183545
0.000195801
0.000205567
1.13605e-06
1.25056e-06
1.34849e-06
1.41297e-06
2.36173e-06
1.72063e-05
5.26155e-05
8.41488e-05
0.000111679
0.000135541
0.000156064
0.000173525
0.000188164
0.000200207
0.000209814
1.11224e-06
1.24644e-06
1.34901e-06
1.4672e-06
3.73938e-06
2.43523e-05
6.0465e-05
9.11042e-05
0.000117966
0.00014128
0.000161349
0.00017844
0.00019279
0.000204617
0.000214072
1.09332e-06
1.21084e-06
1.30973e-06
1.53925e-06
5.5139e-06
3.24979e-05
6.81019e-05
9.80197e-05
0.000124226
0.000147004
0.00016663
0.000183363
0.000197433
0.000209049
0.000218349
1.06387e-06
1.20195e-06
1.30849e-06
1.53098e-06
9.18695e-06
4.13029e-05
7.55946e-05
0.000104908
0.000130497
0.000152744
0.000171936
0.000188315
0.000202105
0.000213508
0.000222649
1.05124e-06
1.17166e-06
1.27818e-06
2.43983e-06
1.4472e-05
5.02181e-05
8.31247e-05
0.000111771
0.000136769
0.000158516
0.000177263
0.000193287
0.000206797
0.000217986
0.000226967
1.01507e-06
1.15597e-06
1.27557e-06
2.6431e-06
2.16333e-05
5.88787e-05
9.07018e-05
0.000118642
0.000143052
0.000164282
0.000182612
0.000198285
0.000211513
0.000222486
0.000231302
1.00948e-06
1.12897e-06
1.35565e-06
4.81111e-06
3.02858e-05
6.73754e-05
9.83244e-05
0.000125528
0.000149325
0.000170029
0.000187958
0.000203293
0.000216246
0.000227003
0.000235654
9.68195e-07
1.10971e-06
1.41944e-06
7.82883e-06
3.99515e-05
7.56662e-05
0.000105914
0.000132414
0.000155612
0.000175825
0.000193323
0.000208314
0.000220992
0.000231534
0.000240021
9.7052e-07
1.09711e-06
1.95249e-06
1.33493e-05
4.98941e-05
8.39802e-05
0.000113479
0.0001393
0.000161912
0.00018163
0.000198708
0.000213356
0.000225759
0.000236089
0.000244413
9.25306e-07
1.12089e-06
2.72592e-06
2.11166e-05
5.95965e-05
9.23424e-05
0.000121024
0.000146169
0.000168201
0.000187429
0.000204096
0.000218406
0.000230539
0.000240659
0.000248823
9.393e-07
1.19645e-06
4.67809e-06
3.06585e-05
6.90197e-05
0.000100723
0.000128572
0.000153039
0.000174498
0.000193239
0.000209497
0.000223472
0.000235336
0.000245237
0.000253252
8.90514e-07
1.2172e-06
8.01801e-06
4.15382e-05
7.82031e-05
0.000109046
0.000136078
0.000159854
0.000180734
0.000199004
0.00021487
0.00022852
0.000240119
0.000249803
0.000257668
9.27903e-07
1.95298e-06
1.43618e-05
5.26229e-05
8.73761e-05
0.000117326
0.000143586
0.000166713
0.000187071
0.000204818
0.000220268
0.00023358
0.000244905
0.000254362
0.000262065
9.81814e-07
2.87664e-06
2.35114e-05
6.34314e-05
9.65745e-05
0.000125535
0.000151005
0.000173472
0.000193263
0.000210538
0.000225589
0.000238574
0.000249633
0.000258857
0.000266388
1.09389e-06
5.58956e-06
3.47744e-05
7.38119e-05
0.000105739
0.000133725
0.000158409
0.000180207
0.000199406
0.00021624
0.000230892
0.000243525
0.000254276
0.000263264
0.000270611
1.31565e-06
1.03672e-05
4.73748e-05
8.40121e-05
0.000114794
0.000141787
0.000165649
0.000186759
0.000205383
0.000221755
0.000236018
0.000248327
0.000258824
0.000267542
0.00027468
3.13662e-06
1.93494e-05
5.9795e-05
9.40997e-05
0.000123709
0.000149768
0.000172853
0.000193309
0.000211382
0.000227274
0.000241141
0.000253125
0.000263251
0.000271674
0.000278575
5.72471e-06
3.17309e-05
7.18314e-05
0.00010419
0.000132505
0.000157552
0.000179798
0.000199552
0.000217046
0.000232441
0.00024588
0.000257483
0.000267346
0.000275519
0.000282203
1.22981e-05
4.62697e-05
8.32968e-05
0.000114035
0.000141112
0.000165201
0.000186682
0.000205816
0.000222741
0.000237659
0.000250673
0.000261867
0.000271343
0.000279196
0.000285622
2.43863e-05
6.12719e-05
9.47223e-05
0.000123724
0.0001495
0.000172552
0.000193178
0.000211583
0.000227957
0.000242427
0.000255167
0.000265918
0.000275045
0.000282604
0.000288785
4.465e-05
7.55338e-05
0.000105855
0.000133128
0.000157684
0.000179802
0.00019967
0.000217437
0.00023333
0.000247345
0.000259481
0.000269803
0.000278574
0.000285826
0.000291749
6.74019e-05
9.01181e-05
0.000117097
0.000142522
0.000165762
0.000186838
0.000205865
0.000222971
0.000238248
0.000251735
0.000263438
0.000273391
0.00028183
0.000288804
0.000294486
8.88516e-05
0.000104726
0.000127926
0.000151297
0.000173169
0.000193227
0.000211446
0.000227994
0.000242803
0.00025603
0.000267103
0.000276686
0.00028481
0.000291529
0.000296992
0.000108183
0.000119491
0.000139001
0.000160255
0.000180791
0.000199885
0.000217369
0.000233434
0.000247969
0.000260225
0.000270732
0.000279874
0.000287643
0.000294088
0.000299327
0.000125044
0.000133506
0.000149752
0.000168789
0.000187865
0.000205934
0.000222645
0.000237993
0.000251902
0.000263626
0.000273831
0.000282686
0.00029019
0.000296415
0.000301469
0.000140127
0.000146778
0.000160337
0.000177196
0.000194692
0.000211538
0.000227651
0.000242385
0.00025574
0.000266914
0.000276764
0.000285311
0.000292553
0.000298571
0.000303457
0.000153327
0.000158742
0.000170149
0.000185043
0.000201122
0.000217069
0.000232483
0.000246623
0.000259149
0.000269972
0.000279489
0.000287749
0.000294749
0.000300581
0.000305318
0.000165251
0.000169858
0.000179729
0.000193087
0.000207967
0.000222943
0.000237549
0.000251155
0.00026266
0.000272981
0.000282116
0.000290076
0.000296838
0.000302492
0.000307097
0.000175964
0.000179937
0.000188477
0.000200234
0.000213539
0.000227803
0.000241547
0.000254344
0.000265599
0.000275647
0.000284523
0.000292254
0.000298821
0.000304329
0.000308826
0.000185524
0.000188978
0.000196453
0.000207006
0.000219419
0.000232963
0.000246416
0.000257847
0.000268518
0.000278196
0.000286805
0.00029433
0.000300736
0.000306127
0.000310543
0.000194292
0.000197435
0.000204246
0.000213961
0.000225458
0.000237982
0.000250545
0.00026132
0.000271454
0.00028074
0.000289067
0.000296389
0.000302649
0.000307943
0.0003123
0.000202271
0.000205052
0.000211024
0.000219495
0.000230604
0.000242265
0.000253813
0.000264372
0.000274209
0.000283218
0.00029132
0.000298472
0.000304611
0.00030983
0.000314149
0.000209576
0.000212068
0.000217449
0.000225258
0.000235356
0.000246126
0.000256967
0.000267272
0.000276874
0.000285673
0.000293601
0.00030062
0.000306669
0.000311837
0.000316139
0.00021633
0.000218627
0.000223629
0.000231016
0.000240449
0.000251041
0.000260682
0.000270402
0.000279659
0.000288224
0.000295986
0.000302891
0.000308871
0.000314008
0.000318311
0.000223042
0.000225224
0.000229934
0.000236776
0.000245448
0.000255322
0.000264407
0.000273668
0.000282594
0.000290928
0.000298532
0.000305335
0.00031126
0.000316379
0.000320693
0.00022919
0.000231123
0.000235246
0.000241993
0.000250051
0.000258986
0.000268004
0.000277002
0.000285674
0.000293807
0.000301268
0.000307979
0.00031386
0.000318967
0.000323298
0.000235504
0.000237244
0.00024106
0.000247253
0.000254757
0.000263104
0.000271803
0.000280507
0.000288933
0.000296878
0.000304206
0.000310833
0.000316673
0.000321768
0.000326113
0.000240452
0.000242446
0.00024668
0.000252479
0.000259521
0.000267411
0.000275762
0.000284176
0.000292368
0.000300135
0.000307336
0.000313879
0.000319677
0.000324753
0.0003291
0.000246647
0.000248639
0.000252532
0.00025794
0.000264639
0.000272341
0.000280064
0.000288082
0.000296
0.000303573
0.000310637
0.000317089
0.000322833
0.000327874
0.000332205
0.000252892
0.000254825
0.000258379
0.000263402
0.000269656
0.000276805
0.000284349
0.000292104
0.000299783
0.000307162
0.00031408
0.000320423
0.000326094
0.000331077
0.000335365
0.000259134
0.00026084
0.000264152
0.000268864
0.000274749
0.000281498
0.000288764
0.000296248
0.000303685
0.000310862
0.000317616
0.000323829
0.000329404
0.0003343
0.000338513
0.00026537
0.000266856
0.000269935
0.000274366
0.000279927
0.000286338
0.000293288
0.000300482
0.000307663
0.00031462
0.000321189
0.000327247
0.000332694
0.000337471
0.000341578
0.000271448
0.0002728
0.000275669
0.000279835
0.000285093
0.000291183
0.000297822
0.000304725
0.000311641
0.000318363
0.000324724
0.0003306
0.000335889
0.000340515
0.000344482
0.000277411
0.00027867
0.000281363
0.000285294
0.000290274
0.000296067