/*--------------------------------*- C++ -*----------------------------------*\
  =========                 |
  \\      /  F ield         | OpenFOAM: The Open Source CFD Toolbox
   \\    /   O peration     | Website:  https://openfoam.org
    \\  /    A nd           | Version:  7
     \\/     M anipulation  |
\*---------------------------------------------------------------------------*/
FoamFile
{
    version     2.0;
    format      ascii;
    class       volScalarField;
    location    "100";
    object      p;
}
// * * * * * * * * * * * * * * * * * * * * * * * * * * * * * * * * * * * * * //

dimensions      [0 2 -2 0 0 0 0];

internalField   nonuniform List<scalar> 
32100
(
0.225319
0.225324
0.225335
0.225352
0.225375
0.225406
0.225445
0.225494
0.225555
0.225634
0.225738
0.225878
0.226149
0.226743
0.225484
0.225315
0.22532
0.22533
0.225347
0.22537
0.225401
0.225439
0.225486
0.225546
0.225621
0.225722
0.22584
0.225927
0.226595
0.225322
0.225305
0.22531
0.22532
0.225337
0.225359
0.225388
0.225424
0.225469
0.225525
0.22559
0.225673
0.225784
0.225693
0.226332
0.225317
0.22529
0.225295
0.225305
0.22532
0.225341
0.225368
0.225402
0.225443
0.225492
0.225547
0.225604
0.225731
0.225548
0.226112
0.22538
0.22527
0.225275
0.225284
0.225298
0.225318
0.225343
0.225373
0.225409
0.225453
0.225501
0.225531
0.22568
0.225467
0.225956
0.225401
0.225246
0.22525
0.225259
0.225272
0.22529
0.225313
0.22534
0.225372
0.225409
0.225456
0.225461
0.225622
0.225402
0.225825
0.225378
0.225218
0.225222
0.22523
0.225242
0.225258
0.225278
0.225303
0.225331
0.22536
0.225408
0.225392
0.225557
0.225335
0.225702
0.225339
0.225187
0.22519
0.225197
0.225208
0.225222
0.22524
0.225262
0.225287
0.225309
0.225358
0.225325
0.225489
0.225271
0.22559
0.225298
0.225151
0.225154
0.225161
0.225171
0.225184
0.225199
0.225218
0.225241
0.225255
0.225306
0.225259
0.225421
0.225212
0.225489
0.225256
0.225113
0.225116
0.225122
0.225131
0.225142
0.225156
0.225171
0.225193
0.2252
0.225253
0.225195
0.225354
0.225157
0.225397
0.225209
0.225073
0.225075
0.22508
0.225088
0.225098
0.22511
0.225123
0.225143
0.225144
0.225199
0.225133
0.225286
0.225103
0.225311
0.225159
0.22503
0.225032
0.225036
0.225043
0.225051
0.225062
0.225072
0.225092
0.225087
0.225144
0.225072
0.225218
0.225049
0.225229
0.225107
0.224985
0.224986
0.22499
0.224995
0.225003
0.225013
0.22502
0.225039
0.225029
0.225087
0.225012
0.225151
0.224995
0.225151
0.225055
0.224937
0.224939
0.224942
0.224947
0.224953
0.224962
0.224967
0.224987
0.224971
0.225031
0.224953
0.225085
0.224941
0.225076
0.225001
0.224889
0.22489
0.224893
0.224898
0.224903
0.224911
0.224913
0.224933
0.224914
0.224974
0.224895
0.225019
0.224888
0.225004
0.224947
0.224839
0.22484
0.224843
0.224847
0.224851
0.224858
0.224859
0.224879
0.224856
0.224916
0.224838
0.224954
0.224835
0.224934
0.224892
0.224788
0.224789
0.224791
0.224795
0.224797
0.224805
0.224803
0.224825
0.224798
0.224858
0.224781
0.22489
0.224781
0.224866
0.224836
0.224736
0.224737
0.224739
0.224742
0.224743
0.224751
0.224747
0.224769
0.22474
0.224799
0.224723
0.224825
0.224727
0.224799
0.224781
0.224683
0.224684
0.224685
0.224688
0.224689
0.224696
0.22469
0.224714
0.224683
0.22474
0.224667
0.224761
0.224673
0.224734
0.224725
0.22463
0.224631
0.224631
0.224634
0.224634
0.224642
0.224634
0.224658
0.224625
0.224682
0.224611
0.224698
0.224619
0.22467
0.22467
0.224575
0.224576
0.224577
0.224579
0.224579
0.224587
0.224577
0.224602
0.224568
0.224624
0.224555
0.224636
0.224565
0.224606
0.224614
0.224521
0.224522
0.224522
0.224525
0.224523
0.224532
0.224521
0.224545
0.224511
0.224565
0.2245
0.224574
0.22451
0.224543
0.224557
0.224466
0.224466
0.224466
0.224469
0.224467
0.224476
0.224464
0.224489
0.224454
0.224507
0.224444
0.224512
0.224455
0.224481
0.224501
0.22441
0.224411
0.224411
0.224413
0.224411
0.22442
0.224407
0.224432
0.224397
0.224448
0.224388
0.224451
0.2244
0.22442
0.224445
0.224355
0.224355
0.224355
0.224357
0.224354
0.224363
0.22435
0.224375
0.22434
0.224389
0.224332
0.22439
0.224345
0.224359
0.224388
0.224299
0.2243
0.224299
0.224301
0.224297
0.224307
0.224292
0.224318
0.224283
0.22433
0.224276
0.224329
0.22429
0.224298
0.224332
0.224243
0.224244
0.224243
0.224245
0.224241
0.224251
0.224235
0.224261
0.224226
0.224271
0.22422
0.224269
0.224235
0.224238
0.224276
0.224187
0.224187
0.224186
0.224189
0.224184
0.224194
0.224179
0.224204
0.22417
0.224212
0.224165
0.224209
0.22418
0.224179
0.22422
0.22413
0.224131
0.22413
0.224133
0.224127
0.224138
0.224122
0.224146
0.224113
0.224154
0.224109
0.224149
0.224124
0.22412
0.224163
0.224074
0.224074
0.224073
0.224076
0.22407
0.224081
0.224065
0.224089
0.224057
0.224096
0.224054
0.22409
0.224069
0.22406
0.224107
0.224017
0.224018
0.224016
0.22402
0.224013
0.224024
0.224008
0.224032
0.224
0.224037
0.223998
0.22403
0.224013
0.224001
0.22405
0.22396
0.223961
0.223959
0.223963
0.223957
0.223968
0.223951
0.223974
0.223944
0.223979
0.223943
0.223971
0.223958
0.223943
0.223993
0.223904
0.223904
0.223902
0.223907
0.2239
0.223911
0.223894
0.223917
0.223887
0.223921
0.223887
0.223912
0.223902
0.223884
0.223937
0.223847
0.223848
0.223846
0.22385
0.223843
0.223854
0.223837
0.22386
0.223831
0.223863
0.223831
0.223853
0.223846
0.223826
0.22388
0.223791
0.223791
0.223789
0.223793
0.223786
0.223797
0.22378
0.223802
0.223775
0.223804
0.223775
0.223795
0.22379
0.223768
0.223823
0.223734
0.223735
0.223732
0.223737
0.223729
0.223741
0.223724
0.223745
0.223718
0.223746
0.22372
0.223737
0.223735
0.223711
0.223767
0.223677
0.223678
0.223675
0.22368
0.223672
0.223684
0.223667
0.223688
0.223662
0.223689
0.223664
0.223678
0.223679
0.223653
0.223711
0.223621
0.223622
0.223619
0.223623
0.223615
0.223627
0.223611
0.223631
0.223606
0.223631
0.223608
0.22362
0.223623
0.223596
0.223654
0.223564
0.223565
0.223562
0.223567
0.223559
0.22357
0.223554
0.223574
0.22355
0.223573
0.223553
0.223563
0.223568
0.223538
0.223597
0.223507
0.223508
0.223505
0.22351
0.223502
0.223514
0.223498
0.223517
0.223494
0.223516
0.223497
0.223505
0.223512
0.223481
0.223541
0.22345
0.223452
0.223449
0.223454
0.223445
0.223457
0.223441
0.22346
0.223438
0.223458
0.223441
0.223447
0.223456
0.223424
0.223484
0.223393
0.223395
0.223392
0.223397
0.223389
0.2234
0.223385
0.223403
0.223382
0.223401
0.223386
0.223389
0.2234
0.223367
0.223427
0.223337
0.223338
0.223335
0.22334
0.223332
0.223343
0.223328
0.223345
0.223326
0.223343
0.22333
0.223332
0.223344
0.22331
0.223371
0.22328
0.223282
0.223279
0.223284
0.223276
0.223286
0.223272
0.223288
0.22327
0.223286
0.223274
0.223275
0.223288
0.223253
0.223314
0.223224
0.223225
0.223222
0.223227
0.223219
0.22323
0.223216
0.223231
0.223214
0.223229
0.223219
0.223218
0.223232
0.223197
0.223258
0.223167
0.223169
0.223166
0.223171
0.223163
0.223173
0.22316
0.223175
0.223158
0.223172
0.223163
0.223161
0.223176
0.22314
0.223201
0.223111
0.223112
0.223109
0.223114
0.223106
0.223116
0.223103
0.223118
0.223103
0.223115
0.223107
0.223104
0.223121
0.223084
0.223145
0.223054
0.223056
0.223053
0.223058
0.22305
0.22306
0.223047
0.223061
0.223047
0.223058
0.223052
0.223047
0.223065
0.223027
0.223088
0.222998
0.222999
0.222996
0.223001
0.222994
0.223003
0.222991
0.223004
0.222991
0.223001
0.222996
0.22299
0.223009
0.222971
0.223032
0.222941
0.222943
0.22294
0.222945
0.222937
0.222947
0.222935
0.222947
0.222935
0.222944
0.222941
0.222933
0.222953
0.222915
0.222975
0.222885
0.222886
0.222883
0.222888
0.222881
0.22289
0.222879
0.222891
0.222879
0.222887
0.222885
0.222877
0.222897
0.222859
0.222919
0.222828
0.22283
0.222826
0.222832
0.222825
0.222834
0.222823
0.222834
0.222824
0.22283
0.222829
0.22282
0.222842
0.222803
0.222863
0.222771
0.222773
0.22277
0.222775
0.222768
0.222777
0.222767
0.222777
0.222768
0.222774
0.222774
0.222764
0.222786
0.222747
0.222806
0.222715
0.222716
0.222713
0.222718
0.222712
0.22272
0.222711
0.222721
0.222712
0.222717
0.222718
0.222707
0.22273
0.222691
0.22275
0.222658
0.22266
0.222657
0.222662
0.222655
0.222664
0.222655
0.222664
0.222656
0.222661
0.222663
0.222651
0.222675
0.222636
0.222694
0.222601
0.222603
0.2226
0.222605
0.222599
0.222607
0.222598
0.222608
0.222601
0.222604
0.222607
0.222595
0.222619
0.22258
0.222638
0.222544
0.222546
0.222543
0.222548
0.222542
0.22255
0.222542
0.222551
0.222545
0.222548
0.222552
0.222539
0.222563
0.222525
0.222582
0.222487
0.222489
0.222486
0.222491
0.222486
0.222493
0.222486
0.222494
0.222489
0.222491
0.222496
0.222483
0.222508
0.222469
0.222526
0.22243
0.222432
0.22243
0.222434
0.222429
0.222437
0.22243
0.222438
0.222433
0.222435
0.222441
0.222427
0.222453
0.222414
0.22247
0.222373
0.222375
0.222372
0.222377
0.222372
0.22238
0.222373
0.222381
0.222377
0.222379
0.222385
0.222371
0.222397
0.222359
0.222415
0.222316
0.222318
0.222315
0.22232
0.222315
0.222322
0.222317
0.222324
0.222321
0.222322
0.22233
0.222316
0.222342
0.222304
0.22236
0.222258
0.22226
0.222258
0.222262
0.222258
0.222265
0.22226
0.222267
0.222265
0.222266
0.222275
0.22226
0.222287
0.22225
0.222304
0.2222
0.222202
0.2222
0.222205
0.222201
0.222208
0.222203
0.22221
0.222209
0.22221
0.222219
0.222205
0.222232
0.222195
0.22225
0.222142
0.222144
0.222142
0.222147
0.222143
0.22215
0.222146
0.222153
0.222153
0.222153
0.222164
0.22215
0.222177
0.222141
0.222195
0.222084
0.222085
0.222084
0.222088
0.222085
0.222092
0.222089
0.222096
0.222097
0.222097
0.222108
0.222094
0.222123
0.222087
0.222141
0.222025
0.222027
0.222025
0.22203
0.222027
0.222034
0.222032
0.222038
0.22204
0.22204
0.222053
0.222039
0.222068
0.222033
0.222087
0.221966
0.221967
0.221966
0.221971
0.221968
0.221975
0.221974
0.22198
0.221983
0.221984
0.221997
0.221984
0.222014
0.22198
0.222034
0.221906
0.221908
0.221906
0.221911
0.221909
0.221916
0.221915
0.221922
0.221926
0.221927
0.221941
0.221929
0.22196
0.221927
0.221981
0.221846
0.221848
0.221846
0.221851
0.221849
0.221856
0.221856
0.221863
0.221868
0.221869
0.221885
0.221874
0.221906
0.221875
0.22193
0.221785
0.221787
0.221786
0.22179
0.221789
0.221796
0.221797
0.221803
0.22181
0.221811
0.221829
0.221819
0.221853
0.221823
0.221879
0.221724
0.221726
0.221725
0.221729
0.221728
0.221735
0.221736
0.221743
0.221751
0.221753
0.221772
0.221764
0.2218
0.221771
0.22183
0.221662
0.221664
0.221663
0.221668
0.221667
0.221673
0.221675
0.221682
0.221691
0.221694
0.221715
0.221708
0.221747
0.221721
0.221783
0.2216
0.221602
0.221601
0.221605
0.221605
0.221611
0.221613
0.22162
0.22163
0.221633
0.221656
0.221652
0.221694
0.221671
0.221738
0.221537
0.221539
0.221538
0.221542
0.221542
0.221548
0.22155
0.221557
0.221567
0.221572
0.221597
0.221595
0.221641
0.221622
0.221696
0.221474
0.221476
0.221475
0.221478
0.221478
0.221483
0.221486
0.221492
0.221503
0.221508
0.221535
0.221536
0.221587
0.221574
0.221658
0.22141
0.221412
0.221411
0.221414
0.221413
0.221418
0.22142
0.221426
0.221437
0.221442
0.221471
0.221474
0.221533
0.221527
0.221626
0.221346
0.221348
0.221346
0.221349
0.221348
0.221352
0.221354
0.221358
0.221369
0.221373
0.221403
0.221409
0.221475
0.22148
0.221599
0.221282
0.221284
0.221282
0.221284
0.221282
0.221285
0.221286
0.221288
0.221298
0.221301
0.22133
0.221338
0.221413
0.221437
0.221591
0.221218
0.221219
0.221217
0.221218
0.221216
0.221217
0.221217
0.221217
0.221225
0.221225
0.221252
0.221258
0.221338
0.221381
0.221563
0.221154
0.221155
0.221153
0.221153
0.22115
0.221149
0.221147
0.221145
0.221149
0.221146
0.221166
0.221169
0.22125
0.221359
0.221654
0.220965
0.220964
0.220961
0.220958
0.220952
0.220945
0.220937
0.220927
0.220916
0.220902
0.220889
0.220865
0.220857
0.220839
0.2204
0.220662
0.22066
0.220654
0.220646
0.220634
0.220619
0.220599
0.220573
0.22054
0.220496
0.220443
0.220356
0.220248
0.220287
0.220528
0.220423
0.220421
0.220414
0.220405
0.220392
0.220375
0.220355
0.22033
0.220301
0.220267
0.220239
0.220201
0.220114
0.220062
0.220234
0.220273
0.220272
0.220267
0.220261
0.220252
0.220243
0.220232
0.220219
0.220207
0.220191
0.220182
0.220182
0.22015
0.220075
0.220053
0.220193
0.220192
0.220189
0.220186
0.220182
0.220178
0.220173
0.220167
0.220163
0.220155
0.220149
0.220157
0.220168
0.220131
0.219983
0.220139
0.220138
0.220136
0.220134
0.220131
0.220128
0.220123
0.220118
0.220114
0.220107
0.220099
0.220099
0.220125
0.220108
0.219903
0.22009
0.22009
0.220088
0.220086
0.220083
0.220078
0.220073
0.220067
0.220061
0.220053
0.220042
0.220031
0.220056
0.220028
0.21982
0.220047
0.220046
0.220045
0.220043
0.22004
0.220036
0.220031
0.220025
0.220018
0.220009
0.219998
0.219982
0.220008
0.219958
0.219777
0.220011
0.220011
0.22001
0.220008
0.220006
0.220002
0.219998
0.219993
0.219987
0.219979
0.21997
0.219957
0.219984
0.219908
0.21976
0.219983
0.219983
0.219982
0.219981
0.219979
0.219976
0.219974
0.21997
0.219967
0.219962
0.219958
0.219952
0.219977
0.219878
0.219755
0.219957
0.219957
0.219957
0.219957
0.219956
0.219955
0.219955
0.219954
0.219954
0.219954
0.219954
0.219957
0.219972
0.21986
0.219752
0.219933
0.219934
0.219934
0.219935
0.219936
0.219937
0.219938
0.219939
0.219942
0.219944
0.219946
0.219956
0.219952
0.219841
0.219741
0.219911
0.219911
0.219912
0.219913
0.219914
0.219915
0.219917
0.219919
0.219923
0.219925
0.219926
0.219941
0.219914
0.219814
0.219719
0.219888
0.219888
0.219888
0.219888
0.219889
0.21989
0.219891
0.219892
0.219895
0.219898
0.219899
0.219916
0.21987
0.21978
0.219689
0.219864
0.219864
0.219864
0.219863
0.219863
0.219863
0.219864
0.219863
0.219865
0.219867
0.21987
0.219885
0.219825
0.219748
0.219662
0.219843
0.219843
0.219842
0.219842
0.219841
0.21984
0.219839
0.219838
0.219837
0.219838
0.219843
0.219852
0.219786
0.219722
0.219645
0.219827
0.219827
0.219827
0.219826
0.219825
0.219823
0.219822
0.219819
0.219817
0.219816
0.219824
0.219824
0.219761
0.219707
0.219638
0.219819
0.219819
0.219818
0.219818
0.219817
0.219815
0.219813
0.21981
0.219807
0.219804
0.219816
0.219804
0.219748
0.219701
0.21964
0.219818
0.219818
0.219818
0.219817
0.219816
0.219815
0.219813
0.21981
0.219806
0.219803
0.219818
0.219795
0.219747
0.219703
0.219647
0.219825
0.219825
0.219824
0.219824
0.219823
0.219822
0.21982
0.219818
0.219815
0.219813
0.219829
0.219795
0.219754
0.21971
0.219655
0.219838
0.219838
0.219838
0.219837
0.219836
0.219836
0.219835
0.219833
0.219831
0.219831
0.219845
0.219802
0.219765
0.219719
0.219665
0.219856
0.219856
0.219856
0.219855
0.219854
0.219854
0.219854
0.219852
0.219851
0.219855
0.219861
0.219812
0.219776
0.219729
0.219674
0.219877
0.219877
0.219877
0.219876
0.219876
0.219875
0.219876
0.219875
0.219874
0.219882
0.219876
0.219825
0.219787
0.219739
0.219684
0.219898
0.219898
0.219898
0.219898
0.219898
0.219898
0.219898
0.219898
0.219898
0.21991
0.219889
0.21984
0.219799
0.219748
0.219692
0.219918
0.219918
0.219918
0.219918
0.219919
0.219919
0.21992
0.219921
0.219922
0.219935
0.2199
0.219854
0.219809
0.219757
0.2197
0.219934
0.219935
0.219935
0.219936
0.219936
0.219937
0.219938
0.21994
0.219945
0.219954
0.219909
0.219866
0.219818
0.219764
0.219707
0.219946
0.219947
0.219947
0.219948
0.219949
0.21995
0.219952
0.219954
0.219962
0.219964
0.219914
0.219872
0.219822
0.219767
0.219711
0.219953
0.219954
0.219954
0.219955
0.219957
0.219958
0.21996
0.219962
0.219974
0.219964
0.219914
0.219871
0.21982
0.219765
0.21971
0.219955
0.219956
0.219956
0.219957
0.219958
0.219959
0.219961
0.219963
0.219978
0.219955
0.219908
0.219864
0.219812
0.219758
0.219703
0.219952
0.219952
0.219952
0.219953
0.219954
0.219955
0.219956
0.219959
0.219973
0.219938
0.219896
0.21985
0.219798
0.219745
0.219692
0.219943
0.219943
0.219943
0.219944
0.219945
0.219945
0.219946
0.219951
0.219959
0.219918
0.219878
0.219832
0.219781
0.219729
0.219678
0.21993
0.21993
0.21993
0.219931
0.219931
0.219931
0.219932
0.219939
0.219938
0.219895
0.219856
0.219811
0.219761
0.219711
0.219661
0.219915
0.219915
0.219914
0.219914
0.219915
0.219915
0.219915
0.219925
0.219912
0.219871
0.219833
0.219789
0.219741
0.219691
0.219643
0.219897
0.219897
0.219897
0.219897
0.219897
0.219897
0.219898
0.219908
0.219885
0.219848
0.21981
0.219766
0.219719
0.219672
0.219625
0.21988
0.21988
0.21988
0.21988
0.21988
0.219879
0.219882
0.21989
0.219859
0.219826
0.219788
0.219745
0.219699
0.219653
0.219608
0.219865
0.219865
0.219865
0.219864
0.219864
0.219864
0.219868
0.219871
0.219836
0.219806
0.219768
0.219726
0.219681
0.219636
0.219592
0.219851
0.219851
0.219851
0.219851
0.21985
0.21985
0.219857
0.219852
0.219818
0.219787
0.21975
0.219708
0.219665
0.219622
0.219579
0.219839
0.219839
0.219839
0.219839
0.219839
0.219838
0.219848
0.219833
0.219802
0.219771
0.219734
0.219693
0.219651
0.219609
0.219568
0.219829
0.219829
0.219829
0.219829
0.219829
0.21983
0.21984
0.219817
0.219788
0.219757
0.21972
0.219681
0.21964
0.219599
0.219559
0.219822
0.219822
0.219822
0.219821
0.219822
0.219825
0.219832
0.219802
0.219776
0.219745
0.219709
0.21967
0.21963
0.219591
0.219552
0.219816
0.219816
0.219816
0.219815
0.219815
0.219821
0.219822
0.219791
0.219765
0.219734
0.219698
0.21966
0.219621
0.219583
0.219545
0.219811
0.21981
0.21981
0.21981
0.21981
0.219819
0.21981
0.21978
0.219755
0.219723
0.219687
0.21965
0.219613
0.219575
0.219539
0.219804
0.219804
0.219805
0.219805
0.219805
0.219815
0.219798
0.21977
0.219743
0.219711
0.219676
0.21964
0.219603
0.219566
0.219531
0.219797
0.219798
0.219798
0.219798
0.219801
0.219809
0.219784
0.219758
0.219731
0.219698
0.219663
0.219627
0.219591
0.219556
0.219521
0.219789
0.219789
0.219789
0.21979
0.219795
0.219798
0.219768
0.219744
0.219715
0.219682
0.219647
0.219612
0.219577
0.219542
0.219508
0.219778
0.219778
0.219779
0.219779
0.219787
0.219782
0.219751
0.219726
0.219697
0.219663
0.219629
0.219594
0.219559
0.219525
0.219492
0.219765
0.219765
0.219766
0.219766
0.219776
0.219761
0.219732
0.219705
0.219674
0.219641
0.219607
0.219572
0.219538
0.219504
0.219472
0.219749
0.219749
0.219749
0.219751
0.21976
0.219735
0.219708
0.21968
0.219649
0.219615
0.219581
0.219546
0.219512
0.219479
0.219447
0.219729
0.219729
0.219729
0.219734
0.219738
0.219707
0.219681
0.219651
0.219619
0.219585
0.219551
0.219516
0.219483
0.21945
0.219419
0.219706
0.219706
0.219706
0.219713
0.219709
0.219676
0.219649
0.219618
0.219585
0.219551
0.219517
0.219483
0.21945
0.219417
0.219386
0.219679
0.21968
0.21968
0.219688
0.219673
0.219641
0.219613
0.219582
0.219548
0.219514
0.21948
0.219446
0.219413
0.219381
0.219351
0.21965
0.21965
0.219652
0.21966
0.219634
0.219604
0.219574
0.219542
0.219508
0.219473
0.219439
0.219406
0.219373
0.219342
0.219312
0.219618
0.219618
0.219622
0.219625
0.219592
0.219563
0.219532
0.219499
0.219464
0.21943
0.219396
0.219363
0.219331
0.2193
0.219271
0.219584
0.219584
0.21959
0.219584
0.219548
0.219519
0.219487
0.219453
0.219418
0.219384
0.219351
0.219318
0.219287
0.219256
0.219228
0.219548
0.219549
0.219556
0.219537
0.219502
0.219472
0.219439
0.219405
0.21937
0.219337
0.219303
0.219271
0.21924
0.219211
0.219183
0.21951
0.219512
0.219518
0.219487
0.219454
0.219422
0.219389
0.219354
0.21932
0.219287
0.219255
0.219223
0.219193
0.219165
0.219138
0.219471
0.219475
0.219474
0.219435
0.219403
0.219371
0.219337
0.219303
0.219269
0.219237
0.219205
0.219175
0.219146
0.219118
0.219092
0.219433
0.219438
0.219424
0.219383
0.219351
0.219318
0.219284
0.21925
0.219218
0.219186
0.219155
0.219125
0.219097
0.219071
0.219046
0.219396
0.219399
0.21937
0.21933
0.219298
0.219264
0.21923
0.219198
0.219165
0.219134
0.219104
0.219076
0.219049
0.219024
0.219
0.21936
0.219357
0.219314
0.219277
0.219244
0.21921
0.219177
0.219144
0.219113
0.219083
0.219054
0.219026
0.219001
0.218977
0.218954
0.219328
0.219306
0.219259
0.219223
0.219189
0.219155
0.219123
0.219091
0.219061
0.219031
0.219003
0.218977
0.218952
0.218929
0.218908
0.219299
0.219249
0.219204
0.219168
0.219134
0.2191
0.219069
0.219038
0.219008
0.21898
0.218953
0.218928
0.218905
0.218883
0.218862
0.21926
0.219191
0.219149
0.219113
0.219079
0.219046
0.219015
0.218985
0.218956
0.218929
0.218904
0.21888
0.218857
0.218836
0.218816
0.219211
0.219136
0.219097
0.219061
0.219027
0.218995
0.218964
0.218934
0.218906
0.218879
0.218855
0.218832
0.21881
0.21879
0.218771
0.219154
0.219082
0.219044
0.219008
0.218974
0.218942
0.218912
0.218883
0.218857
0.218832
0.218808
0.218786
0.218765
0.218745
0.218727
0.219092
0.219028
0.218992
0.218956
0.218923
0.218893
0.218864
0.218836
0.21881
0.218786
0.218763
0.218742
0.218721
0.218702
0.218684
0.219032
0.218976
0.218943
0.21891
0.218878
0.218848
0.21882
0.218792
0.218766
0.218742
0.21872
0.218699
0.218679
0.218661
0.218643
0.218976
0.218925
0.218897
0.218865
0.218835
0.218805
0.218777
0.218751
0.218726
0.218703
0.218681
0.21866
0.218641
0.218622
0.218605
0.218922
0.218875
0.218851
0.218822
0.218793
0.218765
0.218738
0.218713
0.21869
0.218667
0.218646
0.218626
0.218606
0.218588
0.21857
0.218873
0.218829
0.218809
0.218783
0.218756
0.21873
0.218704
0.218681
0.218658
0.218637
0.218616
0.218595
0.218576
0.218557
0.218539
0.218835
0.218793
0.218776
0.218752
0.218727
0.218701
0.218677
0.218653
0.218631
0.21861
0.218589
0.218569
0.21855
0.218531
0.218513
0.218803
0.218763
0.218748
0.218727
0.218703
0.218678
0.218655
0.218632
0.218611
0.218589
0.218569
0.218549
0.218529
0.21851
0.218492
0.218777
0.218737
0.218725
0.218706
0.218684
0.218661
0.218639
0.218618
0.218596
0.218575
0.218554
0.218534
0.218514
0.218494
0.218475
0.21876
0.218721
0.218711
0.218694
0.218673
0.218651
0.21863
0.218609
0.218587
0.218566
0.218545
0.218525
0.218504
0.218484
0.218465
0.218753
0.218715
0.218706
0.218689
0.218669
0.218648
0.218627
0.218606
0.218585
0.218564
0.218542
0.218521
0.2185
0.21848
0.21846
0.218754
0.218716
0.218707
0.218692
0.218672
0.218652
0.218631
0.21861
0.218588
0.218567
0.218545
0.218524
0.218503
0.218481
0.218461
0.218761
0.218723
0.218716
0.218701
0.218682
0.218662
0.218641
0.21862
0.218598
0.218577
0.218555
0.218533
0.218511
0.218489
0.218468
0.218774
0.218737
0.21873
0.218716
0.218698
0.218678
0.218657
0.218636
0.218614
0.218592
0.21857
0.218548
0.218526
0.218504
0.218482
0.218795
0.218758
0.218751
0.218738
0.21872
0.2187
0.21868
0.218658
0.218636
0.218614
0.218592
0.218569
0.218547
0.218525
0.218503
0.218822
0.218784
0.218778
0.218765
0.218748
0.218729
0.218708
0.218687
0.218665
0.218643
0.21862
0.218598
0.218575
0.218553
0.218531
0.218853
0.218816
0.21881
0.218798
0.218781
0.218762
0.218742
0.218721
0.218699
0.218677
0.218655
0.218632
0.21861
0.218588
0.218567
0.218889
0.218852
0.218847
0.218835
0.218819
0.218801
0.218781
0.218761
0.218739
0.218718
0.218695
0.218673
0.218652
0.21863
0.218609
0.21893
0.218893
0.218888
0.218877
0.218862
0.218845
0.218826
0.218805
0.218785
0.218763
0.218742
0.218721
0.218699
0.218678
0.218658
0.218974
0.218938
0.218934
0.218924
0.218909
0.218892
0.218874
0.218855
0.218835
0.218815
0.218794
0.218773
0.218753
0.218733
0.218714
0.219022
0.218986
0.218983
0.218974
0.21896
0.218944
0.218927
0.218909
0.21889
0.21887
0.218851
0.218831
0.218812
0.218793
0.218774
0.219072
0.219038
0.219035
0.219027
0.219014
0.218999
0.218983
0.218966
0.218948
0.21893
0.218911
0.218893
0.218875
0.218857
0.21884
0.219125
0.219092
0.21909
0.219082
0.219071
0.219057
0.219042
0.219026
0.21901
0.218993
0.218976
0.218958
0.218941
0.218925
0.218909
0.21918
0.219147
0.219146
0.21914
0.219129
0.219117
0.219104
0.219089
0.219074
0.219058
0.219042
0.219026
0.219011
0.218995
0.21898
0.219236
0.219205
0.219205
0.219199
0.21919
0.219179
0.219167
0.219153
0.219139
0.219125
0.219111
0.219096
0.219081
0.219067
0.219053
0.219295
0.219264
0.219264
0.21926
0.219252
0.219242
0.219231
0.219219
0.219206
0.219193
0.21918
0.219166
0.219153
0.219139
0.219126
0.219354
0.219325
0.219326
0.219322
0.219315
0.219306
0.219296
0.219285
0.219274
0.219262
0.219249
0.219237
0.219224
0.219211
0.219199
0.219414
0.219386
0.219387
0.219384
0.219378
0.21937
0.219361
0.219351
0.21934
0.219329
0.219318
0.219306
0.219294
0.219282
0.21927
0.219475
0.219447
0.219449
0.219447
0.219441
0.219434
0.219426
0.219417
0.219407
0.219396
0.219386
0.219375
0.219363
0.219352
0.21934
0.219535
0.219509
0.219511
0.219509
0.219504
0.219497
0.219489
0.219481
0.219472
0.219462
0.219452
0.219441
0.21943
0.219419
0.219408
0.219596
0.21957
0.219572
0.21957
0.219566
0.21956
0.219553
0.219545
0.219536
0.219527
0.219517
0.219507
0.219496
0.219485
0.219474
0.219656
0.21963
0.219632
0.219631
0.219627
0.219621
0.219614
0.219607
0.219599
0.21959
0.21958
0.21957
0.21956
0.21955
0.219539
0.219715
0.21969
0.219692
0.219691
0.219687
0.219681
0.219675
0.219668
0.21966
0.219651
0.219642
0.219633
0.219623
0.219613
0.219602
0.219773
0.219749
0.219751
0.219749
0.219745
0.21974
0.219734
0.219727
0.21972
0.219712
0.219703
0.219694
0.219684
0.219674
0.219664
0.219831
0.219806
0.219808
0.219807
0.219803
0.219798
0.219792
0.219786
0.219779
0.219771
0.219763
0.219754
0.219745
0.219735
0.219725
0.219886
0.219862
0.219864
0.219863
0.219859
0.219855
0.219849
0.219843
0.219836
0.219829
0.219821
0.219813
0.219804
0.219795
0.219786
0.21994
0.219917
0.219919
0.219918
0.219915
0.219911
0.219905
0.2199
0.219893
0.219887
0.219879
0.219872
0.219864
0.219855
0.219847
0.219993
0.21997
0.219972
0.219971
0.219968
0.219965
0.21996
0.219955
0.219949
0.219943
0.219936
0.219929
0.219922
0.219914
0.219907
0.220044
0.220022
0.220024
0.220024
0.220021
0.220018
0.220014
0.220009
0.220004
0.219998
0.219993
0.219986
0.21998
0.219973
0.219967
0.220092
0.220072
0.220074
0.220074
0.220072
0.220069
0.220065
0.220062
0.220057
0.220053
0.220048
0.220042
0.220037
0.220031
0.220026
0.220139
0.220119
0.220122
0.220122
0.22012
0.220118
0.220115
0.220112
0.220109
0.220105
0.220101
0.220097
0.220093
0.220089
0.220084
0.220181
0.220163
0.220166
0.220167
0.220166
0.220164
0.220163
0.22016
0.220158
0.220155
0.220153
0.22015
0.220147
0.220144
0.220141
0.22022
0.220204
0.220207
0.220208
0.220208
0.220208
0.220207
0.220205
0.220204
0.220203
0.220201
0.220199
0.220198
0.220196
0.220194
0.220254
0.220239
0.220243
0.220245
0.220246
0.220246
0.220246
0.220246
0.220246
0.220246
0.220245
0.220245
0.220245
0.220244
0.220244
0.220283
0.22027
0.220274
0.220276
0.220278
0.220279
0.22028
0.220281
0.220282
0.220283
0.220284
0.220285
0.220287
0.220288
0.22029
0.220304
0.220293
0.220298
0.220301
0.220303
0.220306
0.220308
0.22031
0.220312
0.220315
0.220317
0.22032
0.220323
0.220326
0.220329
0.220318
0.220309
0.220314
0.220318
0.220321
0.220324
0.220328
0.220331
0.220335
0.220339
0.220342
0.220347
0.220351
0.220356
0.220361
0.220322
0.220315
0.220321
0.220326
0.22033
0.220334
0.220338
0.220343
0.220348
0.220353
0.220358
0.220364
0.22037
0.220376
0.220383
0.220317
0.220312
0.220318
0.220324
0.220329
0.220334
0.220339
0.220345
0.220351
0.220358
0.220364
0.220371
0.220379
0.220387
0.220395
0.2203
0.220297
0.220304
0.22031
0.220316
0.220322
0.220328
0.220335
0.220342
0.22035
0.220358
0.220367
0.220376
0.220385
0.220394
0.220271
0.220271
0.220278
0.220285
0.220291
0.220298
0.220305
0.220313
0.220321
0.22033
0.22034
0.220349
0.22036
0.22037
0.220381
0.22023
0.220231
0.220238
0.220245
0.220252
0.22026
0.220268
0.220277
0.220286
0.220296
0.220306
0.220317
0.220328
0.22034
0.220352
0.220175
0.220178
0.220185
0.220193
0.2202
0.220208
0.220217
0.220226
0.220236
0.220247
0.220258
0.22027
0.220282
0.220295
0.220308
0.220107
0.22011
0.220118
0.220125
0.220133
0.220141
0.22015
0.22016
0.220171
0.220182
0.220194
0.220206
0.220219
0.220233
0.220246
0.220025
0.220029
0.220037
0.220044
0.220051
0.22006
0.220069
0.220079
0.22009
0.220102
0.220114
0.220126
0.22014
0.220154
0.220167
0.219929
0.219933
0.21994
0.219947
0.219954
0.219962
0.219972
0.219982
0.219992
0.220004
0.220016
0.220029
0.220043
0.220056
0.22007
0.219821
0.219824
0.21983
0.219837
0.219843
0.219851
0.21986
0.21987
0.21988
0.219891
0.219903
0.219916
0.219929
0.219942
0.219955
0.219699
0.219701
0.219706
0.219712
0.219718
0.219725
0.219733
0.219742
0.219752
0.219762
0.219773
0.219785
0.219798
0.21981
0.219822
0.219569
0.219568
0.219572
0.219576
0.219581
0.219587
0.219594
0.219601
0.21961
0.219619
0.219629
0.21964
0.219652
0.219663
0.219674
0.219431
0.219425
0.219427
0.21943
0.219433
0.219437
0.219443
0.219449
0.219456
0.219464
0.219472
0.219481
0.219491
0.219501
0.21951
0.219289
0.219278
0.219278
0.219278
0.219279
0.219281
0.219284
0.219288
0.219293
0.219299
0.219305
0.219312
0.219319
0.219327
0.219333
0.219147
0.21913
0.219126
0.219124
0.219122
0.219121
0.219122
0.219123
0.219125
0.219128
0.219131
0.219135
0.21914
0.219144
0.219147
0.219012
0.218985
0.218979
0.218973
0.218967
0.218962
0.218959
0.218957
0.218956
0.218955
0.218954
0.218954
0.218955
0.218955
0.218954
0.218892
0.218854
0.218843
0.218833
0.218822
0.218813
0.218805
0.218798
0.218792
0.218787
0.218782
0.218777
0.218773
0.218768
0.218762
0.218794
0.218742
0.218725
0.21871
0.218693
0.218678
0.218665
0.218652
0.21864
0.218629
0.218618
0.218607
0.218597
0.218586
0.218574
0.218734
0.218665
0.218642
0.21862
0.218596
0.218574
0.218553
0.218534
0.218514
0.218495
0.218477
0.218459
0.218442
0.218423
0.218403
0.218715
0.218628
0.218598
0.218568
0.218536
0.218505
0.218476
0.218447
0.218419
0.218391
0.218364
0.218337
0.21831
0.218282
0.218252
0.218759
0.21865
0.218613
0.218575
0.218533
0.218492
0.218452
0.218413
0.218373
0.218334
0.218296
0.218257
0.218219
0.218179
0.218139
0.218866
0.218737
0.218693
0.218647
0.218595
0.218542
0.21849
0.218437
0.218385
0.218332
0.21828
0.218228
0.218176
0.218122
0.218068
0.219059
0.218912
0.218863
0.218808
0.218745
0.218679
0.218612
0.218545
0.218477
0.218409
0.21834
0.218272
0.218203
0.218133
0.218063
0.219329
0.21917
0.21912
0.219059
0.218985
0.218907
0.218826
0.218742
0.218657
0.218571
0.218484
0.218397
0.218309
0.218219
0.21813
0.219673
0.21951
0.219464
0.219401
0.219321
0.219232
0.219137
0.219038
0.218935
0.21883
0.218724
0.218616
0.218507
0.218396
0.218286
0.220074
0.219917
0.219882
0.219822
0.21974
0.219645
0.219541
0.219429
0.219311
0.219189
0.219064
0.218935
0.218805
0.218673
0.218541
0.220498
0.220356
0.220337
0.220287
0.22021
0.220115
0.220007
0.219889
0.219762
0.219627
0.219488
0.219343
0.219194
0.219043
0.218892
0.22092
0.220798
0.220797
0.220761
0.220695
0.220608
0.220505
0.220388
0.22026
0.220121
0.219975
0.219821
0.219661
0.219497
0.219333
0.221306
0.221204
0.22122
0.221199
0.221147
0.221074
0.220982
0.220875
0.220754
0.220621
0.220477
0.220324
0.220162
0.219995
0.219826