/*--------------------------------*- C++ -*----------------------------------*\
  =========                 |
  \\      /  F ield         | OpenFOAM: The Open Source CFD Toolbox
   \\    /   O peration     | Website:  https://openfoam.org
    \\  /    A nd           | Version:  7
     \\/     M anipulation  |
\*---------------------------------------------------------------------------*/
FoamFile
{
    version     2.0;
    format      ascii;
    class       volScalarField;
    location    "100";
    object      p_tot;
}
// * * * * * * * * * * * * * * * * * * * * * * * * * * * * * * * * * * * * * //

dimensions      [0 2 -2 0 0 0 0];

internalField   nonuniform List<scalar> 
32100
(
1.1027
1.10271
1.10272
1.10273
1.10276
1.10279
1.10283
1.10288
1.10294
1.10302
1.10312
1.10326
1.10353
1.10412
1.10287
1.09166
1.09167
1.09168
1.09169
1.09172
1.09175
1.09178
1.09183
1.09189
1.09197
1.09207
1.09219
1.09227
1.09294
1.09167
1.08061
1.08062
1.08063
1.08065
1.08067
1.0807
1.08073
1.08078
1.08083
1.0809
1.08098
1.08109
1.081
1.08164
1.08063
1.06956
1.06957
1.06958
1.06959
1.06961
1.06964
1.06968
1.06972
1.06977
1.06982
1.06988
1.07
1.06982
1.07039
1.06965
1.05851
1.05851
1.05852
1.05854
1.05855
1.05858
1.05861
1.05865
1.05869
1.05874
1.05877
1.05892
1.0587
1.05919
1.05864
1.04745
1.04745
1.04746
1.04747
1.04749
1.04751
1.04754
1.04757
1.04761
1.04766
1.04766
1.04782
1.0476
1.04803
1.04758
1.03638
1.03639
1.03639
1.03641
1.03642
1.03644
1.03647
1.0365
1.03652
1.03657
1.03656
1.03672
1.0365
1.03687
1.0365
1.02531
1.02532
1.02533
1.02534
1.02535
1.02537
1.02539
1.02541
1.02544
1.02549
1.02545
1.02562
1.0254
1.02572
1.02543
1.01424
1.01425
1.01425
1.01426
1.01428
1.01429
1.01431
1.01433
1.01435
1.0144
1.01435
1.01451
1.0143
1.01458
1.01435
1.00317
1.00317
1.00318
1.00319
1.0032
1.00321
1.00323
1.00325
1.00326
1.00331
1.00325
1.00341
1.00321
1.00345
1.00326
0.992092
0.992095
0.9921
0.992107
0.992117
0.992129
0.992142
0.992162
0.992163
0.992218
0.992152
0.992306
0.992122
0.99233
0.992178
0.981013
0.981015
0.981019
0.981026
0.981034
0.981045
0.981055
0.981075
0.98107
0.981127
0.981055
0.981201
0.981032
0.981212
0.98109
0.969931
0.969933
0.969937
0.969942
0.96995
0.96996
0.969967
0.969986
0.969976
0.970034
0.969958
0.970098
0.969942
0.970098
0.970001
0.958848
0.95885
0.958853
0.958858
0.958864
0.958873
0.958877
0.958897
0.958882
0.958941
0.958864
0.958995
0.958852
0.958987
0.958912
0.947763
0.947765
0.947768
0.947772
0.947777
0.947785
0.947788
0.947808
0.947788
0.947848
0.94777
0.947894
0.947763
0.947879
0.947821
0.936677
0.936678
0.936681
0.936685
0.936689
0.936697
0.936697
0.936718
0.936694
0.936754
0.936676
0.936793
0.936673
0.936773
0.93673
0.92559
0.925591
0.925593
0.925597
0.925599
0.925607
0.925605
0.925627
0.9256
0.92566
0.925583
0.925691
0.925583
0.925668
0.925638
0.914502
0.914503
0.914504
0.914507
0.914509
0.914516
0.914512
0.914535
0.914506
0.914565
0.914489
0.914591
0.914493
0.914565
0.914546
0.903413
0.903414
0.903415
0.903417
0.903418
0.903426
0.90342
0.903443
0.903412
0.90347
0.903396
0.903491
0.903402
0.903463
0.903455
0.892323
0.892324
0.892324
0.892327
0.892327
0.892335
0.892327
0.892351
0.892319
0.892375
0.892304
0.892391
0.892312
0.892363
0.892363
0.881232
0.881233
0.881234
0.881236
0.881236
0.881244
0.881234
0.881259
0.881225
0.881281
0.881212
0.881293
0.881221
0.881263
0.88127
0.870141
0.870142
0.870142
0.870145
0.870144
0.870152
0.870141
0.870166
0.870132
0.870186
0.87012
0.870195
0.870131
0.870164
0.870178
0.85905
0.859051
0.859051
0.859054
0.859052
0.85906
0.859048
0.859073
0.859038
0.859091
0.859028
0.859097
0.85904
0.859066
0.859085
0.847958
0.847959
0.847959
0.847962
0.847959
0.847968
0.847955
0.84798
0.847945
0.847996
0.847936
0.847999
0.847948
0.847968
0.847993
0.836867
0.836867
0.836867
0.836869
0.836866
0.836875
0.836861
0.836886
0.836851
0.8369
0.836844
0.836902
0.836857
0.836871
0.8369
0.825775
0.825775
0.825774
0.825777
0.825773
0.825783
0.825768
0.825793
0.825758
0.825805
0.825752
0.825805
0.825766
0.825774
0.825808
0.814682
0.814683
0.814682
0.814685
0.81468
0.81469
0.814675
0.8147
0.814665
0.81471
0.81466
0.814708
0.814674
0.814678
0.814715
0.80359
0.80359
0.803589
0.803592
0.803587
0.803597
0.803582
0.803607
0.803573
0.803616
0.803568
0.803612
0.803583
0.803582
0.803623
0.792497
0.792498
0.792496
0.7925
0.792494
0.792505
0.792489
0.792513
0.79248
0.792521
0.792476
0.792516
0.792491
0.792486
0.79253
0.781404
0.781405
0.781404
0.781407
0.781401
0.781412
0.781395
0.78142
0.781387
0.781426
0.781384
0.78142
0.781399
0.781391
0.781437
0.770311
0.770312
0.77031
0.770314
0.770308
0.770319
0.770302
0.770326
0.770295
0.770332
0.770293
0.770325
0.770308
0.770296
0.770344
0.759218
0.759219
0.759217
0.759221
0.759215
0.759226
0.759209
0.759233
0.759202
0.759237
0.759201
0.759229
0.759216
0.759201
0.759251
0.748126
0.748126
0.748124
0.748129
0.748121
0.748133
0.748116
0.748139
0.748109
0.748143
0.748109
0.748134
0.748124
0.748106
0.748158
0.737033
0.737033
0.737031
0.737036
0.737028
0.73704
0.737023
0.737045
0.737016
0.737048
0.737017
0.737039
0.737032
0.737012
0.737066
0.72594
0.725941
0.725938
0.725943
0.725935
0.725947
0.72593
0.725952
0.725924
0.725954
0.725925
0.725944
0.72594
0.725918
0.725973
0.714847
0.714848
0.714845
0.71485
0.714842
0.714854
0.714837
0.714858
0.714831
0.71486
0.714833
0.71485
0.714848
0.714824
0.71488
0.703754
0.703755
0.703752
0.703757
0.703749
0.703761
0.703744
0.703765
0.703739
0.703766
0.703741
0.703755
0.703756
0.70373
0.703787
0.692661
0.692662
0.692659
0.692664
0.692656
0.692668
0.692651
0.692671
0.692647
0.692672
0.692649
0.692661
0.692664
0.692636
0.692695
0.681568
0.681569
0.681566
0.681571
0.681563
0.681575
0.681558
0.681578
0.681555
0.681578
0.681557
0.681567
0.681572
0.681543
0.681602
0.670475
0.670476
0.670473
0.670478
0.67047
0.670482
0.670466
0.670485
0.670462
0.670484
0.670465
0.670473
0.67048
0.670449
0.670509
0.659382
0.659383
0.65938
0.659385
0.659377
0.659389
0.659373
0.659392
0.65937
0.65939
0.659373
0.659379
0.659388
0.659356
0.659416
0.648289
0.648291
0.648288
0.648293
0.648284
0.648296
0.64828
0.648298
0.648278
0.648296
0.648281
0.648285
0.648296
0.648263
0.648323
0.637196
0.637198
0.637195
0.6372
0.637192
0.637203
0.637188
0.637205
0.637186
0.637203
0.637189
0.637191
0.637203
0.637169
0.63723
0.626103
0.626105
0.626102
0.626107
0.626099
0.62611
0.626095
0.626112
0.626093
0.626109
0.626097
0.626098
0.626111
0.626076
0.626137
0.615011
0.615012
0.615009
0.615014
0.615006
0.615017
0.615003
0.615018
0.615001
0.615016
0.615006
0.615004
0.615019
0.614984
0.615044
0.603918
0.603919
0.603916
0.603921
0.603913
0.603924
0.60391
0.603925
0.603909
0.603922
0.603914
0.603911
0.603927
0.603891
0.603952
0.592825
0.592827
0.592823
0.592829
0.592821
0.592831
0.592818
0.592832
0.592817
0.592829
0.592822
0.592818
0.592835
0.592798
0.592859
0.581732
0.581734
0.581731
0.581736
0.581728
0.581738
0.581725
0.581739
0.581725
0.581736
0.58173
0.581725
0.581743
0.581706
0.581766
0.57064
0.570641
0.570638
0.570643
0.570635
0.570645
0.570633
0.570646
0.570633
0.570643
0.570638
0.570632
0.570651
0.570613
0.570674
0.559547
0.559548
0.559545
0.55955
0.559543
0.559552
0.559541
0.559553
0.559541
0.55955
0.559546
0.559539
0.559559
0.559521
0.559581
0.548454
0.548456
0.548452
0.548457
0.54845
0.54846
0.548448
0.54846
0.548449
0.548457
0.548454
0.548446
0.548467
0.548428
0.548488
0.537361
0.537363
0.53736
0.537365
0.537358
0.537367
0.537356
0.537367
0.537357
0.537364
0.537363
0.537353
0.537375
0.537336
0.537396
0.526268
0.52627
0.526267
0.526272
0.526265
0.526274
0.526264
0.526274
0.526265
0.526271
0.526271
0.526261
0.526283
0.526244
0.526303
0.515175
0.515177
0.515174
0.515179
0.515172
0.515181
0.515171
0.515181
0.515173
0.515178
0.515179
0.515168
0.515191
0.515152
0.515211
0.504082
0.504084
0.504081
0.504086
0.50408
0.504088
0.504079
0.504089
0.504081
0.504085
0.504087
0.504075
0.504099
0.50406
0.504118
0.492989
0.492991
0.492988
0.492993
0.492987
0.492995
0.492987
0.492996
0.492989
0.492992
0.492995
0.492983
0.493007
0.492968
0.493026
0.481896
0.481898
0.481895
0.4819
0.481894
0.481902
0.481894
0.481903
0.481897
0.4819
0.481904
0.481891
0.481915
0.481876
0.481934
0.470803
0.470805
0.470802
0.470807
0.470801
0.470809
0.470802
0.47081
0.470805
0.470807
0.470812
0.470799
0.470824
0.470785
0.470842
0.45971
0.459711
0.459709
0.459714
0.459708
0.459716
0.459709
0.459717
0.459713
0.459714
0.45972
0.459706
0.459732
0.459693
0.45975
0.448616
0.448618
0.448616
0.44862
0.448615
0.448623
0.448617
0.448624
0.44862
0.448622
0.448628
0.448615
0.44864
0.448602
0.448658
0.437523
0.437524
0.437522
0.437527
0.437522
0.437529
0.437524
0.437531
0.437528
0.437529
0.437537
0.437523
0.437549
0.437511
0.437566
0.426429
0.426431
0.426428
0.426433
0.426429
0.426436
0.426431
0.426438
0.426436
0.426437
0.426445
0.426431
0.426458
0.42642
0.426475
0.415335
0.415336
0.415334
0.415339
0.415335
0.415342
0.415338
0.415345
0.415344
0.415344
0.415353
0.415339
0.415367
0.415329
0.415384
0.40424
0.404242
0.40424
0.404245
0.404241
0.404248
0.404245
0.404251
0.404251
0.404251
0.404262
0.404248
0.404276
0.404239
0.404293
0.393146
0.393147
0.393145
0.39315
0.393147
0.393154
0.393151
0.393157
0.393159
0.393159
0.39317
0.393156
0.393185
0.393149
0.393203
0.38205
0.382052
0.382051
0.382055
0.382053
0.382059
0.382057
0.382064
0.382066
0.382066
0.382078
0.382065
0.382094
0.382059
0.382113
0.370955
0.370957
0.370955
0.37096
0.370958
0.370965
0.370963
0.370969
0.370973
0.370973
0.370986
0.370973
0.371004
0.370969
0.371023
0.359859
0.359861
0.359859
0.359864
0.359862
0.359869
0.359868
0.359875
0.359879
0.35988
0.359894
0.359882
0.359913
0.35988
0.359935
0.348763
0.348764
0.348763
0.348768
0.348766
0.348773
0.348773
0.34878
0.348785
0.348786
0.348802
0.348791
0.348823
0.348791
0.348847
0.337666
0.337668
0.337666
0.337671
0.33767
0.337677
0.337677
0.337684
0.33769
0.337692
0.33771
0.3377
0.337734
0.337703
0.33776
0.326568
0.32657
0.326569
0.326574
0.326573
0.32658
0.326581
0.326587
0.326595
0.326597
0.326617
0.326608
0.326644
0.326616
0.326674
0.31547
0.315472
0.315471
0.315476
0.315475
0.315482
0.315483
0.31549
0.315499
0.315502
0.315523
0.315516
0.315555
0.315529
0.315591
0.304372
0.304374
0.304373
0.304377
0.304376
0.304383
0.304385
0.304392
0.304401
0.304405
0.304428
0.304424
0.304466
0.304443
0.30451
0.293273
0.293275
0.293274
0.293278
0.293277
0.293283
0.293286
0.293292
0.293303
0.293307
0.293332
0.29333
0.293377
0.293358
0.293432
0.282173
0.282175
0.282174
0.282178
0.282177
0.282183
0.282185
0.282191
0.282202
0.282207
0.282234
0.282235
0.282287
0.282274
0.282357
0.271073
0.271075
0.271074
0.271077
0.271076
0.271081
0.271084
0.271089
0.2711
0.271105
0.271134
0.271137
0.271196
0.27119
0.271289
0.259973
0.259975
0.259973
0.259976
0.259975
0.259979
0.259981
0.259985
0.259995
0.26
0.260029
0.260036
0.260102
0.260107
0.260226
0.248873
0.248874
0.248873
0.248875
0.248873
0.248875
0.248876
0.248879
0.248889
0.248892
0.248921
0.248928
0.249003
0.249027
0.249182
0.237773
0.237774
0.237772
0.237773
0.23777
0.237771
0.237771
0.237772
0.237779
0.237779
0.237806
0.237812
0.237892
0.237936
0.238117
0.226673
0.226673
0.226671
0.226671
0.226668
0.226667
0.226665
0.226663
0.226667
0.226664
0.226684
0.226687
0.226768
0.226877
0.227172
0.193715
0.193714
0.193711
0.193708
0.193702
0.193695
0.193687
0.193677
0.193666
0.193652
0.193639
0.193615
0.193607
0.193589
0.19315
0.138912
0.13891
0.138904
0.138896
0.138884
0.138869
0.138849
0.138823
0.13879
0.138746
0.138693
0.138606
0.138498
0.138537
0.138778
0.084173
0.0841706
0.0841639
0.0841547
0.0841415
0.0841251
0.0841046
0.0840796
0.0840514
0.0840174
0.083989
0.0839508
0.0838643
0.0838117
0.083984
0.0295233
0.0295216
0.0295168
0.0295108
0.0295024
0.0294928
0.0294818
0.0294694
0.0294574
0.0294414
0.0294324
0.0294321
0.0293998
0.0293248
0.0293028
-0.0250575
-0.0250582
-0.025061
-0.0250638
-0.0250678
-0.0250721
-0.0250769
-0.0250825
-0.0250867
-0.0250949
-0.025101
-0.0250932
-0.0250821
-0.0251193
-0.0252668
-0.0796114
-0.0796117
-0.0796136
-0.0796156
-0.0796188
-0.0796224
-0.0796268
-0.0796323
-0.0796363
-0.0796431
-0.0796512
-0.0796509
-0.079625
-0.0796425
-0.0798468
-0.13416
-0.13416
-0.134162
-0.134164
-0.134167
-0.134172
-0.134177
-0.134183
-0.134189
-0.134197
-0.134208
-0.134219
-0.134194
-0.134222
-0.13443
-0.188703
-0.188704
-0.188705
-0.188707
-0.18871
-0.188714
-0.188719
-0.188725
-0.188732
-0.188741
-0.188752
-0.188768
-0.188742
-0.188792
-0.188973
-0.243239
-0.243239
-0.24324
-0.243242
-0.243244
-0.243248
-0.243252
-0.243257
-0.243263
-0.243271
-0.24328
-0.243293
-0.243266
-0.243342
-0.24349
-0.297767
-0.297767
-0.297768
-0.297769
-0.297771
-0.297774
-0.297776
-0.29778
-0.297783
-0.297788
-0.297792
-0.297798
-0.297773
-0.297872
-0.297995
-0.352293
-0.352293
-0.352293
-0.352293
-0.352294
-0.352295
-0.352295
-0.352296
-0.352296
-0.352296
-0.352296
-0.352293
-0.352278
-0.35239
-0.352498
-0.406817
-0.406816
-0.406816
-0.406815
-0.406814
-0.406813
-0.406812
-0.406811
-0.406808
-0.406806
-0.406804
-0.406794
-0.406798
-0.406909
-0.407009
-0.461339
-0.461339
-0.461338
-0.461337
-0.461336
-0.461335
-0.461333
-0.461331
-0.461327
-0.461325
-0.461324
-0.461309
-0.461336
-0.461436
-0.461531
-0.515862
-0.515862
-0.515862
-0.515862
-0.515861
-0.51586
-0.515859
-0.515858
-0.515855
-0.515852
-0.515851
-0.515834
-0.51588
-0.51597
-0.516061
-0.570386
-0.570386
-0.570386
-0.570387
-0.570387
-0.570387
-0.570386
-0.570387
-0.570385
-0.570383
-0.57038
-0.570365
-0.570425
-0.570502
-0.570588
-0.624907
-0.624907
-0.624908
-0.624908
-0.624909
-0.62491
-0.624911
-0.624912
-0.624913
-0.624912
-0.624907
-0.624898
-0.624964
-0.625028
-0.625105
-0.679423
-0.679423
-0.679423
-0.679424
-0.679425
-0.679427
-0.679428
-0.679431
-0.679433
-0.679434
-0.679426
-0.679426
-0.679489
-0.679543
-0.679612
-0.733931
-0.733931
-0.733932
-0.733932
-0.733933
-0.733935
-0.733937
-0.73394
-0.733943
-0.733946
-0.733934
-0.733946
-0.734002
-0.734049
-0.73411
-0.788432
-0.788432
-0.788432
-0.788433
-0.788434
-0.788435
-0.788437
-0.78844
-0.788444
-0.788447
-0.788432
-0.788455
-0.788503
-0.788547
-0.788603
-0.842925
-0.842925
-0.842926
-0.842926
-0.842927
-0.842928
-0.84293
-0.842932
-0.842935
-0.842937
-0.842921
-0.842955
-0.842996
-0.84304
-0.843095
-0.897412
-0.897412
-0.897412
-0.897413
-0.897414
-0.897414
-0.897415
-0.897417
-0.897419
-0.897419
-0.897405
-0.897448
-0.897485
-0.897531
-0.897585
-0.951894
-0.951894
-0.951894
-0.951895
-0.951896
-0.951896
-0.951896
-0.951898
-0.951899
-0.951895
-0.951889
-0.951938
-0.951974
-0.952021
-0.952076
-1.00637
-1.00637
-1.00637
-1.00637
-1.00637
-1.00637
-1.00637
-1.00638
-1.00638
-1.00637
-1.00637
-1.00642
-1.00646
-1.00651
-1.00657
-1.06085
-1.06085
-1.06085
-1.06085
-1.06085
-1.06085
-1.06085
-1.06085
-1.06085
-1.06084
-1.06086
-1.06091
-1.06095
-1.061
-1.06106
-1.11533
-1.11533
-1.11533
-1.11533
-1.11533
-1.11533
-1.11533
-1.11533
-1.11533
-1.11531
-1.11535
-1.1154
-1.11544
-1.11549
-1.11555
-1.16982
-1.16982
-1.16981
-1.16981
-1.16981
-1.16981
-1.16981
-1.16981
-1.16981
-1.1698
-1.16984
-1.16988
-1.16993
-1.16999
-1.17004
-1.2243
-1.2243
-1.2243
-1.2243
-1.2243
-1.2243
-1.2243
-1.2243
-1.22429
-1.22429
-1.22434
-1.22438
-1.22443
-1.22448
-1.22454
-1.2788
-1.2788
-1.2788
-1.27879
-1.27879
-1.27879
-1.27879
-1.27879
-1.27878
-1.27879
-1.27884
-1.27888
-1.27893
-1.27898
-1.27904
-1.33329
-1.33329
-1.33329
-1.33329
-1.33329
-1.33329
-1.33329
-1.33329
-1.33327
-1.3333
-1.33334
-1.33339
-1.33344
-1.33349
-1.33355
-1.3878
-1.3878
-1.3878
-1.3878
-1.3878
-1.3878
-1.38779
-1.38779
-1.38778
-1.38781
-1.38785
-1.3879
-1.38795
-1.388
-1.38806
-1.44231
-1.44231
-1.44231
-1.44231
-1.44231
-1.4423
-1.4423
-1.4423
-1.44229
-1.44233
-1.44237
-1.44242
-1.44247
-1.44252
-1.44257
-1.49682
-1.49682
-1.49682
-1.49682
-1.49682
-1.49682
-1.49682
-1.49681
-1.49681
-1.49686
-1.49689
-1.49694
-1.49699
-1.49704
-1.49709
-1.55134
-1.55134
-1.55134
-1.55134
-1.55134
-1.55134
-1.55134
-1.55133
-1.55134
-1.55138
-1.55142
-1.55146
-1.55151
-1.55156
-1.55161
-1.60585
-1.60585
-1.60585
-1.60585
-1.60585
-1.60585
-1.60585
-1.60584
-1.60587
-1.6059
-1.60594
-1.60598
-1.60603
-1.60608
-1.60612
-1.66037
-1.66037
-1.66037
-1.66037
-1.66037
-1.66037
-1.66037
-1.66036
-1.66039
-1.66042
-1.66046
-1.66051
-1.66055
-1.6606
-1.66064
-1.71489
-1.71489
-1.71489
-1.71489
-1.71489
-1.71489
-1.71488
-1.71488
-1.71491
-1.71494
-1.71498
-1.71502
-1.71507
-1.71511
-1.71516
-1.7694
-1.7694
-1.7694
-1.7694
-1.7694
-1.7694
-1.76939
-1.7694
-1.76943
-1.76946
-1.7695
-1.76954
-1.76958
-1.76963
-1.76967
-1.82391
-1.82391
-1.82391
-1.82391
-1.82391
-1.82391
-1.8239
-1.82392
-1.82395
-1.82398
-1.82402
-1.82406
-1.8241
-1.82414
-1.82418
-1.87842
-1.87842
-1.87842
-1.87842
-1.87842
-1.87842
-1.87841
-1.87843
-1.87846
-1.87849
-1.87853
-1.87857
-1.87861
-1.87865
-1.87869
-1.93293
-1.93293
-1.93293
-1.93293
-1.93293
-1.93293
-1.93292
-1.93295
-1.93297
-1.933
-1.93304
-1.93308
-1.93312
-1.93316
-1.9332
-1.98743
-1.98743
-1.98743
-1.98743
-1.98743
-1.98743
-1.98743
-1.98746
-1.98748
-1.98752
-1.98755
-1.98759
-1.98763
-1.98767
-1.9877
-2.04194
-2.04194
-2.04194
-2.04194
-2.04194
-2.04193
-2.04194
-2.04197
-2.042
-2.04203
-2.04206
-2.0421
-2.04214
-2.04217
-2.04221
-2.09645
-2.09645
-2.09645
-2.09645
-2.09644
-2.09643
-2.09645
-2.09648
-2.09651
-2.09654
-2.09657
-2.09661
-2.09665
-2.09668
-2.09672
-2.15095
-2.15095
-2.15095
-2.15095
-2.15095
-2.15094
-2.15097
-2.15099
-2.15102
-2.15105
-2.15109
-2.15112
-2.15116
-2.15119
-2.15123
-2.20546
-2.20546
-2.20546
-2.20546
-2.20546
-2.20545
-2.20548
-2.20551
-2.20553
-2.20557
-2.2056
-2.20564
-2.20567
-2.20571
-2.20574
-2.25997
-2.25997
-2.25997
-2.25997
-2.25996
-2.25997
-2.26
-2.26002
-2.26005
-2.26009
-2.26012
-2.26016
-2.26019
-2.26023
-2.26026
-2.31448
-2.31448
-2.31448
-2.31448
-2.31447
-2.31449
-2.31452
-2.31454
-2.31458
-2.31461
-2.31464
-2.31468
-2.31471
-2.31475
-2.31478
-2.369
-2.369
-2.369
-2.369
-2.36899
-2.36901
-2.36904
-2.36907
-2.3691
-2.36914
-2.36917
-2.3692
-2.36924
-2.36927
-2.3693
-2.42352
-2.42352
-2.42352
-2.42352
-2.42351
-2.42354
-2.42357
-2.4236
-2.42363
-2.42367
-2.4237
-2.42373
-2.42377
-2.4238
-2.42383
-2.47804
-2.47804
-2.47804
-2.47804
-2.47804
-2.47807
-2.4781
-2.47813
-2.47816
-2.4782
-2.47823
-2.47827
-2.4783
-2.47833
-2.47836
-2.53257
-2.53257
-2.53257
-2.53256
-2.53258
-2.53261
-2.53264
-2.53267
-2.5327
-2.53274
-2.53277
-2.5328
-2.53284
-2.53287
-2.5329
-2.5871
-2.5871
-2.5871
-2.58709
-2.58712
-2.58715
-2.58718
-2.58721
-2.58724
-2.58728
-2.58731
-2.58734
-2.58738
-2.58741
-2.58744
-2.64163
-2.64163
-2.64163
-2.64162
-2.64166
-2.64169
-2.64172
-2.64175
-2.64179
-2.64182
-2.64185
-2.64189
-2.64192
-2.64195
-2.64198
-2.69617
-2.69617
-2.69616
-2.69617
-2.6962
-2.69623
-2.69626
-2.6963
-2.69633
-2.69637
-2.6964
-2.69643
-2.69646
-2.69649
-2.69652
-2.7507
-2.7507
-2.75069
-2.75071
-2.75075
-2.75078
-2.75081
-2.75085
-2.75088
-2.75091
-2.75095
-2.75098
-2.75101
-2.75104
-2.75107
-2.80524
-2.80524
-2.80523
-2.80526
-2.8053
-2.80533
-2.80536
-2.8054
-2.80543
-2.80546
-2.8055
-2.80553
-2.80556
-2.80559
-2.80561
-2.85978
-2.85978
-2.85978
-2.85981
-2.85985
-2.85988
-2.85991
-2.85995
-2.85998
-2.86001
-2.86004
-2.86008
-2.8601
-2.86013
-2.86016
-2.91432
-2.91431
-2.91433
-2.91437
-2.9144
-2.91443
-2.91447
-2.9145
-2.91453
-2.91456
-2.91459
-2.91462
-2.91465
-2.91468
-2.9147
-2.96885
-2.96885
-2.96888
-2.96892
-2.96895
-2.96899
-2.96902
-2.96905
-2.96908
-2.96912
-2.96915
-2.96917
-2.9692
-2.96923
-2.96925
-3.02339
-3.02339
-3.02344
-3.02347
-3.02351
-3.02354
-3.02357
-3.02361
-3.02364
-3.02367
-3.0237
-3.02372
-3.02375
-3.02377
-3.0238
-3.07792
-3.07794
-3.07799
-3.07803
-3.07806
-3.07809
-3.07813
-3.07816
-3.07819
-3.07822
-3.07825
-3.07827
-3.0783
-3.07832
-3.07834
-3.13245
-3.1325
-3.13255
-3.13258
-3.13262
-3.13265
-3.13268
-3.13271
-3.13274
-3.13277
-3.1328
-3.13282
-3.13285
-3.13287
-3.13289
-3.18699
-3.18706
-3.1871
-3.18714
-3.18717
-3.1872
-3.18723
-3.18726
-3.18729
-3.18732
-3.18735
-3.18737
-3.18739
-3.18741
-3.18743
-3.24154
-3.24161
-3.24165
-3.24169
-3.24172
-3.24176
-3.24179
-3.24182
-3.24184
-3.24187
-3.2419
-3.24192
-3.24194
-3.24196
-3.24198
-3.2961
-3.29617
-3.29621
-3.29624
-3.29628
-3.29631
-3.29634
-3.29637
-3.29639
-3.29642
-3.29644
-3.29646
-3.29649
-3.2965
-3.29652
-3.35066
-3.35072
-3.35076
-3.35079
-3.35083
-3.35086
-3.35089
-3.35091
-3.35094
-3.35096
-3.35099
-3.35101
-3.35103
-3.35105
-3.35107
-3.40522
-3.40527
-3.40531
-3.40534
-3.40537
-3.4054
-3.40543
-3.40546
-3.40548
-3.40551
-3.40553
-3.40555
-3.40557
-3.40559
-3.40561
-3.45977
-3.45983
-3.45985
-3.45988
-3.45992
-3.45994
-3.45997
-3.46
-3.46002
-3.46005
-3.46007
-3.46009
-3.46011
-3.46013
-3.46015
-3.51433
-3.51438
-3.5144
-3.51443
-3.51446
-3.51449
-3.51451
-3.51454
-3.51456
-3.51458
-3.5146
-3.51462
-3.51464
-3.51466
-3.51468
-3.56888
-3.56892
-3.56894
-3.56897
-3.56899
-3.56902
-3.56905
-3.56907
-3.56909
-3.56911
-3.56913
-3.56915
-3.56917
-3.56919
-3.56921
-3.62342
-3.62346
-3.62347
-3.6235
-3.62352
-3.62355
-3.62357
-3.6236
-3.62362
-3.62364
-3.62366
-3.62368
-3.6237
-3.62372
-3.62374
-3.67795
-3.67799
-3.678
-3.67802
-3.67805
-3.67807
-3.6781
-3.67812
-3.67814
-3.67816
-3.67818
-3.6782
-3.67822
-3.67824
-3.67826
-3.73247
-3.73251
-3.73252
-3.73254
-3.73257
-3.73259
-3.73261
-3.73263
-3.73265
-3.73267
-3.7327
-3.73272
-3.73274
-3.73276
-3.73277
-3.78699
-3.78703
-3.78704
-3.78706
-3.78708
-3.7871
-3.78712
-3.78714
-3.78716
-3.78718
-3.7872
-3.78723
-3.78725
-3.78727
-3.78729
-3.8415
-3.84153
-3.84154
-3.84156
-3.84158
-3.8416
-3.84162
-3.84164
-3.84167
-3.84169
-3.84171
-3.84173
-3.84175
-3.84177
-3.84179
-3.896
-3.89603
-3.89604
-3.89606
-3.89608
-3.8961
-3.89612
-3.89614
-3.89616
-3.89618
-3.8962
-3.89623
-3.89625
-3.89627
-3.89629
-3.95049
-3.95053
-3.95053
-3.95055
-3.95057
-3.95059
-3.95061
-3.95063
-3.95065
-3.95067
-3.9507
-3.95072
-3.95074
-3.95076
-3.95078
-4.00498
-4.00501
-4.00502
-4.00503
-4.00505
-4.00507
-4.00509
-4.00511
-4.00514
-4.00516
-4.00518
-4.0052
-4.00522
-4.00525
-4.00527
-4.05945
-4.05949
-4.0595
-4.05951
-4.05953
-4.05955
-4.05957
-4.05959
-4.05961
-4.05964
-4.05966
-4.05968
-4.0597
-4.05973
-4.05975
-4.11393
-4.11397
-4.11397
-4.11399
-4.114
-4.11402
-4.11404
-4.11406
-4.11409
-4.11411
-4.11413
-4.11415
-4.11417
-4.1142
-4.11422
-4.1684
-4.16843
-4.16844
-4.16845
-4.16847
-4.16849
-4.16851
-4.16853
-4.16855
-4.16857
-4.1686
-4.16862
-4.16864
-4.16866
-4.16868
-4.22286
-4.2229
-4.2229
-4.22291
-4.22293
-4.22295
-4.22297
-4.22299
-4.22301
-4.22303
-4.22305
-4.22308
-4.2231
-4.22312
-4.22314
-4.27732
-4.27736
-4.27736
-4.27737
-4.27739
-4.27741
-4.27742
-4.27744
-4.27747
-4.27749
-4.27751
-4.27753
-4.27755
-4.27757
-4.27759
-4.33178
-4.33181
-4.33182
-4.33183
-4.33184
-4.33186
-4.33188
-4.3319
-4.33192
-4.33194
-4.33196
-4.33198
-4.332
-4.33202
-4.33204
-4.38623
-4.38626
-4.38627
-4.38628
-4.38629
-4.38631
-4.38632
-4.38634
-4.38636
-4.38638
-4.3864
-4.38642
-4.38644
-4.38646
-4.38648
-4.44068
-4.44071
-4.44072
-4.44072
-4.44074
-4.44075
-4.44077
-4.44078
-4.4408
-4.44082
-4.44084
-4.44086
-4.44088
-4.44089
-4.44091
-4.49512
-4.49516
-4.49516
-4.49517
-4.49518
-4.49519
-4.49521
-4.49522
-4.49524
-4.49526
-4.49527
-4.49529
-4.49531
-4.49533
-4.49534
-4.54957
-4.5496
-4.5496
-4.54961
-4.54962
-4.54963
-4.54965
-4.54966
-4.54968
-4.54969
-4.54971
-4.54972
-4.54974
-4.54975
-4.54977
-4.60401
-4.60404
-4.60405
-4.60405
-4.60406
-4.60407
-4.60408
-4.6041
-4.60411
-4.60412
-4.60414
-4.60415
-4.60417
-4.60418
-4.6042
-4.65846
-4.65849
-4.65849
-4.65849
-4.6585
-4.65851
-4.65852
-4.65853
-4.65854
-4.65856
-4.65857
-4.65858
-4.6586
-4.65861
-4.65862
-4.7129
-4.71293
-4.71292
-4.71293
-4.71294
-4.71294
-4.71295
-4.71296
-4.71298
-4.71299
-4.713
-4.71301
-4.71303
-4.71304
-4.71305
-4.76734
-4.76736
-4.76736
-4.76737
-4.76737
-4.76738
-4.76739
-4.7674
-4.76741
-4.76742
-4.76743
-4.76744
-4.76746
-4.76747
-4.76748
-4.82178
-4.8218
-4.8218
-4.8218
-4.82181
-4.82182
-4.82182
-4.82183
-4.82184
-4.82185
-4.82186
-4.82188
-4.82189
-4.8219
-4.82191
-4.87621
-4.87624
-4.87624
-4.87624
-4.87625
-4.87625
-4.87626
-4.87627
-4.87628
-4.87629
-4.8763
-4.87631
-4.87632
-4.87633
-4.87634
-4.93065
-4.93068
-4.93068
-4.93068
-4.93068
-4.93069
-4.9307
-4.93071
-4.93071
-4.93072
-4.93073
-4.93074
-4.93075
-4.93076
-4.93078
-4.98509
-4.98512
-4.98512
-4.98512
-4.98512
-4.98513
-4.98514
-4.98514
-4.98515
-4.98516
-4.98517
-4.98518
-4.98519
-4.9852
-4.98521
-5.03953
-5.03956
-5.03956
-5.03956
-5.03956
-5.03957
-5.03958
-5.03958
-5.03959
-5.0396
-5.03961
-5.03962
-5.03963
-5.03964
-5.03965
-5.09398
-5.094
-5.094
-5.094
-5.094
-5.09401
-5.09402
-5.09402
-5.09403
-5.09404
-5.09405
-5.09406
-5.09407
-5.09408
-5.09409
-5.14842
-5.14844
-5.14844
-5.14844
-5.14845
-5.14845
-5.14846
-5.14846
-5.14847
-5.14848
-5.14849
-5.1485
-5.14851
-5.14851
-5.14852
-5.20286
-5.20289
-5.20289
-5.20289
-5.20289
-5.2029
-5.2029
-5.20291
-5.20291
-5.20292
-5.20293
-5.20294
-5.20295
-5.20295
-5.20296
-5.25731
-5.25733
-5.25733
-5.25733
-5.25734
-5.25734
-5.25734
-5.25735
-5.25736
-5.25736
-5.25737
-5.25738
-5.25739
-5.25739
-5.2574
-5.31176
-5.31178
-5.31178
-5.31178
-5.31178
-5.31179
-5.31179
-5.3118
-5.3118
-5.31181
-5.31181
-5.31182
-5.31183
-5.31184
-5.31184
-5.36621
-5.36623
-5.36623
-5.36623
-5.36623
-5.36623
-5.36624
-5.36624
-5.36625
-5.36625
-5.36626
-5.36626
-5.36627
-5.36628
-5.36628
-5.42066
-5.42068
-5.42068
-5.42068
-5.42068
-5.42068
-5.42068
-5.42069
-5.42069
-5.4207
-5.4207
-5.42071
-5.42071
-5.42072
-5.42072
-5.47511
-5.47513
-5.47513
-5.47513
-5.47513
-5.47513
-5.47513
-5.47514
-5.47514
-5.47514
-5.47515
-5.47515
-5.47516
-5.47516
-5.47517
-5.52957
-5.52959
-5.52958
-5.52958
-5.52958
-5.52959
-5.52959
-5.52959
-5.52959
-5.52959
-5.5296
-5.5296
-5.5296
-5.52961
-5.52961
-5.58403
-5.58405
-5.58404
-5.58404
-5.58404
-5.58404
-5.58404
-5.58404
-5.58405
-5.58405
-5.58405
-5.58405
-5.58405
-5.58405
-5.58406
-5.6385
-5.63851
-5.63851
-5.6385
-5.6385
-5.6385
-5.6385
-5.6385
-5.6385
-5.6385
-5.6385
-5.63851
-5.63851
-5.63851
-5.63851
-5.69297
-5.69298
-5.69298
-5.69297
-5.69297
-5.69297
-5.69297
-5.69297
-5.69297
-5.69297
-5.69297
-5.69296
-5.69296
-5.69296
-5.69296
-5.74745
-5.74746
-5.74745
-5.74745
-5.74745
-5.74744
-5.74744
-5.74744
-5.74744
-5.74744
-5.74743
-5.74743
-5.74743
-5.74742
-5.74742
-5.80193
-5.80194
-5.80194
-5.80193
-5.80193
-5.80193
-5.80192
-5.80192
-5.80192
-5.80191
-5.80191
-5.8019
-5.8019
-5.80189
-5.80189
-5.85643
-5.85643
-5.85643
-5.85642
-5.85642
-5.85642
-5.85641
-5.85641
-5.8564
-5.8564
-5.85639
-5.85639
-5.85638
-5.85637
-5.85637
-5.91093
-5.91094
-5.91093
-5.91093
-5.91092
-5.91092
-5.91091
-5.9109
-5.9109
-5.91089
-5.91089
-5.91088
-5.91087
-5.91086
-5.91086
-5.96545
-5.96545
-5.96545
-5.96544
-5.96543
-5.96543
-5.96542
-5.96541
-5.96541
-5.9654
-5.96539
-5.96538
-5.96537
-5.96537
-5.96536
-6.01998
-6.01998
-6.01997
-6.01997
-6.01996
-6.01995
-6.01994
-6.01994
-6.01993
-6.01992
-6.01991
-6.0199
-6.01989
-6.01988
-6.01987
-6.07452
-6.07452
-6.07451
-6.0745
-6.0745
-6.07449
-6.07448
-6.07447
-6.07446
-6.07445
-6.07444
-6.07443
-6.07442
-6.07441
-6.0744
-6.12907
-6.12907
-6.12906
-6.12906
-6.12905
-6.12904
-6.12903
-6.12902
-6.12901
-6.129
-6.12899
-6.12898
-6.12897
-6.12896
-6.12894
-6.18364
-6.18364
-6.18363
-6.18362
-6.18362
-6.18361
-6.1836
-6.18359
-6.18358
-6.18357
-6.18356
-6.18354
-6.18353
-6.18352
-6.1835
-6.23822
-6.23822
-6.23821
-6.23821
-6.2382
-6.23819
-6.23818
-6.23817
-6.23816
-6.23815
-6.23814
-6.23812
-6.23811
-6.2381
-6.23808
-6.29282
-6.29282
-6.29281
-6.2928
-6.2928
-6.29279
-6.29278
-6.29277
-6.29276
-6.29275
-6.29273
-6.29272
-6.29271
-6.29269
-6.29268
-6.34743
-6.34743
-6.34742
-6.34741
-6.34741
-6.3474
-6.34739
-6.34738
-6.34737
-6.34736
-6.34735
-6.34733
-6.34732
-6.34731
-6.34729
-6.40205
-6.40205
-6.40204
-6.40204
-6.40203
-6.40203
-6.40202
-6.40201
-6.402
-6.40199
-6.40198
-6.40197
-6.40195
-6.40194
-6.40193
-6.45668
-6.45668
-6.45668
-6.45667
-6.45667
-6.45666
-6.45666
-6.45665
-6.45664
-6.45663
-6.45662
-6.45661
-6.4566
-6.45659
-6.45658
-6.51132
-6.51132
-6.51132
-6.51132
-6.51132
-6.51131
-6.51131
-6.5113
-6.51129
-6.51129
-6.51128
-6.51127
-6.51126
-6.51125
-6.51124
-6.56596
-6.56597
-6.56597
-6.56597
-6.56597
-6.56597
-6.56597
-6.56596
-6.56596
-6.56595
-6.56594
-6.56594
-6.56593
-6.56592
-6.56592
-6.6206
-6.62062
-6.62062
-6.62063
-6.62063
-6.62063
-6.62063
-6.62063
-6.62062
-6.62062
-6.62062
-6.62061
-6.62061
-6.62061
-6.6206
-6.67524
-6.67526
-6.67527
-6.67528
-6.67528
-6.67529
-6.67529
-6.67529
-6.67529
-6.6753
-6.6753
-6.6753
-6.67529
-6.67529
-6.6753
-6.72986
-6.7299
-6.72991
-6.72992
-6.72993
-6.72994
-6.72994
-6.72995
-6.72996
-6.72996
-6.72997
-6.72997
-6.72998
-6.72998
-6.72999
-6.78446
-6.78451
-6.78452
-6.78454
-6.78456
-6.78457
-6.78459
-6.7846
-6.78461
-6.78462
-6.78463
-6.78464
-6.78465
-6.78466
-6.78468
-6.83902
-6.83909
-6.83911
-6.83913
-6.83915
-6.83918
-6.8392
-6.83922
-6.83924
-6.83925
-6.83927
-6.83929
-6.83931
-6.83933
-6.83935
-6.89353
-6.89362
-6.89365
-6.89368
-6.89371
-6.89374
-6.89377
-6.8938
-6.89383
-6.89386
-6.89389
-6.89391
-6.89394
-6.89397
-6.894
-6.94799
-6.9481
-6.94814
-6.94818
-6.94822
-6.94826
-6.9483
-6.94834
-6.94838
-6.94842
-6.94845
-6.94849
-6.94853
-6.94857
-6.94861
-7.00238
-7.00251
-7.00256
-7.0026
-7.00266
-7.00271
-7.00276
-7.00281
-7.00287
-7.00292
-7.00297
-7.00302
-7.00307
-7.00313
-7.00318
-7.05669
-7.05684
-7.05689
-7.05694
-7.05701
-7.05707
-7.05714
-7.05721
-7.05727
-7.05734
-7.05741
-7.05748
-7.05755
-7.05762
-7.05769
-7.11092
-7.11108
-7.11113
-7.11119
-7.11126
-7.11134
-7.11142
-7.11151
-7.11159
-7.11168
-7.11177
-7.11185
-7.11194
-7.11203
-7.11212
-7.16508
-7.16524
-7.16529
-7.16535
-7.16543
-7.16552
-7.16561
-7.16571
-7.16581
-7.16592
-7.16603
-7.16613
-7.16624
-7.16635
-7.16646
-7.21918
-7.21933
-7.21937
-7.21943
-7.21951
-7.21961
-7.21971
-7.21982
-7.21994
-7.22006
-7.22019
-7.22031
-7.22044
-7.22058
-7.22071
-7.27325
-7.27339
-7.27341
-7.27346
-7.27354
-7.27364
-7.27374
-7.27386
-7.27399
-7.27412
-7.27426
-7.27441
-7.27456
-7.27471
-7.27486
-7.32733
-7.32745
-7.32745
-7.32749
-7.32755
-7.32764
-7.32774
-7.32786