/*--------------------------------*- C++ -*----------------------------------*\
  =========                 |
  \\      /  F ield         | OpenFOAM: The Open Source CFD Toolbox
   \\    /   O peration     | Website:  https://openfoam.org
    \\  /    A nd           | Version:  7
     \\/     M anipulation  |
\*---------------------------------------------------------------------------*/
FoamFile
{
    version     2.0;
    format      ascii;
    class       surfaceScalarField;
    location    "100";
    object      phi;
}
// * * * * * * * * * * * * * * * * * * * * * * * * * * * * * * * * * * * * * //

dimensions      [0 3 -1 0 0 0 0];

internalField   nonuniform List<scalar> 
63695
(
-6.18762e-13
5.99129e-08
-2.4962e-12
1.79739e-07
-5.73377e-12
2.99565e-07
-1.05071e-11
4.19391e-07
-1.71119e-11
5.39217e-07
-2.60255e-11
6.59044e-07
-3.80594e-11
7.78872e-07
-5.44461e-11
8.98701e-07
-7.78957e-11
1.01853e-06
-1.16327e-10
1.13837e-06
-1.63884e-10
1.25821e-06
-3.31354e-10
1.37815e-06
-1.48627e-09
1.49896e-06
-4.47208e-09
1.62062e-06
1.73299e-06
-1.85951e-12
5.99148e-08
-7.51524e-12
1.79745e-07
-1.7269e-11
2.99575e-07
-3.16634e-11
4.19405e-07
-5.16157e-11
5.39237e-07
-7.86009e-11
6.59071e-07
-1.15155e-10
7.78909e-07
-1.65708e-10
8.98752e-07
-2.37514e-10
1.0186e-06
-3.56618e-10
1.13849e-06
-5.66185e-10
1.25842e-06
-8.21152e-10
1.37841e-06
-1.91694e-09
1.50006e-06
-6.18341e-09
1.62488e-06
1.7268e-06
-3.07314e-12
5.99179e-08
-1.24221e-11
1.79754e-07
-2.85305e-11
2.99591e-07
-5.22681e-11
4.19429e-07
-8.51051e-11
5.3927e-07
-1.29363e-10
6.59116e-07
-1.88887e-10
7.78968e-07
-2.70742e-10
8.98834e-07
-3.84138e-10
1.01872e-06
-5.53461e-10
1.13866e-06
-8.51203e-10
1.25871e-06
-1.1202e-09
1.37867e-06
-2.03507e-09
1.50097e-06
-5.99073e-09
1.62884e-06
1.72081e-06
-4.24162e-12
5.99221e-08
-1.71368e-11
1.79767e-07
-3.9315e-11
2.99613e-07
-7.19114e-11
4.19462e-07
-1.16817e-10
5.39315e-07
-1.76952e-10
6.59176e-07
-2.56757e-10
7.79048e-07
-3.64528e-10
8.98941e-07
-5.10289e-10
1.01886e-06
-7.02962e-10
1.13885e-06
-1.03982e-09
1.25905e-06
-1.33352e-09
1.37897e-06
-2.05242e-09
1.50169e-06
-5.63605e-09
1.63242e-06
1.71518e-06
-5.34445e-12
5.99275e-08
-2.15835e-11
1.79783e-07
-4.94496e-11
2.99641e-07
-9.02745e-11
4.19503e-07
-1.46186e-10
5.39371e-07
-2.20458e-10
6.5925e-07
-3.17573e-10
7.79145e-07
-4.45513e-10
8.99069e-07
-6.16633e-10
1.01904e-06
-8.23033e-10
1.13906e-06
-1.17543e-09
1.2594e-06
-1.50603e-09
1.3793e-06
-2.09814e-09
1.50228e-06
-5.27359e-09
1.6356e-06
1.7099e-06
-6.37194e-12
5.99338e-08
-2.57157e-11
1.79802e-07
-5.8839e-11
2.99674e-07
-1.07181e-10
4.19551e-07
-1.72944e-10
5.39437e-07
-2.59583e-10
6.59337e-07
-3.71467e-10
7.79257e-07
-5.15086e-10
8.99213e-07
-7.06672e-10
1.01923e-06
-9.25539e-10
1.13928e-06
-1.28046e-09
1.25976e-06
-1.64184e-09
1.37966e-06
-2.16243e-09
1.50281e-06
-4.93265e-09
1.63837e-06
1.70497e-06
-7.32165e-12
5.99412e-08
-2.95182e-11
1.79825e-07
-6.74393e-11
2.99712e-07
-1.2255e-10
4.19606e-07
-1.97041e-10
5.39511e-07
-2.94385e-10
6.59434e-07
-4.18961e-10
7.79382e-07
-5.74975e-10
8.99369e-07
-7.82419e-10
1.01943e-06
-1.01266e-09
1.13951e-06
-1.36183e-09
1.26011e-06
-1.74021e-09
1.38004e-06
-2.22146e-09
1.50329e-06
-4.6456e-09
1.64079e-06
1.70032e-06
-8.18657e-12
5.99494e-08
-3.29725e-11
1.79849e-07
-7.52157e-11
2.99754e-07
-1.3636e-10
4.19667e-07
-2.18546e-10
5.39594e-07
-3.25043e-10
6.59541e-07
-4.60438e-10
7.79517e-07
-6.26299e-10
8.99535e-07
-8.45087e-10
1.01965e-06
-1.08459e-09
1.13975e-06
-1.42435e-09
1.26045e-06
-1.80992e-09
1.38042e-06
-2.27122e-09
1.50375e-06
-4.41552e-09
1.64294e-06
1.69591e-06
-8.9586e-12
5.99583e-08
-3.60734e-11
1.79876e-07
-8.21653e-11
2.998e-07
-1.48645e-10
4.19734e-07
-2.37575e-10
5.39683e-07
-3.51791e-10
6.59655e-07
-4.96242e-10
7.79662e-07
-6.6997e-10
8.99709e-07
-8.96456e-10
1.01988e-06
-1.14327e-09
1.14e-06
-1.47344e-09
1.26078e-06
-1.86169e-09
1.38081e-06
-2.31432e-09
1.5042e-06
-4.22736e-09
1.64485e-06
1.69168e-06
-9.64951e-12
5.9968e-08
-3.88397e-11
1.79906e-07
-8.83321e-11
2.9985e-07
-1.5949e-10
4.19805e-07
-2.54275e-10
5.39777e-07
-3.7494e-10
6.59776e-07
-5.26863e-10
7.79814e-07
-7.0698e-10
8.99889e-07
-9.38669e-10
1.02011e-06
-1.19145e-09
1.14025e-06
-1.51308e-09
1.2611e-06
-1.9018e-09
1.3812e-06
-2.35189e-09
1.50465e-06
-4.06708e-09
1.64657e-06
1.68761e-06
-1.02678e-11
5.99782e-08
-4.12949e-11
1.79937e-07
-9.3777e-11
2.99902e-07
-1.69e-10
4.1988e-07
-2.68822e-10
5.39877e-07
-3.94872e-10
6.59902e-07
-5.52919e-10
7.79972e-07
-7.38293e-10
9.00074e-07
-9.73515e-10
1.02035e-06
-1.23125e-09
1.14051e-06
-1.54543e-09
1.26141e-06
-1.93295e-09
1.38159e-06
-2.38413e-09
1.5051e-06
-3.92688e-09
1.64811e-06
1.68369e-06
-1.0815e-11
5.9989e-08
-4.34465e-11
1.79969e-07
-9.85454e-11
2.99957e-07
-1.77269e-10
4.19959e-07
-2.81402e-10
5.39981e-07
-4.1198e-10
6.60032e-07
-5.75028e-10
7.80135e-07
-7.64726e-10
9.00264e-07
-1.00225e-09
1.02058e-06
-1.2641e-09
1.14077e-06
-1.57182e-09
1.26172e-06
-1.9569e-09
1.38197e-06
-2.41153e-09
1.50556e-06
-3.80255e-09
1.6495e-06
1.67988e-06
-1.12861e-11
6.00003e-08
-4.53115e-11
1.80003e-07
-1.02686e-10
3.00015e-07
-1.84402e-10
4.20041e-07
-2.9221e-10
5.40089e-07
-4.26615e-10
6.60167e-07
-5.93732e-10
7.80302e-07
-7.86968e-10
9.00457e-07
-1.02586e-09
1.02082e-06
-1.29111e-09
1.14103e-06
-1.59343e-09
1.26202e-06
-1.97532e-09
1.38236e-06
-2.43478e-09
1.50602e-06
-3.69101e-09
1.65076e-06
1.67619e-06
-1.16914e-11
6.0012e-08
-4.69229e-11
1.80039e-07
-1.06265e-10
3.00074e-07
-1.90522e-10
4.20125e-07
-3.01448e-10
5.402e-07
-4.3908e-10
6.60304e-07
-6.09494e-10
7.80472e-07
-8.05645e-10
9.00653e-07
-1.04519e-09
1.02106e-06
-1.31325e-09
1.1413e-06
-1.61126e-09
1.26232e-06
-1.98964e-09
1.38273e-06
-2.45445e-09
1.50648e-06
-3.58959e-09
1.65189e-06
1.6726e-06
-1.20409e-11
6.00241e-08
-4.83205e-11
1.80075e-07
-1.09354e-10
3.00135e-07
-1.95767e-10
4.20211e-07
-3.0932e-10
5.40314e-07
-4.49647e-10
6.60445e-07
-6.22718e-10
7.80645e-07
-8.21321e-10
9.00852e-07
-1.06103e-09
1.0213e-06
-1.33134e-09
1.14157e-06
-1.62601e-09
1.26262e-06
-2.00081e-09
1.38311e-06
-2.47093e-09
1.50695e-06
-3.49624e-09
1.65292e-06
1.66911e-06
-1.23466e-11
6.00364e-08
-4.9526e-11
1.80112e-07
-1.12008e-10
3.00198e-07
-2.00253e-10
4.203e-07
-3.16013e-10
5.4043e-07
-4.58568e-10
6.60587e-07
-6.3376e-10
7.80821e-07
-8.34474e-10
9.01053e-07
-1.07404e-09
1.02154e-06
-1.34606e-09
1.14184e-06
-1.63816e-09
1.26291e-06
-2.00946e-09
1.38348e-06
-2.48462e-09
1.50743e-06
-3.40954e-09
1.65384e-06
1.6657e-06
-1.26085e-11
6.0049e-08
-5.05542e-11
1.8015e-07
-1.14268e-10
3.00261e-07
-2.04074e-10
4.20389e-07
-3.21683e-10
5.40547e-07
-4.6607e-10
6.60732e-07
-6.42931e-10
7.80998e-07
-8.45489e-10
9.01255e-07
-1.08472e-09
1.02178e-06
-1.35798e-09
1.14212e-06
-1.64809e-09
1.2632e-06
-2.0161e-09
1.38385e-06
-2.49593e-09
1.50791e-06
-3.32856e-09
1.65468e-06
1.66237e-06
-1.28329e-11
6.00619e-08
-5.1418e-11
1.80189e-07
-1.16173e-10
3.00326e-07
-2.07304e-10
4.20481e-07
-3.26459e-10
5.40666e-07
-4.72353e-10
6.60878e-07
-6.50506e-10
7.81176e-07
-8.54669e-10
9.0146e-07
-1.09348e-09
1.02202e-06
-1.36759e-09
1.14239e-06
-1.65617e-09
1.26349e-06
-2.02112e-09
1.38421e-06
-2.50522e-09
1.50839e-06
-3.25257e-09
1.65542e-06
1.65912e-06
-1.302e-11
6.00749e-08
-5.21432e-11
1.80228e-07
-1.17772e-10
3.00392e-07
-2.10016e-10
4.20573e-07
-3.30457e-10
5.40787e-07
-4.776e-10
6.61025e-07
-6.56727e-10
7.81355e-07
-8.62271e-10
9.01665e-07
-1.10063e-09
1.02226e-06
-1.37529e-09
1.14267e-06
-1.66272e-09
1.26377e-06
-2.02487e-09
1.38458e-06
-2.51275e-09
1.50888e-06
-3.18097e-09
1.65609e-06
1.65594e-06
-1.31793e-11
6.00881e-08
-5.27527e-11
1.80267e-07
-1.19112e-10
3.00458e-07
-2.12282e-10
4.20666e-07
-3.33788e-10
5.40908e-07
-4.81975e-10
6.61173e-07
-6.61815e-10
7.81535e-07
-8.68518e-10
9.01872e-07
-1.10643e-09
1.0225e-06
-1.38143e-09
1.14294e-06
-1.66799e-09
1.26406e-06
-2.02757e-09
1.38494e-06
-2.51874e-09
1.50937e-06
-3.11322e-09
1.65669e-06
1.65282e-06
-1.33108e-11
6.01014e-08
-5.327e-11
1.80307e-07
-1.20238e-10
3.00525e-07
-2.14169e-10
4.2076e-07
-3.36549e-10
5.41031e-07
-4.85619e-10
6.61322e-07
-6.6596e-10
7.81715e-07
-8.73613e-10
9.0208e-07
-1.11108e-09
1.02273e-06
-1.38626e-09
1.14322e-06
-1.67221e-09
1.26435e-06
-2.02941e-09
1.38529e-06
-2.52333e-09
1.50986e-06
-3.04894e-09
1.65721e-06
1.64977e-06
-1.34226e-11
6.01148e-08
-5.37054e-11
1.80348e-07
-1.2118e-10
3.00593e-07
-2.15733e-10
4.20854e-07
-3.38824e-10
5.41154e-07
-4.88647e-10
6.61472e-07
-6.69324e-10
7.81896e-07
-8.77734e-10
9.02288e-07
-1.11477e-09
1.02297e-06
-1.38999e-09
1.14349e-06
-1.67551e-09
1.26463e-06
-2.03055e-09
1.38565e-06
-2.52672e-09
1.51036e-06
-2.98781e-09
1.65767e-06
1.64679e-06
-1.35124e-11
6.01283e-08
-5.40702e-11
1.80388e-07
-1.21963e-10
3.0066e-07
-2.1702e-10
4.2095e-07
-3.40681e-10
5.41277e-07
-4.91147e-10
6.61622e-07
-6.72037e-10
7.82077e-07
-8.81039e-10
9.02497e-07
-1.11764e-09
1.02321e-06
-1.39279e-09
1.14377e-06
-1.67803e-09
1.26492e-06
-2.03111e-09
1.386e-06
-2.52905e-09
1.51086e-06
-2.92962e-09
1.65807e-06
1.64386e-06
-1.35882e-11
6.01419e-08
-5.43685e-11
1.80429e-07
-1.22605e-10
3.00729e-07
-2.18071e-10
4.21045e-07
-3.42179e-10
5.41402e-07
-4.9319e-10
6.61773e-07
-6.74199e-10
7.82258e-07
-8.83661e-10
9.02707e-07
-1.11984e-09
1.02344e-06
-1.39481e-09
1.14404e-06
-1.67989e-09
1.2652e-06
-2.03122e-09
1.38635e-06
-2.53049e-09
1.51136e-06
-2.87414e-09
1.65842e-06
1.64098e-06
-1.36475e-11
6.01556e-08
-5.46117e-11
1.8047e-07
-1.23126e-10
3.00797e-07
-2.18921e-10
4.21141e-07
-3.43367e-10
5.41526e-07
-4.94832e-10
6.61925e-07
-6.75891e-10
7.82439e-07
-8.85711e-10
9.02916e-07
-1.12148e-09
1.02368e-06
-1.39618e-09
1.14432e-06
-1.68118e-09
1.26549e-06
-2.03096e-09
1.3867e-06
-2.53115e-09
1.51186e-06
-2.82121e-09
1.65871e-06
1.63816e-06
-1.36985e-11
6.01693e-08
-5.48051e-11
1.80511e-07
-1.23544e-10
3.00866e-07
-2.19604e-10
4.21237e-07
-3.44295e-10
5.41651e-07
-4.96127e-10
6.62077e-07
-6.77182e-10
7.8262e-07
-8.87282e-10
9.03127e-07
-1.12267e-09
1.02391e-06
-1.39702e-09
1.14459e-06
-1.682e-09
1.26577e-06
-2.03041e-09
1.38705e-06
-2.53114e-09
1.51236e-06
-2.7706e-09
1.65895e-06
1.63539e-06
-1.37371e-11
6.0183e-08
-5.49595e-11
1.80552e-07
-1.23877e-10
3.00935e-07
-2.20148e-10
4.21333e-07
-3.45005e-10
5.41776e-07
-4.97125e-10
6.62229e-07
-6.78131e-10
7.82801e-07
-8.88449e-10
9.03337e-07
-1.12349e-09
1.02415e-06
-1.39742e-09
1.14486e-06
-1.68241e-09
1.26606e-06
-2.02962e-09
1.3874e-06
-2.53051e-09
1.51286e-06
-2.7222e-09
1.65914e-06
1.63267e-06
-1.37706e-11
6.01968e-08
-5.50786e-11
1.80593e-07
-1.24135e-10
3.01004e-07
-2.20578e-10
4.2143e-07
-3.45538e-10
5.41901e-07
-4.97875e-10
6.62381e-07
-6.78795e-10
7.82982e-07
-8.89275e-10
9.03547e-07
-1.124e-09
1.02438e-06
-1.39746e-09
1.14514e-06
-1.68249e-09
1.26634e-06
-2.02863e-09
1.38774e-06
-2.52935e-09
1.51336e-06
-2.6758e-09
1.65928e-06
1.62999e-06
-1.37937e-11
6.02106e-08
-5.5171e-11
1.80635e-07
-1.24334e-10
3.01073e-07
-2.20912e-10
4.21526e-07
-3.45925e-10
5.42026e-07
-4.98421e-10
6.62534e-07
-6.7922e-10
7.83163e-07
-8.8981e-10
9.03758e-07
-1.12425e-09
1.02462e-06
-1.3972e-09
1.14541e-06
-1.68228e-09
1.26663e-06
-2.02749e-09
1.38809e-06
-2.52768e-09
1.51386e-06
-2.63136e-09
1.65939e-06
1.62736e-06
-1.38135e-11
6.02244e-08
-5.52378e-11
1.80676e-07
-1.24479e-10
3.01142e-07
-2.21165e-10
4.21623e-07
-3.46194e-10
5.42151e-07
-4.988e-10
6.62686e-07
-6.7945e-10
7.83343e-07
-8.90098e-10
9.03969e-07
-1.12428e-09
1.02485e-06
-1.3967e-09
1.14568e-06
-1.68184e-09
1.26691e-06
-2.02621e-09
1.38843e-06
-2.52558e-09
1.51436e-06
-2.5887e-09
1.65945e-06
1.62477e-06
-1.38245e-11
6.02382e-08
-5.52855e-11
1.80718e-07
-1.24579e-10
3.01212e-07
-2.21346e-10
4.2172e-07
-3.46363e-10
5.42276e-07
-4.99042e-10
6.62839e-07
-6.79522e-10
7.83524e-07
-8.90176e-10
9.04179e-07
-1.12412e-09
1.02509e-06
-1.396e-09
1.14596e-06
-1.6812e-09
1.2672e-06
-2.02484e-09
1.38878e-06
-2.52309e-09
1.51486e-06
-2.54778e-09
1.65948e-06
1.62222e-06
-1.38341e-11
6.0252e-08
-5.53147e-11
1.80759e-07
-1.24637e-10
3.01281e-07
-2.21463e-10
4.21817e-07
-3.46449e-10
5.42401e-07
-4.99173e-10
6.62992e-07
-6.79464e-10
7.83704e-07
-8.90078e-10
9.0439e-07
-1.1238e-09
1.02532e-06
-1.39513e-09
1.14623e-06
-1.68041e-09
1.26748e-06
-2.0234e-09
1.38912e-06
-2.52026e-09
1.51535e-06
-2.50847e-09
1.65946e-06
1.61972e-06
-1.38373e-11
6.02659e-08
-5.53318e-11
1.80801e-07
-1.24664e-10
3.0135e-07
-2.21527e-10
4.21913e-07
-3.46463e-10
5.42526e-07
-4.9921e-10
6.63145e-07
-6.79303e-10
7.83884e-07
-8.89834e-10
9.04601e-07
-1.12335e-09
1.02555e-06
-1.39413e-09
1.1465e-06
-1.67949e-09
1.26777e-06
-2.02193e-09
1.38946e-06
-2.51713e-09
1.51585e-06
-2.4707e-09
1.65942e-06
1.61725e-06
-1.38413e-11
6.02797e-08
-5.53372e-11
1.80842e-07
-1.24661e-10
3.0142e-07
-2.21543e-10
4.2201e-07
-3.46416e-10
5.42651e-07
-4.99167e-10
6.63297e-07
-6.79059e-10
7.84064e-07
-8.89471e-10
9.04811e-07
-1.12278e-09
1.02579e-06
-1.39302e-09
1.14677e-06
-1.67847e-09
1.26805e-06
-2.02042e-09
1.38981e-06
-2.51373e-09
1.51634e-06
-2.43435e-09
1.65934e-06
1.61481e-06
-1.38404e-11
6.02936e-08
-5.53358e-11
1.80884e-07
-1.24639e-10
3.01489e-07
-2.21521e-10
4.22107e-07
-3.46317e-10
5.42775e-07
-4.99058e-10
6.6345e-07
-6.78748e-10
7.84244e-07
-8.89015e-10
9.05021e-07
-1.12214e-09
1.02602e-06
-1.39183e-09
1.14704e-06
-1.67737e-09
1.26834e-06
-2.0189e-09
1.39015e-06
-2.51007e-09
1.51683e-06
-2.39937e-09
1.65923e-06
1.61241e-06
-1.38411e-11
6.03074e-08
-5.53271e-11
1.80925e-07
-1.246e-10
3.01558e-07
-2.21468e-10
4.22204e-07
-3.46176e-10
5.429e-07
-4.98892e-10
6.63603e-07
-6.78384e-10
7.84423e-07
-8.88485e-10
9.05231e-07
-1.12142e-09
1.02625e-06
-1.39058e-09
1.14731e-06
-1.6762e-09
1.26863e-06
-2.01738e-09
1.39049e-06
-2.5062e-09
1.51732e-06
-2.36563e-09
1.65909e-06
1.61005e-06
-1.38373e-11
6.03212e-08
-5.53153e-11
1.80967e-07
-1.24552e-10
3.01627e-07
-2.21392e-10
4.22301e-07
-3.46001e-10
5.43025e-07
-4.98679e-10
6.63756e-07
-6.77979e-10
7.84603e-07
-8.879e-10
9.05441e-07
-1.12066e-09
1.02649e-06
-1.38929e-09
1.14758e-06
-1.67498e-09
1.26891e-06
-2.01585e-09
1.39083e-06
-2.5021e-09
1.51781e-06
-2.33312e-09
1.65892e-06
1.60771e-06
-1.3835e-11
6.03351e-08
-5.52989e-11
1.81008e-07
-1.24494e-10
3.01697e-07
-2.213e-10
4.22398e-07
-3.45802e-10
5.43149e-07
-4.98429e-10
6.63908e-07
-6.77543e-10
7.84782e-07
-8.87272e-10
9.05651e-07
-1.11987e-09
1.02672e-06
-1.38797e-09
1.14784e-06
-1.67373e-09
1.2692e-06
-2.01433e-09
1.39117e-06
-2.49783e-09
1.51829e-06
-2.30172e-09
1.65872e-06
1.60541e-06
-1.38281e-11
6.03489e-08
-5.52805e-11
1.8105e-07
-1.24432e-10
3.01766e-07
-2.21196e-10
4.22495e-07
-3.45585e-10
5.43274e-07
-4.98149e-10
6.64061e-07
-6.77084e-10
7.84961e-07
-8.86615e-10
9.05861e-07
-1.11906e-09
1.02695e-06
-1.38663e-09
1.14811e-06
-1.67244e-09
1.26948e-06
-2.01282e-09
1.39151e-06
-2.49337e-09
1.51877e-06
-2.27142e-09
1.6585e-06
1.60314e-06
-1.38228e-11
6.03627e-08
-5.52582e-11
1.81091e-07
-1.24366e-10
3.01835e-07
-2.21084e-10
4.22591e-07
-3.45358e-10
5.43398e-07
-4.97849e-10
6.64213e-07
-6.7661e-10
7.8514e-07
-8.85937e-10
9.0607e-07
-1.11824e-09
1.02718e-06
-1.38529e-09
1.14838e-06
-1.67114e-09
1.26977e-06
-2.01132e-09
1.39185e-06
-2.48876e-09
1.51925e-06
-2.24211e-09
1.65825e-06
1.6009e-06
-1.38134e-11
6.03765e-08
-5.52347e-11
1.81132e-07
-1.24298e-10
3.01904e-07
-2.20969e-10
4.22688e-07
-3.45126e-10
5.43522e-07
-4.97536e-10
6.64366e-07
-6.76129e-10
7.85318e-07
-8.85247e-10
9.06279e-07
-1.11741e-09
1.02742e-06
-1.38396e-09
1.14865e-06
-1.66983e-09
1.27005e-06
-2.00985e-09
1.39219e-06
-2.48399e-09
1.51973e-06
-2.2138e-09
1.65798e-06
1.59868e-06
-1.38061e-11
6.03903e-08
-5.52086e-11
1.81174e-07
-1.24227e-10
3.01973e-07
-2.20853e-10
4.22785e-07
-3.44895e-10
5.43646e-07
-4.97216e-10
6.64518e-07
-6.75648e-10
7.85497e-07
-8.84554e-10
9.06488e-07
-1.11658e-09
1.02765e-06
-1.38263e-09
1.14891e-06
-1.66853e-09
1.27034e-06
-2.0084e-09
1.39253e-06
-2.47911e-09
1.5202e-06
-2.18637e-09
1.65769e-06
1.5965e-06
-1.37958e-11
6.04041e-08
-5.51824e-11
1.81215e-07
-1.24157e-10
3.02042e-07
-2.20737e-10
4.22881e-07
-3.44669e-10
5.4377e-07
-4.96896e-10
6.6467e-07
-6.75172e-10
7.85675e-07
-8.83866e-10
9.06697e-07
-1.11576e-09
1.02788e-06
-1.38133e-09
1.14918e-06
-1.66725e-09
1.27063e-06
-2.007e-09
1.39287e-06
-2.47409e-09
1.52066e-06
-2.15982e-09
1.65738e-06
1.59434e-06
-1.37885e-11
6.04179e-08
-5.51552e-11
1.81257e-07
-1.24087e-10
3.02111e-07
-2.20625e-10
4.22978e-07
-3.44452e-10
5.43894e-07
-4.96584e-10
6.64822e-07
-6.7471e-10
7.85853e-07
-8.8319e-10
9.06905e-07
-1.11497e-09
1.02811e-06
-1.38006e-09
1.14944e-06
-1.66599e-09
1.27091e-06
-2.00563e-09
1.39321e-06
-2.46899e-09
1.52113e-06
-2.13405e-09
1.65704e-06
1.5922e-06
-1.37797e-11
6.04317e-08
-5.513e-11
1.81298e-07
-1.24021e-10
3.0218e-07
-2.20518e-10
4.23074e-07
-3.44247e-10
5.44018e-07
-4.96284e-10
6.64975e-07
-6.74269e-10
7.86031e-07
-8.82534e-10
9.07114e-07
-1.11419e-09
1.02834e-06
-1.37883e-09
1.14971e-06
-1.66475e-09
1.2712e-06
-2.00432e-09
1.39355e-06
-2.46376e-09
1.52159e-06
-2.10907e-09
1.65669e-06
1.59009e-06
-1.37745e-11
6.04455e-08
-5.51062e-11
1.81339e-07
-1.23957e-10
3.02249e-07
-2.20419e-10
4.23171e-07
-3.44059e-10
5.44141e-07
-4.96005e-10
6.65127e-07
-6.73856e-10
7.86209e-07
-8.81908e-10
9.07322e-07
-1.11346e-09
1.02858e-06
-1.37764e-09
1.14997e-06
-1.66357e-09
1.27148e-06
-2.00305e-09
1.39389e-06
-2.45846e-09
1.52204e-06
-2.08479e-09
1.65631e-06
1.58801e-06
-1.37684e-11
6.04592e-08
-5.50864e-11
1.81381e-07
-1.23902e-10
3.02317e-07
-2.20331e-10
4.23267e-07
-3.43892e-10
5.44265e-07
-4.9575e-10
6.65278e-07
-6.73479e-10
7.86387e-07
-8.81321e-10
9.07529e-07
-1.11276e-09
1.02881e-06
-1.3765e-09
1.15023e-06
-1.66242e-09
1.27177e-06
-2.00185e-09
1.39423e-06
-2.45306e-09
1.52249e-06
-2.0612e-09
1.65592e-06
1.58595e-06
-1.37662e-11
6.0473e-08
-5.50699e-11
1.81422e-07
-1.23854e-10
3.02386e-07
-2.20257e-10
4.23364e-07
-3.43749e-10
5.44388e-07
-4.95528e-10
6.6543e-07
-6.73147e-10
7.86564e-07
-8.80782e-10
9.07737e-07
-1.11212e-09
1.02904e-06
-1.37544e-09
1.1505e-06
-1.66134e-09
1.27206e-06
-2.0007e-09
1.39457e-06
-2.44761e-09
1.52294e-06
-2.03824e-09
1.65551e-06
1.58391e-06
-1.37634e-11
6.04868e-08
-5.50599e-11
1.81463e-07
-1.2382e-10
3.02455e-07
-2.20202e-10
4.2346e-07
-3.43636e-10
5.44512e-07
-4.95346e-10
6.65582e-07
-6.72869e-10
7.86742e-07
-8.80304e-10
9.07945e-07
-1.11155e-09
1.02927e-06
-1.37445e-09
1.15076e-06
-1.66033e-09
1.27234e-06
-1.99963e-09
1.39491e-06
-2.44208e-09
1.52338e-06
-2.01591e-09
1.65509e-06
1.58189e-06
-1.37642e-11
6.05005e-08
-5.50556e-11
1.81504e-07
-1.23798e-10
3.02524e-07
-2.2017e-10
4.23556e-07
-3.43559e-10
5.44635e-07
-4.9521e-10
6.65734e-07
-6.72655e-10
7.86919e-07
-8.79899e-10
9.08152e-07
-1.11106e-09
1.0295e-06
-1.37356e-09
1.15102e-06
-1.65941e-09
1.27263e-06
-1.99862e-09
1.39525e-06
-2.43652e-09
1.52382e-06
-1.99413e-09
1.65464e-06
1.5799e-06
-1.37649e-11
6.05143e-08
-5.50598e-11
1.81546e-07
-1.23795e-10
3.02592e-07
-2.20165e-10
4.23653e-07
-3.43525e-10
5.44759e-07
-4.9513e-10
6.65885e-07
-6.72514e-10
7.87097e-07
-8.79581e-10
9.08359e-07
-1.11066e-09
1.02973e-06
-1.37277e-09
1.15129e-06
-1.65858e-09
1.27291e-06
-1.99773e-09
1.39558e-06
-2.43093e-09
1.52425e-06
-1.97299e-09
1.65419e-06
1.57793e-06
-1.37696e-11
6.05281e-08
-5.50715e-11
1.81587e-07
-1.23812e-10
3.02661e-07
-2.20193e-10
4.23749e-07
-3.43541e-10
5.44882e-07
-4.95115e-10
6.66037e-07
-6.72458e-10
7.87274e-07
-8.79366e-10
9.08566e-07
-1.11037e-09
1.02996e-06
-1.37211e-09
1.15155e-06
-1.65788e-09
1.2732e-06
-1.99693e-09
1.39592e-06
-2.42534e-09
1.52468e-06
-1.95234e-09
1.65371e-06
1.57598e-06
-1.37747e-11
6.05418e-08
-5.50945e-11
1.81628e-07
-1.23852e-10
3.0273e-07
-2.2026e-10
4.23846e-07
-3.43615e-10
5.45005e-07
-4.95178e-10
6.66188e-07
-6.72503e-10
7.87451e-07
-8.79271e-10
9.08773e-07
-1.11021e-09
1.03019e-06
-1.37159e-09
1.15181e-06
-1.65731e-09
1.27349e-06
-1.99626e-09
1.39626e-06
-2.41967e-09
1.5251e-06
-1.9323e-09
1.65322e-06
1.57404e-06
-1.37843e-11
6.05556e-08
-5.51281e-11
1.8167e-07
-1.23918e-10
3.02799e-07
-2.20371e-10
4.23942e-07
-3.43757e-10
5.45129e-07
-4.95331e-10
6.6634e-07
-6.72663e-10
7.87629e-07
-8.79315e-10
9.08979e-07
-1.11022e-09
1.03042e-06
-1.37124e-09
1.15207e-06
-1.65691e-09
1.27377e-06
-1.99573e-09
1.3966e-06
-2.41413e-09
1.52552e-06
-1.91272e-09
1.65272e-06
1.57213e-06
-1.37951e-11
6.05694e-08
-5.51766e-11
1.81711e-07
-1.24017e-10
3.02868e-07
-2.20534e-10
4.24039e-07
-3.43978e-10
5.45252e-07
-4.9559e-10
6.66492e-07
-6.7296e-10
7.87806e-07
-8.79523e-10
9.09186e-07
-1.11041e-09
1.03066e-06
-1.3711e-09
1.15233e-06
-1.65669e-09
1.27406e-06
-1.9954e-09
1.39694e-06
-2.40856e-09
1.52594e-06
-1.89379e-09
1.65221e-06
1.57024e-06
-1.38116e-11
6.05832e-08
-5.5239e-11
1.81752e-07
-1.24149e-10
3.02937e-07
-2.20757e-10
4.24135e-07
-3.44289e-10
5.45376e-07
-4.95972e-10
6.66643e-07
-6.73415e-10
7.87984e-07
-8.79921e-10
9.09392e-07
-1.11081e-09
1.03089e-06
-1.37119e-09
1.15259e-06
-1.65671e-09
1.27434e-06
-1.99526e-09
1.39728e-06
-2.40317e-09
1.52634e-06
-1.87523e-09
1.65168e-06
1.56836e-06
-1.38304e-11
6.05971e-08
-5.53211e-11
1.81794e-07
-1.24323e-10
3.03006e-07
-2.21049e-10
4.24232e-07
-3.44706e-10
5.455e-07
-4.96498e-10
6.66795e-07
-6.74054e-10
7.88161e-07
-8.80541e-10
9.09599e-07
-1.11146e-09
1.03112e-06
-1.37156e-09
1.15285e-06
-1.65701e-09
1.27463e-06
-1.99539e-09
1.39762e-06
-2.39783e-09
1.52675e-06
-1.85743e-09
1.65114e-06
1.5665e-06
-1.38564e-11
6.06109e-08
-5.54211e-11
1.81836e-07
-1.24541e-10
3.03075e-07
-2.21418e-10
4.24329e-07
-3.45242e-10
5.45623e-07
-4.97188e-10
6.66947e-07
-6.74908e-10
7.88339e-07
-8.8142e-10
9.09805e-07
-1.11241e-09
1.03135e-06
-1.37227e-09
1.15311e-06
-1.65764e-09
1.27491e-06
-1.99579e-09
1.39796e-06
-2.39275e-09
1.52714e-06
-1.83998e-09
1.65059e-06
1.56466e-06
-1.3886e-11
6.06248e-08
-5.55458e-11
1.81877e-07
-1.2481e-10
3.03144e-07
-2.21876e-10
4.24426e-07
-3.45915e-10
5.45747e-07
-4.98069e-10
6.67099e-07
-6.76009e-10
7.88517e-07
-8.82603e-10
9.10012e-07
-1.11371e-09
1.03158e-06
-1.37336e-09
1.15337e-06
-1.65865e-09
1.2752e-06
-1.99658e-09
1.39829e-06
-2.38781e-09
1.52754e-06
-1.82344e-09
1.65002e-06
1.56284e-06
-1.39243e-11
6.06387e-08
-5.56933e-11
1.81919e-07
-1.25136e-10
3.03213e-07
-2.22434e-10
4.24523e-07
-3.46744e-10
5.45872e-07
-4.99166e-10
6.67252e-07
-6.77395e-10
7.88695e-07
-8.8414e-10
9.10219e-07
-1.11541e-09
1.03181e-06
-1.37491e-09
1.15363e-06
-1.66015e-09
1.27548e-06
-1.99779e-09
1.39863e-06
-2.38325e-09
1.52792e-06
-1.80729e-09
1.64945e-06
1.56103e-06
-1.39674e-11
6.06527e-08
-5.58718e-11
1.81961e-07
-1.25526e-10
3.03283e-07
-2.23104e-10
4.24621e-07
-3.47747e-10
5.45996e-07
-5.00511e-10
6.67405e-07
-6.7911e-10
7.88874e-07
-8.86087e-10
9.10426e-07
-1.1176e-09
1.03204e-06
-1.37699e-09
1.15389e-06
-1.6622e-09
1.27577e-06
-1.99955e-09
1.39897e-06
-2.379e-09
1.5283e-06
-1.79224e-09
1.64886e-06
1.55924e-06
-1.40208e-11
6.06667e-08
-5.60784e-11
1.82003e-07
-1.25984e-10
3.03353e-07
-2.23898e-10
4.24719e-07
-3.48947e-10
5.46122e-07
-5.02135e-10
6.67558e-07
-6.81198e-10
7.89053e-07
-8.8851e-10
9.10633e-07
-1.12035e-09
1.03227e-06
-1.37971e-09
1.15415e-06
-1.66492e-09
1.27605e-06
-2.00194e-09
1.39931e-06
-2.37531e-09
1.52867e-06
-1.77771e-09
1.64826e-06
1.55746e-06
-1.40802e-11
6.06808e-08
-5.63213e-11
1.82045e-07
-1.2652e-10
3.03423e-07
-2.24829e-10
4.24817e-07
-3.50365e-10
5.46247e-07
-5.04075e-10
6.67711e-07
-6.83713e-10
7.89233e-07
-8.91481e-10
9.10841e-07
-1.12376e-09
1.03251e-06
-1.38319e-09
1.15441e-06
-1.66845e-09
1.27634e-06
-2.00514e-09
1.39964e-06
-2.3722e-09
1.52904e-06
-1.76457e-09
1.64766e-06
1.5557e-06
-1.41511e-11
6.06949e-08
-5.65971e-11
1.82088e-07
-1.27137e-10
3.03494e-07
-2.2591e-10
4.24916e-07
-3.52023e-10
5.46373e-07
-5.06367e-10
6.67866e-07
-6.86711e-10
7.89413e-07
-8.95081e-10
9.11049e-07
-1.12794e-09
1.03274e-06
-1.38757e-09
1.15467e-06
-1.67295e-09
1.27662e-06
-2.00929e-09
1.39998e-06
-2.36993e-09
1.5294e-06
-1.75221e-09
1.64704e-06
1.55395e-06
-1.4229e-11
6.07092e-08
-5.69142e-11
1.8213e-07
-1.27843e-10
3.03565e-07
-2.27151e-10
4.25015e-07
-3.53943e-10
5.465e-07
-5.09049e-10
6.68021e-07
-6.90252e-10
7.89594e-07
-8.994e-10
9.11259e-07
-1.13303e-09
1.03297e-06
-1.39301e-09
1.15493e-06
-1.67862e-09
1.27691e-06
-2.01465e-09
1.40031e-06
-2.36869e-09
1.52976e-06
-1.74176e-09
1.64641e-06
1.5522e-06
-1.4319e-11
6.07235e-08
-5.72674e-11
1.82173e-07
-1.28639e-10
3.03636e-07
-2.28562e-10
4.25115e-07
-3.56143e-10
5.46628e-07
-5.12156e-10
6.68177e-07
-6.94398e-10
7.89777e-07
-9.04536e-10
9.11469e-07
-1.13915e-09
1.03321e-06
-1.39972e-09
1.15519e-06
-1.68571e-09
1.2772e-06
-2.02146e-09
1.40065e-06
-2.36876e-09
1.5301e-06
-1.73257e-09
1.64577e-06
1.55047e-06
-1.44163e-11
6.07379e-08
-5.76632e-11
1.82216e-07
-1.2953e-10
3.03708e-07
-2.30149e-10
4.25216e-07
-3.58639e-10
5.46756e-07
-5.15721e-10
6.68334e-07
-6.99211e-10
7.8996e-07
-9.10593e-10
9.1168e-07
-1.14649e-09
1.03344e-06
-1.40793e-09
1.15545e-06
-1.69451e-09
1.27748e-06
-2.0301e-09
1.40099e-06
-2.37052e-09
1.53044e-06
-1.72613e-09
1.64513e-06
1.54875e-06
-1.45247e-11
6.07524e-08
-5.80946e-11
1.8226e-07
-1.30512e-10
3.0378e-07
-2.31914e-10
4.25317e-07
-3.61439e-10
5.46886e-07
-5.1977e-10
6.68493e-07
-7.0475e-10
7.90145e-07
-9.17679e-10
9.11893e-07
-1.15521e-09
1.03368e-06
-1.4179e-09
1.15571e-06
-1.7054e-09
1.27777e-06
-2.04098e-09
1.40132e-06
-2.37439e-09
1.53078e-06
-1.72187e-09
1.64448e-06
1.54702e-06
-1.46406e-11
6.07671e-08
-5.85632e-11
1.82304e-07
-1.31581e-10
3.03853e-07
-2.33849e-10
4.2542e-07
-3.64543e-10
5.47017e-07
-5.24319e-10
6.68652e-07
-7.1106e-10
7.90332e-07
-9.25897e-10
9.12108e-07
-1.1655e-09
1.03392e-06
-1.42994e-09
1.15598e-06
-1.71881e-09
1.27806e-06
-2.05472e-09
1.40166e-06
-2.38112e-09
1.5311e-06
-1.72184e-09
1.64382e-06
1.5453e-06
-1.47633e-11
6.07818e-08
-5.90608e-11
1.82348e-07
-1.32726e-10
3.03927e-07
-2.35942e-10
4.25523e-07
-3.67936e-10
5.47149e-07
-5.29365e-10
6.68814e-07
-7.18174e-10
7.90521e-07
-9.35339e-10
9.12325e-07
-1.17755e-09
1.03416e-06
-1.44439e-09
1.15624e-06
-1.73528e-09
1.27835e-06
-2.07198e-09
1.40199e-06
-2.39139e-09
1.53142e-06
-1.7258e-09
1.64315e-06
1.54358e-06
-1.48917e-11
6.07967e-08
-5.95802e-11
1.82393e-07
-1.33931e-10
3.04001e-07
-2.38166e-10
4.25627e-07
-3.71589e-10
5.47282e-07
-5.34881e-10
6.68977e-07
-7.26091e-10
7.90712e-07
-9.46075e-10
9.12545e-07
-1.19156e-09
1.03441e-06
-1.46163e-09
1.15651e-06
-1.75544e-09
1.27864e-06
-2.09371e-09
1.40233e-06
-2.40637e-09
1.53173e-06
-1.7366e-09
1.64248e-06
1.54184e-06
-1.50195e-11
6.08118e-08
-6.01124e-11
1.82438e-07
-1.3517e-10
3.04077e-07
-2.40482e-10
4.25732e-07
-3.75446e-10
5.47417e-07
-5.4081e-10
6.69143e-07
-7.34771e-10
7.90906e-07
-9.58125e-10
9.12769e-07
-1.20768e-09
1.03466e-06
-1.48205e-09
1.15679e-06
-1.78003e-09
1.27894e-06
-2.1211e-09
1.40267e-06
-2.42757e-09
1.53204e-06
-1.755e-09
1.64181e-06
1.54009e-06
-1.51506e-11
6.08269e-08
-6.06344e-11
1.82484e-07
-1.3641e-10
3.04152e-07
-2.42829e-10
4.25839e-07
-3.79424e-10
5.47554e-07
-5.47048e-10
6.6931e-07
-7.44114e-10
7.91103e-07
-9.71443e-10
9.12996e-07
-1.22601e-09
1.03491e-06
-1.50603e-09
1.15707e-06
-1.80989e-09
1.27925e-06
-2.15557e-09
1.40302e-06
-2.45688e-09
1.53234e-06
-1.78538e-09
1.64114e-06
1.5383e-06
-1.52668e-11
6.08422e-08
-6.1141e-11
1.82529e-07
-1.37607e-10
3.04229e-07
-2.45134e-10
4.25946e-07
-3.83405e-10
5.47692e-07
-5.53441e-10
6.6948e-07
-7.53942e-10
7.91304e-07
-9.85876e-10
9.13228e-07
-1.24651e-09
1.03517e-06
-1.53388e-09
1.15736e-06
-1.84594e-09
1.27956e-06
-2.19916e-09
1.40337e-06
-2.49751e-09
1.53264e-06
-1.83065e-09
1.64047e-06
1.53647e-06
-1.53824e-11
6.08575e-08
-6.15881e-11
1.82576e-07
-1.38708e-10
3.04306e-07
-2.47295e-10
4.26055e-07
-3.87236e-10
5.47832e-07
-5.59765e-10
6.69653e-07
-7.63975e-10
7.91508e-07
-1.00111e-09
9.13465e-07
-1.269e-09
1.03544e-06
-1.56568e-09
1.15765e-06
-1.88905e-09
1.27988e-06
-2.25384e-09
1.40374e-06
-2.55265e-09
1.53294e-06
-1.89808e-09
1.63982e-06
1.53457e-06
-1.54637e-11
6.0873e-08
-6.19763e-11
1.82622e-07
-1.39644e-10
3.04384e-07
-2.49192e-10
4.26165e-07
-3.90711e-10
5.47973e-07
-5.65725e-10
6.69828e-07
-7.73791e-10
7.91716e-07
-1.01665e-09
9.13708e-07
-1.29293e-09
1.03572e-06
-1.60128e-09
1.15796e-06
-1.94003e-09
1.28022e-06
-2.32318e-09
1.40412e-06
-2.63058e-09
1.53325e-06
-1.99712e-09
1.63918e-06
1.53257e-06
-1.55385e-11
6.08885e-08
-6.22345e-11
1.82669e-07
-1.40346e-10
3.04462e-07
-2.50701e-10
4.26275e-07
-3.93621e-10
5.48116e-07
-5.70977e-10
6.70005e-07
-7.8292e-10
7.91928e-07
-1.03178e-09
9.13957e-07
-1.31755e-09
1.036e-06
-1.63983e-09
1.15828e-06
-1.99889e-09
1.28058e-06
-2.40807e-09
1.40453e-06
-2.73274e-09
1.53357e-06
-2.13791e-09
1.63859e-06
1.53044e-06
-1.55489e-11
6.0904e-08
-6.23718e-11
1.82715e-07
-1.40698e-10
3.0454e-07
-2.51607e-10
4.26386e-07
-3.95583e-10
5.4826e-07
-5.7494e-10
6.70184e-07
-7.90427e-10
7.92143e-07
-1.04519e-09
9.14211e-07
-1.34111e-09
1.0363e-06
-1.67927e-09
1.15862e-06
-2.06532e-09
1.28096e-06
-2.51552e-09
1.40498e-06
-2.89508e-09
1.53395e-06
-2.35565e-09
1.63805e-06
1.52808e-06
-1.55442e-11
6.09195e-08
-6.23792e-11
1.82762e-07
-1.40689e-10
3.04618e-07
-2.51945e-10
4.26497e-07
-3.96546e-10
5.48404e-07
-5.77451e-10
6.70365e-07
-7.96066e-10
7.92361e-07
-1.05591e-09
9.1447e-07
-1.36238e-09
1.03661e-06
-1.716e-09
1.15897e-06
-2.13464e-09
1.28138e-06
-2.62853e-09
1.40547e-06
-3.06126e-09
1.53438e-06
-2.60073e-09
1.63759e-06
1.52548e-06
-1.54954e-11
6.0935e-08
-6.21931e-11
1.82809e-07
-1.40114e-10
3.04696e-07
-2.51348e-10
4.26608e-07
-3.95885e-10
5.48549e-07
-5.77565e-10
6.70546e-07
-7.98666e-10
7.92582e-07
-1.06185e-09
9.14734e-07
-1.38018e-09
1.03692e-06
-1.74739e-09
1.15934e-06
-2.21493e-09
1.28185e-06
-2.79828e-09
1.40606e-06
-3.55794e-09
1.53514e-06
-3.59668e-09
1.63763e-06
1.52188e-06
-7.45713e-11
6.10096e-08
-2.97932e-10
1.83032e-07
-6.73564e-10
3.05072e-07
-1.20709e-09
4.27142e-07
-1.90848e-09
5.49251e-07
-2.79098e-09
6.71429e-07
-3.87325e-09
7.93666e-07
-5.18469e-09
9.16043e-07
-6.76346e-09
1.0385e-06
-8.66227e-09
1.16124e-06
-1.0993e-08
1.28418e-06
-1.4038e-08
1.4091e-06
-1.73009e-08
1.5384e-06
-5.91883e-09
1.62625e-06
1.44626e-06
6.97048e-08
-6.23564e-11
6.10724e-08
-2.51989e-10
1.83222e-07
-5.69078e-10
3.0539e-07
-1.01917e-09
4.27593e-07
-1.60195e-09
5.49836e-07
-2.32568e-09
6.72154e-07
-3.19038e-09
7.94533e-07
-4.19462e-09
9.1705e-07
-5.33961e-09
1.03965e-06