/*--------------------------------*- C++ -*----------------------------------*\
  =========                 |
  \\      /  F ield         | OpenFOAM: The Open Source CFD Toolbox
   \\    /   O peration     | Website:  https://openfoam.org
    \\  /    A nd           | Version:  7
     \\/     M anipulation  |
\*---------------------------------------------------------------------------*/
FoamFile
{
    version     2.0;
    format      ascii;
    class       volVectorField;
    location    "100";
    object      U;
}
// * * * * * * * * * * * * * * * * * * * * * * * * * * * * * * * * * * * * * //

dimensions      [0 1 -1 0 0 0 0];

internalField   nonuniform List<vector> 
32100
(
(-2.53444e-06 1.903e-18 0.494001)
(-5.95376e-06 2.09443e-16 0.494001)
(-9.84601e-06 1.15541e-16 0.494001)
(-1.40579e-05 8.28515e-17 0.494001)
(-1.87053e-05 1.2392e-19 0.494001)
(-2.39955e-05 3.97265e-19 0.494001)
(-3.02544e-05 1.25136e-16 0.494002)
(-3.80014e-05 -3.32549e-17 0.494002)
(-4.83384e-05 1.75833e-17 0.494002)
(-6.31144e-05 2.38795e-19 0.494004)
(-8.57263e-05 2.97848e-17 0.494004)
(-0.000155122 2.52777e-18 0.494013)
(-0.000302479 4.41458e-18 0.494085)
(0.000214861 -5.83303e-17 0.494317)
(-0.006013 3.93772e-18 0.493333)
(-7.55596e-06 3.26337e-18 0.494011)
(-1.77747e-05 2.90386e-16 0.494011)
(-2.93868e-05 1.32812e-16 0.494011)
(-4.19485e-05 3.38561e-16 0.494012)
(-5.57881e-05 9.41234e-19 0.494013)
(-7.15048e-05 -6.97163e-19 0.494014)
(-9.00606e-05 3.81969e-16 0.494016)
(-0.000112888 -5.13565e-17 0.494019)
(-0.000142831 2.21823e-16 0.494024)
(-0.000187479 -1.25785e-18 0.494035)
(-0.000244094 -7.08269e-18 0.494047)
(-0.000356 -3.11263e-17 0.49409)
(-0.00086057 -2.80584e-17 0.494489)
(0.000593986 -2.50448e-16 0.495479)
(-0.00796511 -2.01818e-17 0.491851)
(-1.24584e-05 4.11405e-18 0.49403)
(-2.93354e-05 3.94949e-16 0.494031)
(-4.84714e-05 2.86537e-16 0.494032)
(-6.91375e-05 1.06988e-15 0.494033)
(-9.18326e-05 6.5342e-19 0.494036)
(-0.000117467 -1.18074e-18 0.49404)
(-0.000147518 -2.34489e-16 0.494045)
(-0.000184139 -1.09395e-16 0.494054)
(-0.000229843 8.67879e-17 0.494067)
(-0.000298423 8.61407e-18 0.494097)
(-0.000384462 4.02524e-17 0.494144)
(-0.000421924 -2.80672e-17 0.494195)
(-0.00129452 -3.15082e-17 0.494907)
(0.00083639 1.20884e-16 0.496809)
(-0.00772056 -2.28836e-17 0.490167)
(-1.71799e-05 9.58409e-18 0.494061)
(-4.046e-05 4.96071e-16 0.494061)
(-6.67736e-05 3.47168e-16 0.494064)
(-9.51203e-05 -2.24414e-16 0.494067)
(-0.000126096 1.43437e-19 0.494072)
(-0.000160798 -3.63436e-19 0.494079)
(-0.000200918 3.778e-17 0.49409)
(-0.000249388 -1.00967e-16 0.494107)
(-0.000306161 -1.45836e-17 0.494132)
(-0.000386652 -3.26507e-17 0.494179)
(-0.000514561 4.16251e-17 0.494276)
(-0.000408502 -2.23407e-17 0.494302)
(-0.00160393 7.27745e-17 0.495203)
(0.000928626 5.27688e-17 0.498019)
(-0.00712524 2.18884e-18 0.488458)
(-2.16342e-05 1.45678e-17 0.494101)
(-5.09607e-05 5.55632e-16 0.494102)
(-8.40109e-05 3.53611e-16 0.494105)
(-0.000119494 5.11016e-17 0.494111)
(-0.000158012 4.31967e-19 0.494119)
(-0.000200771 -4.62161e-19 0.49413)
(-0.00024925 -7.1146e-17 0.494147)
(-0.000307451 -9.07606e-17 0.494173)
(-0.000372961 1.78126e-16 0.49421)
(-0.000451189 -4.16735e-17 0.494269)
(-0.000639999 4.22703e-17 0.494418)
(-0.000370866 -5.20191e-17 0.494412)
(-0.00182371 -8.79656e-17 0.495402)
(0.000928163 1.50414e-18 0.499049)
(-0.00655017 -1.04976e-16 0.486875)
(-2.57617e-05 2.16782e-17 0.494149)
(-6.07419e-05 8.11979e-16 0.494151)
(-0.000100035 4.81065e-16 0.494156)
(-0.00014202 1.8977e-16 0.494163)
(-0.000187267 1.10475e-18 0.494175)
(-0.000237107 -1.39385e-18 0.494191)
(-0.000292367 -1.8407e-16 0.494214)
(-0.000358056 -1.61784e-16 0.494249)
(-0.000433162 2.02392e-16 0.494299)
(-0.000495684 -4.25689e-17 0.494362)
(-0.000758745 9.13258e-17 0.494559)
(-0.00033156 -2.82025e-17 0.494533)
(-0.00198056 -1.44867e-16 0.495567)
(0.000886562 3.65587e-18 0.49994)
(-0.00604054 -1.52017e-16 0.485431)
(-2.95783e-05 2.87162e-17 0.494206)
(-6.97913e-05 7.98484e-16 0.494208)
(-0.000114758 4.54163e-16 0.494214)
(-0.000162583 2.04914e-16 0.494224)
(-0.00021375 1.79478e-18 0.494239)
(-0.000269766 -2.09141e-18 0.49426)
(-0.000330632 -2.22802e-16 0.494289)
(-0.000401173 -1.60184e-16 0.494332)
(-0.000488631 4.45988e-16 0.494396)
(-0.000524208 -4.11448e-17 0.494459)
(-0.000866475 9.19959e-17 0.494697)
(-0.000294039 -2.06525e-16 0.494666)
(-0.00209003 -5.59627e-17 0.495727)
(0.000824948 -1.6129e-17 0.500725)
(-0.00559278 -2.63666e-16 0.484083)
(-3.30898e-05 3.52458e-17 0.49427)
(-7.80303e-05 9.50216e-16 0.494273)
(-0.00012807 -8.4975e-16 0.494281)
(-0.000181158 3.44791e-16 0.494293)
(-0.000237473 2.88976e-18 0.494311)
(-0.000298774 -2.3638e-18 0.494337)
(-0.000364561 -1.69426e-16 0.494372)
(-0.000436874 -2.14593e-16 0.49442)
(-0.000539917 5.44121e-16 0.4945)
(-0.000540221 -3.93049e-17 0.494561)
(-0.000961437 -2.35268e-16 0.494832)
(-0.000259087 -1.84537e-16 0.494805)
(-0.00216345 -2.00577e-17 0.495884)
(0.000749456 -1.19441e-18 0.501421)
(-0.0052 2.14566e-17 0.482801)
(-3.62285e-05 4.43401e-17 0.494341)
(-8.53901e-05 6.78527e-16 0.494344)
(-0.000139978 5.33066e-16 0.494354)
(-0.000197799 3.57642e-16 0.494369)
(-0.000258517 4.03485e-18 0.49439)
(-0.000324177 -3.01434e-18 0.49442)
(-0.000394692 -2.40379e-16 0.494461)
(-0.000465524 -2.10437e-16 0.494514)
(-0.000587184 9.59325e-16 0.494609)
(-0.000546783 -3.70678e-17 0.494667)
(-0.00104439 1.36014e-16 0.494964)
(-0.000228786 -9.53489e-17 0.494945)
(-0.00220984 -1.70075e-16 0.496036)
(0.000664735 -5.02295e-17 0.502038)
(-0.00485388 -6.90459e-17 0.481574)
(-3.90118e-05 6.48585e-17 0.494418)
(-9.19563e-05 1.98984e-15 0.494422)
(-0.000150606 7.12241e-16 0.494433)
(-0.00021259 4.90753e-16 0.49445)
(-0.000277041 5.48884e-18 0.494474)
(-0.000346093 -3.64644e-18 0.494508)
(-0.000421549 -2.35278e-16 0.494555)
(-0.000487803 -2.59924e-16 0.494611)
(-0.000630716 8.2709e-16 0.49472)
(-0.000546523 -3.45654e-17 0.494775)
(-0.00111662 1.76855e-16 0.495092)
(-0.000204739 -1.30558e-16 0.495084)
(-0.00223582 -9.82184e-17 0.496183)
(0.000575925 -4.8052e-17 0.502589)
(-0.00454576 -7.2071e-17 0.480395)
(-4.14804e-05 7.1742e-17 0.4945)
(-9.78431e-05 1.96823e-15 0.494505)
(-0.000160054 1.01848e-15 0.494517)
(-0.000225603 5.00244e-16 0.494536)
(-0.000293287 6.94489e-18 0.494563)
(-0.000364734 -4.30579e-18 0.494601)
(-0.000445608 -2.67158e-16 0.494654)
(-0.000504527 -2.58247e-16 0.494712)
(-0.000670873 4.37234e-16 0.494833)
(-0.0005415 -3.22112e-17 0.494886)
(-0.00117899 1.81389e-16 0.495217)
(-0.000187186 -1.8873e-16 0.495223)
(-0.00224626 -1.65043e-16 0.496331)
(0.000486801 -8.70309e-17 0.503084)
(-0.00426853 -1.1023e-16 0.47926)
(-4.36705e-05 7.9352e-17 0.494587)
(-0.000103064 1.45892e-15 0.494593)
(-0.00016832 1.15696e-15 0.494606)
(-0.000236906 6.35705e-16 0.494627)
(-0.000307547 8.81826e-18 0.494657)
(-0.000380364 -5.09902e-18 0.494697)
(-0.000467274 -2.08214e-16 0.494756)
(-0.000516474 -3.21346e-16 0.494815)
(-0.000707941 1.79497e-16 0.494948)
(-0.000533292 -2.95384e-17 0.494999)
(-0.00123214 2.27489e-16 0.495339)
(-0.00017554 -1.7944e-16 0.495362)
(-0.00224497 -2.36482e-16 0.49648)
(0.000399292 -3.12499e-17 0.503531)
(-0.00401697 -1.05342e-16 0.478163)
(-4.55607e-05 8.84126e-17 0.494678)
(-0.000107594 1.56451e-15 0.494684)
(-0.000175444 1.02805e-15 0.494699)
(-0.000246614 6.45266e-16 0.494722)
(-0.000320099 1.07525e-17 0.494755)
(-0.000393245 -7.17483e-18 0.494797)
(-0.000486882 -5.15138e-16 0.494861)
(-0.000524341 -3.2082e-16 0.494921)
(-0.000742107 5.17428e-16 0.495064)
(-0.000523155 -2.71889e-17 0.495114)
(-0.0012768 1.79811e-16 0.495459)
(-0.000169036 -2.06378e-16 0.4955)
(-0.00223491 -1.63576e-16 0.496631)
(0.000314254 -6.62587e-17 0.503934)
(-0.00378723 1.3355e-16 0.477098)
(-4.71951e-05 9.97595e-17 0.494773)
(-0.000111495 1.80864e-15 0.49478)
(-0.000181577 1.23062e-15 0.494795)
(-0.000254895 7.74469e-16 0.49482)
(-0.000331174 1.28587e-17 0.494855)
(-0.000403626 -8.47075e-18 0.494899)
(-0.000504732 -5.01736e-16 0.494968)
(-0.000528761 -3.66898e-16 0.495028)
(-0.000773489 6.89748e-16 0.49518)
(-0.000512094 -2.38581e-17 0.495229)
(-0.00131388 2.29613e-16 0.495576)
(-0.000166964 -2.03216e-16 0.495636)
(-0.0022183 -1.13606e-16 0.496784)
(0.000232226 -1.17801e-16 0.504298)
(-0.0035762 -1.34188e-16 0.476064)
(-4.86006e-05 1.1074e-16 0.494871)
(-0.000114877 1.77115e-15 0.494878)
(-0.000186931 1.599e-15 0.494895)
(-0.000261914 7.80195e-16 0.49492)
(-0.000340966 1.49901e-17 0.494958)
(-0.000411755 -9.37437e-18 0.495003)
(-0.000521109 -3.82713e-16 0.495077)
(-0.000530337 -3.64882e-16 0.495136)
(-0.000802168 9.06496e-16 0.495296)
(-0.00050085 -1.8585e-17 0.495346)
(-0.00134433 3.90459e-16 0.495693)
(-0.000168695 -2.39823e-16 0.495771)
(-0.00219672 -1.47516e-16 0.496938)
(0.000153618 -1.47024e-16 0.504627)
(-0.00338133 -1.67351e-16 0.475057)
(-4.9827e-05 1.24431e-16 0.494972)
(-0.000117819 -5.36497e-16 0.494979)
(-0.000191641 2.57439e-15 0.494997)
(-0.000267793 8.99588e-16 0.495023)
(-0.000349645 1.73603e-17 0.495063)
(-0.000417885 -1.0749e-17 0.495109)
(-0.000536261 -4.25577e-16 0.495187)
(-0.00052963 -4.25171e-16 0.495246)
(-0.00082822 7.63338e-16 0.495413)
(-0.000489906 -1.76551e-17 0.495464)
(-0.00136897 6.12552e-16 0.495807)
(-0.000173667 -2.39606e-16 0.495904)
(-0.0021714 -1.99436e-16 0.497093)
(7.86737e-05 -1.0035e-16 0.504924)
(-0.00320051 -1.73692e-16 0.474076)
(-5.08544e-05 1.38551e-16 0.495075)
(-0.000120327 1.94743e-15 0.495083)
(-0.000195777 7.14493e-16 0.495101)
(-0.000272614 9.37707e-16 0.495128)
(-0.00035737 1.99147e-17 0.49517)
(-0.000422256 -1.21051e-17 0.495217)
(-0.000550377 -4.68377e-16 0.495299)
(-0.000527147 -4.14324e-16 0.495357)
(-0.000851745 9.18418e-16 0.495529)
(-0.000479558 -5.05169e-18 0.495582)
(-0.00138851 1.36831e-16 0.495922)
(-0.000181384 -2.70607e-16 0.496037)
(-0.00214336 -2.29437e-16 0.497251)
(7.40643e-06 -1.27137e-16 0.505192)
(-0.00303207 -2.14139e-16 0.473118)
(-5.17176e-05 1.54518e-16 0.49518)
(-0.000122404 1.64222e-15 0.495188)
(-0.000199371 1.11937e-15 0.495207)
(-0.000276462 9.15272e-16 0.495235)
(-0.000364299 2.23314e-17 0.495278)
(-0.000425085 -1.33154e-17 0.495326)
(-0.000563577 -4.57457e-16 0.495412)
(-0.000523326 -2.93263e-16 0.495469)
(-0.000872876 1.02121e-15 0.495645)
(-0.000469994 -4.2207e-17 0.495701)
(-0.00140356 2.3527e-16 0.496036)
(-0.000191398 -2.76819e-16 0.496168)
(-0.00211341 -1.87249e-16 0.49741)
(-6.02991e-05 -1.33342e-16 0.505433)
(-0.00287468 -2.229e-16 0.472183)
(-5.24251e-05 1.79842e-16 0.495286)
(-0.000124071 2.90899e-15 0.495295)
(-0.000202499 1.34109e-15 0.495314)
(-0.000279443 1.02763e-15 0.495343)
(-0.000370589 2.49362e-17 0.495388)
(-0.000426563 -1.46505e-17 0.495436)
(-0.000575921 -4.52563e-16 0.495525)
(-0.000518528 -5.55846e-16 0.495582)
(-0.000891778 1.10848e-15 0.495761)
(-0.000461349 -4.73373e-17 0.49582)
(-0.00141465 -8.43958e-17 0.496149)
(-0.000203307 -2.66775e-16 0.496299)
(-0.0020822 -1.61978e-16 0.49757)
(-0.000124617 -1.26204e-16 0.505648)
(-0.00272721 -2.18372e-16 0.471269)
(-5.30572e-05 1.91812e-16 0.495394)
(-0.000125394 2.85843e-15 0.495403)
(-0.000205242 1.34964e-15 0.495423)
(-0.000281673 1.04998e-15 0.495452)
(-0.000376381 2.77384e-17 0.495499)
(-0.000426876 -1.65949e-17 0.495547)
(-0.000587442 -5.27866e-16 0.495639)
(-0.000513049 -6.28239e-16 0.495695)
(-0.000908625 1.38369e-15 0.495876)
(-0.00045372 -4.5017e-17 0.49594)
(-0.00142225 2.87868e-16 0.496261)
(-0.000216745 -2.97377e-16 0.496428)
(-0.00205018 -1.49922e-16 0.497732)
(-0.000185691 -1.49334e-16 0.505841)
(-0.00258871 -2.40191e-16 0.470374)
(-5.36288e-05 2.05715e-16 0.495504)
(-0.000126424 2.3667e-15 0.495512)
(-0.000207697 1.45515e-15 0.495533)
(-0.000283255 1.20226e-15 0.495563)
(-0.000381792 3.0923e-17 0.495611)
(-0.000426197 -1.84048e-17 0.495658)
(-0.000598169 -5.20515e-16 0.495754)
(-0.000507127 -5.08305e-16 0.495809)
(-0.000923579 1.0812e-15 0.495991)
(-0.000447169 -4.03825e-17 0.496059)
(-0.00142683 3.32344e-16 0.496374)
(-0.000231398 -2.96761e-16 0.496557)
(-0.00201768 -1.29848e-16 0.497894)
(-0.000243668 -9.38978e-17 0.506011)
(-0.00245835 -2.32906e-16 0.469498)
(-5.41932e-05 2.23894e-16 0.495614)
(-0.000127209 3.04003e-15 0.495623)
(-0.000209918 1.31803e-15 0.495644)
(-0.00028426 1.05257e-15 0.495674)
(-0.000386905 3.31927e-17 0.495723)
(-0.000424699 -2.02153e-17 0.49577)
(-0.000608137 -5.51166e-16 0.495868)
(-0.000500949 -4.97895e-16 0.495923)
(-0.00093678 8.47174e-16 0.496106)
(-0.000441718 -3.55994e-17 0.496178)
(-0.00142877 2.88795e-16 0.496486)
(-0.000247005 -3.3538e-16 0.496684)
(-0.00198498 -3.09684e-16 0.498058)
(-0.000298678 -2.29515e-16 0.506162)
(-0.00233541 -2.65523e-16 0.46864)
(-5.47191e-05 2.29117e-16 0.495725)
(-0.000127763 4.64843e-15 0.495734)
(-0.000211959 2.13182e-15 0.495756)
(-0.000284736 1.22283e-15 0.495785)
(-0.000391769 3.62938e-17 0.495836)
(-0.000422537 -2.22727e-17 0.495882)
(-0.000617392 -4.97523e-16 0.495983)
(-0.000494667 -5.41454e-16 0.496038)
(-0.000948342 1.16987e-15 0.496221)
(-0.000437352 -3.44884e-17 0.496298)
(-0.00142844 3.33446e-16 0.496598)
(-0.000263364 -3.27878e-16 0.496811)
(-0.00195227 -2.99973e-16 0.498222)
(-0.000350878 -2.29282e-16 0.506293)
(-0.00221929 -2.42599e-16 0.467799)
(-5.5235e-05 2.40903e-16 0.495837)
(-0.000128105 1.64476e-15 0.495846)
(-0.00021384 2.47862e-15 0.495868)
(-0.000284721 1.39867e-15 0.495898)
(-0.000396414 4.02089e-17 0.49595)
(-0.000419853 -2.56998e-17 0.495996)
(-0.000625984 -8.08877e-16 0.496098)
(-0.000488403 -5.39754e-16 0.496153)
(-0.000958367 1.28336e-15 0.496336)
(-0.000434028 -2.33611e-17 0.496417)
(-0.00142615 4.14531e-16 0.49671)
(-0.00028031 -3.55119e-16 0.496937)
(-0.00191974 -2.31739e-16 0.498386)
(-0.000400418 -1.76808e-16 0.506407)
(-0.00210945 -3.46664e-16 0.466975)
(-5.57031e-05 2.57062e-16 0.495949)
(-0.000128244 2.25324e-15 0.495958)
(-0.000215611 3.07578e-15 0.495981)
(-0.000284255 1.55338e-15 0.49601)
(-0.000400855 4.37128e-17 0.496064)
(-0.000416768 -2.84941e-17 0.496109)
(-0.000633962 -8.18742e-16 0.496212)
(-0.000482261 -5.1643e-16 0.496268)
(-0.000966948 1.48845e-15 0.496451)
(-0.000431687 7.39831e-17 0.496537)
(-0.0014222 3.94287e-16 0.496822)
(-0.000297711 -3.721e-16 0.497063)
(-0.00188753 -2.57842e-16 0.498551)
(-0.000447462 -1.99338e-16 0.506503)
(-0.00200545 -3.56629e-16 0.466165)
(-5.61635e-05 2.75345e-16 0.496062)
(-0.000128205 2.53285e-15 0.496071)
(-0.000217297 1.12819e-15 0.496094)
(-0.000283386 1.37954e-15 0.496123)
(-0.000405101 4.67861e-17 0.496178)
(-0.000413383 -3.04395e-17 0.496223)
(-0.000641371 -6.30045e-16 0.496327)
(-0.000476325 -5.50531e-16 0.496384)
(-0.000974179 1.42729e-15 0.496565)
(-0.000430263 3.36168e-16 0.496656)
(-0.00141681 3.99811e-16 0.496934)
(-0.000315447 -3.37998e-16 0.497188)
(-0.00185576 -2.44051e-16 0.498716)
(-0.000492146 -1.54747e-16 0.506584)
(-0.00190686 -2.72125e-16 0.46537)
(-5.65844e-05 2.94521e-16 0.496175)
(-0.000128 2.60685e-15 0.496184)
(-0.00021895 1.63159e-15 0.496208)
(-0.000282172 1.66787e-15 0.496237)
(-0.000409163 5.08294e-17 0.496293)
(-0.000409781 -3.26035e-17 0.496337)
(-0.000648245 -6.56413e-16 0.496442)
(-0.000470666 -5.60242e-16 0.496499)
(-0.000980158 1.34658e-15 0.496679)
(-0.00042969 -1.40711e-16 0.496775)
(-0.00141018 4.0847e-16 0.497046)
(-0.000333417 -3.24047e-16 0.497313)
(-0.0018245 -2.48125e-16 0.498881)
(-0.00053461 -1.80005e-16 0.506649)
(-0.00181333 -2.78093e-16 0.46459)
(-5.70134e-05 3.13947e-16 0.496288)
(-0.000127655 2.63493e-15 0.496297)
(-0.000220589 1.73395e-15 0.496321)
(-0.000280669 1.70272e-15 0.49635)
(-0.000413053 5.49572e-17 0.496407)
(-0.000406029 -3.48082e-17 0.496451)
(-0.000654609 -6.51217e-16 0.496557)
(-0.000465339 -4.97701e-16 0.496615)
(-0.000984987 1.38224e-15 0.496793)
(-0.000429904 -6.9758e-17 0.496894)
(-0.0014025 4.05767e-16 0.497158)
(-0.000351523 -3.25498e-16 0.497437)
(-0.00179382 -2.35113e-16 0.499047)
(-0.000574963 -1.90343e-16 0.506701)
(-0.00172451 -2.13257e-16 0.463822)
(-5.74185e-05 3.33294e-16 0.496402)
(-0.000127171 2.65101e-15 0.496411)
(-0.00022225 1.64142e-15 0.496435)
(-0.000278935 1.69215e-15 0.496464)
(-0.00041678 5.89942e-17 0.496521)
(-0.00040218 -3.70093e-17 0.496565)
(-0.00066048 -6.4605e-16 0.496672)
(-0.000460385 -4.73569e-16 0.496731)
(-0.000988767 1.29484e-15 0.496907)
(-0.000430848 -4.48953e-16 0.497012)
(-0.00139392 4.00946e-16 0.497269)
(-0.000369683 -3.10722e-16 0.497561)
(-0.00176375 -2.21232e-16 0.499212)
(-0.000613324 -1.88907e-16 0.506739)
(-0.00164012 -2.31815e-17 0.463068)
(-5.78455e-05 3.52371e-16 0.496516)
(-0.000126565 2.66155e-15 0.496525)
(-0.000223927 1.44698e-15 0.49655)
(-0.000277018 1.68233e-15 0.496578)
(-0.000420357 6.28965e-17 0.496636)
(-0.00039828 -3.91873e-17 0.496679)
(-0.000665869 -6.40847e-16 0.496786)
(-0.000455831 -4.57564e-16 0.496847)
(-0.000991594 1.01288e-15 0.49702)
(-0.000432468 -1.60577e-17 0.49713)
(-0.00138457 3.95353e-16 0.497381)
(-0.000387822 -3.05679e-16 0.497685)
(-0.00173434 -2.00816e-16 0.499377)
(-0.000649783 -1.85725e-16 0.506764)
(-0.00155987 -3.09515e-16 0.462326)
(-5.82559e-05 3.71144e-16 0.49663)
(-0.00012583 2.67065e-15 0.496639)
(-0.000225634 1.02455e-15 0.496664)
(-0.000274959 1.667e-15 0.496692)
(-0.000423792 6.66512e-17 0.496751)
(-0.000394367 -4.13548e-17 0.496794)
(-0.000670784 -6.36938e-16 0.496901)
(-0.000451689 -4.44852e-16 0.496962)
(-0.000993558 1.32603e-15 0.497134)
(-0.000434715 1.97125e-16 0.497249)
(-0.00137457 3.9121e-16 0.497493)
(-0.000405886 -1.32029e-16 0.497808)
(-0.00170558 -2.01189e-16 0.499541)
(-0.000684444 -1.85093e-16 0.506777)
(-0.00148352 -2.22673e-16 0.461596)
(-5.86972e-05 3.89426e-16 0.496744)
(-0.000124979 2.67862e-15 0.496753)
(-0.000227349 2.41985e-16 0.496778)
(-0.000272791 1.65747e-15 0.496806)
(-0.000427095 7.03343e-17 0.496865)
(-0.000390478 -4.35061e-17 0.496908)
(-0.000675235 -6.3357e-16 0.497015)
(-0.000447965 -4.32362e-16 0.497078)
(-0.000994739 1.63011e-15 0.497247)
(-0.000437538 -1.79294e-16 0.497366)
(-0.00136402 3.8707e-16 0.497605)
(-0.000423826 -8.98244e-17 0.497931)
(-0.00167752 -2.03627e-16 0.499705)
(-0.000717386 -1.83256e-16 0.506779)
(-0.00141082 -1.18123e-16 0.460877)
(-5.91339e-05 4.07803e-16 0.496858)
(-0.000124011 2.69845e-15 0.496867)
(-0.000229078 1.28417e-15 0.496893)
(-0.000270539 1.6402e-15 0.49692)
(-0.000430273 7.38578e-17 0.49698)
(-0.000386647 -4.56596e-17 0.497023)
(-0.000679237 -6.31617e-16 0.49713)
(-0.000444653 -4.23661e-16 0.497194)
(-0.000995207 1.25183e-15 0.497361)
(-0.000440889 2.59571e-16 0.497484)
(-0.00135304 3.82786e-16 0.497717)
(-0.000441606 -1.47074e-16 0.498054)
(-0.00165015 -2.02997e-16 0.499869)
(-0.000748704 -1.83335e-16 0.50677)
(-0.00134159 -1.71809e-16 0.46017)
(-5.96172e-05 4.24541e-16 0.496972)
(-0.000122944 2.64158e-15 0.496981)
(-0.000230795 4.86466e-16 0.497007)
(-0.000268227 1.81264e-15 0.497034)
(-0.00043333 7.76657e-17 0.497094)
(-0.000382907 -4.79058e-17 0.497137)
(-0.000682805 -6.37327e-16 0.497244)
(-0.000441749 -4.01169e-16 0.49731)
(-0.000995023 1.15185e-15 0.497474)
(-0.000444719 6.73633e-16 0.497602)
(-0.00134169 3.79409e-16 0.497829)
(-0.000459195 -4.75445e-17 0.498177)
(-0.00162349 -2.03221e-16 0.500032)
(-0.000778464 -1.84759e-16 0.506751)
(-0.00127561 -1.51959e-16 0.459472)
(-6.01122e-05 4.428e-16 0.497086)
(-0.000121784 2.9061e-15 0.497095)
(-0.000232509 1.42963e-15 0.497121)
(-0.000265869 2.34607e-15 0.497148)
(-0.000436269 8.02097e-17 0.497208)
(-0.000379286 -5.00842e-17 0.497252)
(-0.000685962 -6.45719e-16 0.497358)
(-0.000439239 -4.43524e-16 0.497425)
(-0.000994244 1.11868e-15 0.497587)
(-0.00044898 -7.58674e-18 0.497719)
(-0.00133006 3.74946e-16 0.497942)
(-0.000476572 -1.91069e-16 0.498299)
(-0.00159754 -2.05609e-16 0.500194)
(-0.000806748 -2.00886e-16 0.506722)
(-0.00121272 -2.05449e-16 0.458785)
(-6.06719e-05 4.61415e-16 0.4972)
(-0.000120557 2.96755e-15 0.497209)
(-0.000234197 1.94862e-15 0.497235)
(-0.000263482 1.7665e-15 0.497262)
(-0.00043909 8.42229e-17 0.497323)
(-0.000375811 -5.15215e-17 0.497366)
(-0.00068873 -5.56184e-16 0.497472)
(-0.000437115 -4.44939e-16 0.497541)
(-0.000992919 1.16516e-15 0.4977)
(-0.000453625 7.40231e-18 0.497836)
(-0.0013182 3.67405e-16 0.498054)
(-0.000493714 -2.00546e-16 0.498422)
(-0.00157231 -1.99615e-16 0.500356)
(-0.000833613 -2.15959e-16 0.506683)
(-0.00115274 -1.95778e-16 0.458108)
(-6.12599e-05 4.80201e-16 0.497315)
(-0.00011927 2.99379e-15 0.497323)
(-0.000235875 9.29034e-16 0.49735)
(-0.00026108 3.20405e-15 0.497376)
(-0.000441792 8.86587e-17 0.497437)
(-0.0003725 -5.37442e-17 0.497481)
(-0.000691134 -6.29917e-16 0.497585)
(-0.000435364 -4.40573e-16 0.497656)
(-0.000991097 1.17105e-15 0.497813)
(-0.000458609 1.93531e-16 0.497952)
(-0.00130619 3.68535e-16 0.498166)
(-0.000510605 -1.03515e-16 0.498544)
(-0.00154778 7.53128e-17 0.500517)
(-0.000859126 -2.3017e-16 0.506636)
(-0.00109553 -1.06238e-16 0.45744)
(-6.192e-05 4.97377e-16 0.497429)
(-0.000117948 2.93463e-15 0.497437)
(-0.000237527 1.01845e-15 0.497464)
(-0.000258676 2.53207e-15 0.49749)
(-0.00044437 9.10804e-17 0.497551)
(-0.000369369 -5.83359e-17 0.497595)
(-0.000693195 -7.59189e-16 0.497699)
(-0.000433978 -4.2055e-16 0.497772)
(-0.000988821 1.21369e-15 0.497926)
(-0.000463893 2.18692e-16 0.498069)
(-0.00129405 3.66111e-16 0.498278)
(-0.000527232 -1.69629e-16 0.498666)
(-0.00152395 -2.41063e-16 0.500677)
(-0.000883339 -2.55207e-16 0.50658)
(-0.00104092 -1.18848e-16 0.456781)
(-6.2604e-05 5.15878e-16 0.497543)
(-0.000116595 3.18828e-15 0.497551)
(-0.000239171 2.65937e-15 0.497578)
(-0.000256285 9.8206e-16 0.497604)
(-0.000446822 9.27848e-17 0.497665)
(-0.000366427 -6.28993e-17 0.49771)
(-0.000694936 -7.47668e-16 0.497813)
(-0.00043294 -4.64857e-16 0.497887)
(-0.000986137 1.1393e-15 0.498039)
(-0.00046944 2.81122e-16 0.498185)
(-0.00128184 3.93017e-16 0.49839)
(-0.000543579 -1.4669e-16 0.498788)
(-0.00150082 -2.46596e-16 0.500836)
(-0.00090631 -2.16235e-16 0.506516)
(-0.000988799 -8.17549e-17 0.456131)
(-6.33456e-05 5.34543e-16 0.497657)
(-0.000115229 3.23929e-15 0.497665)
(-0.000240794 1.16487e-15 0.497692)
(-0.000253921 1.7313e-15 0.497718)
(-0.000449143 9.6835e-17 0.497779)
(-0.00036368 -3.93695e-17 0.497824)
(-0.000696377 -6.98171e-16 0.497926)
(-0.000432243 -4.68556e-16 0.498002)
(-0.000983085 1.18434e-15 0.498151)
(-0.00047522 2.87617e-16 0.498301)
(-0.0012696 3.88173e-16 0.498503)
(-0.000559635 -6.17174e-17 0.49891)
(-0.00147837 -2.39579e-16 0.500994)
(-0.000928086 -2.34218e-16 0.506444)
(-0.000939025 -6.85004e-17 0.45549)
(-6.4094e-05 5.52723e-16 0.497771)
(-0.000113849 3.24065e-15 0.497779)
(-0.000242411 3.95518e-16 0.497806)
(-0.000251596 9.64016e-16 0.497832)
(-0.00045133 1.0094e-16 0.497893)
(-0.000361129 -6.79177e-17 0.497938)
(-0.000697535 -7.52258e-16 0.498039)
(-0.000431868 -4.62477e-16 0.498117)
(-0.000979708 1.20254e-15 0.498264)
(-0.000481204 2.62425e-16 0.498417)
(-0.00125737 3.85757e-16 0.498615)
(-0.000575389 -4.4112e-17 0.499032)
(-0.00145659 2.79476e-17 0.501151)
(-0.000948722 -2.35951e-16 0.506365)
(-0.000891493 -5.82868e-17 0.454856)
(-6.48772e-05 5.7014e-16 0.497885)
(-0.00011247 3.23183e-15 0.497892)
(-0.00024401 1.75679e-16 0.49792)
(-0.000249323 1.92018e-15 0.497946)
(-0.000453381 1.04271e-16 0.498007)
(-0.000358776 -7.56645e-16 0.498053)
(-0.000698426 -7.41692e-16 0.498153)
(-0.000431807 -4.54554e-16 0.498232)
(-0.000976039 1.22784e-15 0.498376)
(-0.00048737 1.17786e-16 0.498532)
(-0.00124516 4.30366e-16 0.498727)
(-0.000590836 -7.94395e-17 0.499154)
(-0.00143547 -2.56892e-16 0.501307)
(-0.000968258 -2.32675e-16 0.506279)
(-0.000846083 -5.69844e-17 0.454231)
(-6.56433e-05 5.86778e-16 0.497998)
(-0.000111087 3.22343e-15 0.498006)
(-0.000245604 -2.95478e-16 0.498033)
(-0.000247115 1.66543e-15 0.49806)
(-0.000455298 1.07591e-16 0.49812)
(-0.000356618 -1.8366e-17 0.498167)
(-0.000699067 -7.50059e-16 0.498266)
(-0.00043204 -4.47348e-16 0.498347)
(-0.000972118 1.57349e-15 0.498489)
(-0.000493693 8.1534e-16 0.498648)
(-0.00123302 4.36334e-16 0.498839)
(-0.000605968 -4.17282e-17 0.499276)
(-0.00141499 -2.52588e-16 0.501461)
(-0.000986742 -2.33143e-16 0.506187)
(-0.000802699 -6.04654e-17 0.453613)
(-6.64194e-05 6.0283e-16 0.498112)
(-0.000109711 3.21121e-15 0.49812)
(-0.000247179 1.30089e-15 0.498147)
(-0.000244983 1.61941e-15 0.498174)
(-0.000457083 1.11208e-16 0.498234)
(-0.000354659 3.35899e-17 0.498281)
(-0.000699471 -7.59909e-16 0.498379)
(-0.00043256 -4.40772e-16 0.498461)
(-0.000967973 6.17044e-16 0.498601)
(-0.000500156 -1.54402e-16 0.498763)
(-0.00122097 4.35343e-16 0.498952)
(-0.000620784 -5.19111e-18 0.499398)
(-0.00139515 -2.52513e-16 0.501615)
(-0.00100421 -2.32123e-16 0.506088)
(-0.000761242 -2.0123e-17 0.453003)
(-6.71632e-05 6.18163e-16 0.498226)
(-0.000108341 3.19549e-15 0.498233)
(-0.000248744 5.5597e-16 0.498261)
(-0.000242937 1.60148e-15 0.498287)
(-0.000458744 1.1464e-16 0.498347)
(-0.000352895 2.46221e-17 0.498395)
(-0.000699655 -7.53694e-16 0.498492)
(-0.000433347 -4.33927e-16 0.498576)
(-0.000963641 1.01849e-15 0.498714)
(-0.000506738 4.9494e-16 0.498878)
(-0.00120903 4.35119e-16 0.499064)
(-0.000635282 1.2044e-17 0.499519)
(-0.00137592 -2.53506e-16 0.501767)
(-0.00102071 -2.29055e-16 0.505982)
(-0.00072162 6.20204e-17 0.4524)
(-6.79038e-05 6.32624e-16 0.498339)
(-0.000106986 3.17532e-15 0.498347)
(-0.000250285 4.16214e-16 0.498374)
(-0.000240986 1.58709e-15 0.498401)
(-0.000460285 1.17938e-16 0.49846)
(-0.000351332 1.23235e-17 0.498509)
(-0.000699632 -7.4802e-16 0.498605)
(-0.000434394 -4.26422e-16 0.49869)
(-0.000959147 7.47676e-16 0.498826)
(-0.000513424 5.40006e-16 0.498993)
(-0.00119723 4.35014e-16 0.499176)
(-0.000649464 5.18279e-17 0.499641)
(-0.00135731 -2.54583e-16 0.501918)
(-0.00103628 -2.26447e-16 0.505871)
(-0.000683752 -1.92811e-16 0.451803)
(-6.86068e-05 6.46704e-16 0.498453)
(-0.000105645 3.17152e-15 0.498461)
(-0.000251809 3.99855e-16 0.498488)
(-0.000239138 1.57899e-15 0.498515)
(-0.000461718 1.21021e-16 0.498574)
(-0.000349968 -1.35292e-17 0.498623)
(-0.000699422 -7.45266e-16 0.498717)
(-0.000435684 -4.19791e-16 0.498805)
(-0.000954522 1.19962e-15 0.498938)
(-0.000520199 5.16967e-16 0.499107)
(-0.00118558 4.32705e-16 0.499288)
(-0.000663331 9.71764e-17 0.499763)
(-0.00133929 -2.55476e-16 0.502067)
(-0.00105095 -2.24337e-16 0.505754)
(-0.000647552 9.57884e-17 0.451214)
(-6.9304e-05 6.59063e-16 0.498566)
(-0.000104333 3.09143e-15 0.498574)
(-0.000253302 1.25187e-16 0.498601)
(-0.000237401 1.54219e-15 0.498628)
(-0.000463048 1.24333e-16 0.498687)
(-0.000348809 9.50163e-18 0.498736)
(-0.000699038 -7.41832e-16 0.49883)
(-0.000437211 -4.1443e-16 0.498919)
(-0.000949789 9.98732e-16 0.499051)
(-0.000527052 7.52203e-16 0.499222)
(-0.00117409 4.41603e-16 0.499401)
(-0.000676889 1.35135e-16 0.499884)
(-0.00132187 -2.56081e-16 0.502215)
(-0.00106476 -2.13679e-16 0.505632)
(-0.000612951 1.4272e-16 0.450631)
(-6.99732e-05 6.73187e-16 0.49868)
(-0.00010305 8.00165e-16 0.498688)
(-0.000254772 2.123e-16 0.498715)
(-0.000235778 1.64442e-15 0.498742)
(-0.000464288 1.28218e-16 0.4988)
(-0.000347855 -9.97564e-18 0.49885)
(-0.000698504 -7.38218e-16 0.498943)
(-0.000438962 -4.09239e-16 0.499033)
(-0.000944978 9.81303e-16 0.499163)
(-0.000533971 6.88668e-16 0.499336)
(-0.0011628 4.04299e-16 0.499513)
(-0.000690144 7.52328e-17 0.500006)
(-0.00130502 -2.5684e-16 0.502362)
(-0.00107774 -2.4135e-16 0.505504)
(-0.000579869 9.95396e-17 0.450055)
(-7.0644e-05 6.85078e-16 0.498793)
(-0.000101812 3.36876e-15 0.498801)
(-0.000256209 1.42716e-16 0.498828)
(-0.000234278 1.66378e-15 0.498855)
(-0.000465443 1.31349e-16 0.498913)
(-0.000347114 -5.15952e-17 0.498964)
(-0.000697837 -7.35289e-16 0.499055)
(-0.000440934 -4.04564e-16 0.499147)
(-0.000940108 9.30765e-16 0.499275)
(-0.000540952 5.49131e-16 0.49945)
(-0.00115171 3.95511e-16 0.499625)
(-0.000703102 2.31003e-16 0.500128)
(-0.00128875 -2.57826e-16 0.502507)
(-0.00108992 -2.46204e-16 0.505371)
(-0.000548237 1.57725e-16 0.449485)
(-7.12968e-05 7.0729e-16 0.498907)
(-0.000100623 3.35516e-15 0.498915)
(-0.000257622 7.12677e-17 0.498941)
(-0.000232904 1.66448e-15 0.498969)
(-0.000466527 1.35257e-16 0.499026)
(-0.000346586 -1.09826e-16 0.499078)
(-0.000697062 -7.37791e-16 0.499168)
(-0.000443121 -4.00555e-16 0.499261)
(-0.00093521 8.63791e-16 0.499387)
(-0.000547988 7.93913e-16 0.499564)
(-0.00114084 3.94223e-16 0.499737)
(-0.000715771 2.59053e-16 0.500249)
(-0.00127305 -2.58753e-16 0.502651)
(-0.00110136 -2.4274e-16 0.505234)
(-0.000518008 1.5838e-16 0.448921)
(-7.19553e-05 6.81109e-16 0.49902)
(-9.94932e-05 3.34705e-15 0.499028)
(-0.000259 1.10371e-16 0.499055)
(-0.000231664 1.66167e-15 0.499082)
(-0.000467546 1.3377e-16 0.499139)
(-0.000346277 -1.05626e-16 0.499191)
(-0.000696197 -7.16689e-16 0.49928)
(-0.000445526 -3.96746e-16 0.499375)
(-0.000930302 1.25127e-15 0.499499)
(-0.000555078 8.24934e-16 0.499677)
(-0.00113021 3.94e-16 0.49985)
(-0.000728164 1.89979e-16 0.500371)
(-0.0012579 -2.47601e-16 0.502793)
(-0.00111206 -2.39746e-16 0.505092)
(-0.000489094 1.03016e-16 0.448363)
(-7.26056e-05 8.68285e-16 0.499134)
(-9.84271e-05 3.26296e-15 0.499142)
(-0.000260357 -6.73468e-16 0.499168)
(-0.000230562 1.65719e-15 0.499196)
(-0.000468516 1.56832e-16 0.499252)
(-0.000346189 -9.71761e-17 0.499305)
(-0.000695271 -5.75027e-16 0.499393)
(-0.000448146 -3.92864e-16 0.499488)
(-0.000925418 7.51475e-16 0.499611)
(-0.000562221 7.09314e-16 0.499791)
(-0.00111983 3.93507e-16 0.499962)
(-0.000740292 2.41438e-16 0.500492)
(-0.00124331 -1.92412e-16 0.502934)
(-0.00112203 -2.37748e-16 0.504945)
(-0.000461512 1.32661e-16 0.447811)
(-7.32664e-05 1.12609e-16 0.499247)
(-9.74361e-05 3.49439e-15 0.499255)
(-0.000261684 -5.17557e-16 0.499282)
(-0.000229608 1.65387e-15 0.499309)
(-0.000469445 7.23549e-17 0.499365)
(-0.000346332 -1.04563e-16 0.499418)
(-0.000694304 -8.84973e-16 0.499505)
(-0.00045099 -3.90212e-16 0.499602)
(-0.00092058 7.85439e-16 0.499723)
(-0.000569424 7.42658e-16 0.499904)
(-0.00110974 3.93455e-16 0.500074)
(-0.000752177 2.73343e-16 0.500614)
(-0.00122927 -1.62842e-17 0.503072)
(-0.00113138 -2.34826e-16 0.504794)
(-0.000435085 2.02549e-16 0.447264)
(-7.39245e-05 -4.2008e-17 0.499361)
(-9.65237e-05 3.52364e-15 0.499369)
(-0.000262999 -1.51664e-16 0.499395)
(-0.00022881 1.6518e-15 0.499423)
(-0.000470352 5.90851e-17 0.499478)