/*--------------------------------*- C++ -*----------------------------------*\
  =========                 |
  \\      /  F ield         | OpenFOAM: The Open Source CFD Toolbox
   \\    /   O peration     | Website:  https://openfoam.org
    \\  /    A nd           | Version:  7
     \\/     M anipulation  |
\*---------------------------------------------------------------------------*/
FoamFile
{
    version     2.0;
    format      ascii;
    class       volScalarField;
    location    "300";
    object      epsilon;
}
// * * * * * * * * * * * * * * * * * * * * * * * * * * * * * * * * * * * * * //

dimensions      [0 2 -3 0 0 0 0];

internalField   nonuniform List<scalar> 
32100
(
0.0114746
0.0114746
0.0114746
0.0114746
0.0114746
0.0114746
0.0114746
0.0114746
0.0114746
0.0114747
0.0114746
0.0114733
0.0115614
0.0141723
0.22052
0.011444
0.011444
0.011444
0.0114441
0.0114441
0.0114441
0.011444
0.0114441
0.0114441
0.0114441
0.0114444
0.0114618
0.0117392
0.0185918
0.235271
0.0114136
0.0114136
0.0114136
0.0114136
0.0114136
0.0114136
0.0114136
0.0114136
0.0114136
0.0114137
0.0114161
0.0114714
0.0121038
0.0223516
0.250551
0.0113832
0.0113832
0.0113832
0.0113832
0.0113832
0.0113832
0.0113832
0.0113832
0.0113833
0.0113838
0.0113901
0.0114982
0.0125476
0.0256248
0.266374
0.011353
0.011353
0.011353
0.011353
0.011353
0.011353
0.011353
0.011353
0.0113531
0.0113544
0.0113678
0.0115475
0.0130483
0.028685
0.282674
0.0113229
0.0113229
0.0113229
0.0113229
0.0113229
0.0113229
0.0113229
0.0113229
0.0113232
0.0113256
0.0113497
0.0116117
0.0135754
0.0314416
0.299532
0.0112929
0.0112929
0.0112929
0.0112929
0.0112929
0.0112929
0.0112929
0.011293
0.0112934
0.0112977
0.0113364
0.0116897
0.0141223
0.034268
0.316885
0.0112631
0.011263
0.011263
0.011263
0.011263
0.0112631
0.0112631
0.0112632
0.0112638
0.0112706
0.0113272
0.0117807
0.0146842
0.037139
0.334729
0.0112333
0.0112333
0.0112333
0.0112333
0.0112333
0.0112333
0.0112334
0.0112335
0.0112346
0.0112446
0.0113237
0.0118839
0.0152576
0.0400303
0.35306
0.0112037
0.0112037
0.0112037
0.0112037
0.0112037
0.0112037
0.0112038
0.011204
0.0112057
0.0112198
0.0113249
0.0119983
0.0158401
0.0429303
0.371866
0.0111742
0.0111742
0.0111742
0.0111742
0.0111742
0.0111742
0.0111743
0.0111746
0.0111771
0.0111964
0.0113297
0.0121228
0.01643
0.0458321
0.391136
0.0111449
0.0111449
0.0111449
0.0111449
0.0111449
0.0111449
0.011145
0.0111454
0.0111489
0.0111743
0.0113388
0.0122564
0.017026
0.0487357
0.410851
0.0111156
0.0111156
0.0111156
0.0111156
0.0111156
0.0111157
0.0111158
0.0111164
0.0111212
0.0111538
0.0113531
0.0123984
0.0176269
0.0516386
0.430999
0.0110865
0.0110865
0.0110865
0.0110865
0.0110865
0.0110866
0.0110867
0.0110876
0.011094
0.0111349
0.0113718
0.0125478
0.0182321
0.0545442
0.451555
0.0110575
0.0110575
0.0110575
0.0110575
0.0110576
0.0110576
0.0110578
0.011059
0.0110673
0.0111177
0.0113946
0.0127039
0.0188408
0.0574514
0.472502
0.0110287
0.0110287
0.0110287
0.0110287
0.0110287
0.0110288
0.0110291
0.0110306
0.0110412
0.0111023
0.0114215
0.012866
0.019453
0.060366
0.493813
0.0109999
0.0109999
0.0109999
0.011
0.011
0.0110001
0.0110004
0.0110025
0.0110156
0.0110887
0.0114523
0.0130334
0.0200679
0.063286
0.515466
0.0109713
0.0109713
0.0109713
0.0109714
0.0109714
0.0109715
0.010972
0.0109746
0.0109908
0.0110769
0.0114867
0.0132056
0.0206856
0.0662187
0.537431
0.0109429
0.0109429
0.0109429
0.0109429
0.0109429
0.010943
0.0109436
0.010947
0.0109666
0.0110668
0.0115246
0.0133821
0.0213054
0.0691599
0.559685
0.0109145
0.0109145
0.0109145
0.0109145
0.0109146
0.0109147
0.0109155
0.0109196
0.0109432
0.0110587
0.0115659
0.0135624
0.0219278
0.0721184
0.582193
0.0108863
0.0108863
0.0108863
0.0108863
0.0108864
0.0108865
0.0108875
0.0108926
0.0109205
0.0110523
0.0116103
0.0137461
0.0225517
0.0750874
0.604932
0.0108582
0.0108582
0.0108582
0.0108582
0.0108583
0.0108585
0.0108597
0.0108659
0.0108986
0.0110479
0.0116577
0.0139328
0.0231779
0.0780771
0.627862
0.0108302
0.0108302
0.0108302
0.0108302
0.0108303
0.0108306
0.010832
0.0108395
0.0108775
0.0110449
0.0117078
0.0141221
0.0238051
0.0810777
0.65096
0.0108023
0.0108023
0.0108023
0.0108024
0.0108024
0.0108028
0.0108045
0.0108135
0.0108573
0.0110444
0.0117605
0.0143138
0.0244344
0.0841013
0.674184
0.0107746
0.0107746
0.0107746
0.0107746
0.0107747
0.0107751
0.0107773
0.0107878
0.0108379
0.0110451
0.0118156
0.0145075
0.0250641
0.0871344
0.697512
0.0107469
0.0107469
0.0107469
0.010747
0.0107471
0.0107476
0.0107502
0.0107626
0.0108193
0.0110471
0.011873
0.0147031
0.0256957
0.0901918
0.720897
0.0107194
0.0107194
0.0107194
0.0107195
0.0107196
0.0107202
0.0107233
0.0107377
0.0108017
0.0110511
0.0119324
0.0149002
0.026327
0.0932558
0.744321
0.010692
0.010692
0.0106921
0.0106921
0.0106923
0.010693
0.0106966
0.0107133
0.0107849
0.0110566
0.0119938
0.0150988
0.0269601
0.0963444
0.767733
0.0106648
0.0106648
0.0106648
0.0106648
0.010665
0.0106659
0.0106701
0.0106892
0.0107689
0.0110637
0.012057
0.0152984
0.0275921
0.0994353
0.791118
0.0106376
0.0106376
0.0106376
0.0106377
0.0106379
0.010639
0.0106439
0.0106656
0.0107539
0.0110722
0.0121218
0.0154991
0.0282255
0.10255
0.814422
0.0106106
0.0106106
0.0106106
0.0106107
0.0106109
0.0106122
0.0106179
0.0106425
0.0107397
0.0110821
0.0121882
0.0157005
0.0288572
0.105662
0.837635
0.0105836
0.0105836
0.0105837
0.0105837
0.0105841
0.0105855
0.0105921
0.0106198
0.0107264
0.0110934
0.0122559
0.0159026
0.0294899
0.108797
0.8607
0.0105568
0.0105568
0.0105568
0.0105569
0.0105573
0.010559
0.0105666
0.0105976
0.010714
0.0111059
0.012325
0.016105
0.0301199
0.111922
0.883611
0.0105301
0.0105301
0.0105301
0.0105303
0.0105307
0.0105327
0.0105413
0.0105758
0.0107025
0.0111197
0.0123952
0.0163079
0.0307507
0.115069
0.906311
0.0105035
0.0105035
0.0105036
0.0105037
0.0105042
0.0105065
0.0105162
0.0105545
0.0106917
0.0111346
0.0124664
0.0165107
0.0313778
0.118199
0.928798
0.0104771
0.0104771
0.0104771
0.0104772
0.0104779
0.0104805
0.0104915
0.0105337
0.0106818
0.0111507
0.0125386
0.0167138
0.0320053
0.121349
0.951011
0.0104507
0.0104507
0.0104507
0.0104509
0.0104516
0.0104546
0.010467
0.0105134
0.0106728
0.0111678
0.0126116
0.0169165
0.0326281
0.124475
0.972959
0.0104244
0.0104244
0.0104245
0.0104247
0.0104255
0.0104289
0.0104427
0.0104936
0.0106645
0.0111859
0.0126854
0.0171192
0.0332509
0.127618
0.994575
0.0103983
0.0103983
0.0103983
0.0103986
0.0103995
0.0104034
0.0104188
0.0104742
0.010657
0.011205
0.0127598
0.0173212
0.033868
0.130729
1.01588
0.0103723
0.0103723
0.0103723
0.0103726
0.0103737
0.0103781
0.0103951
0.0104554
0.0106502
0.0112249
0.0128348
0.0175229
0.0344846
0.133856
1.0368
0.0103463
0.0103463
0.0103464
0.0103467
0.0103479
0.0103529
0.0103717
0.010437
0.0106443
0.0112457
0.0129103
0.0177238
0.0350944
0.136942
1.05736
0.0103205
0.0103205
0.0103206
0.0103209
0.0103224
0.0103279
0.0103486
0.0104192
0.010639
0.0112673
0.0129862
0.0179241
0.0357033
0.140043
1.07749
0.0102948
0.0102948
0.0102949
0.0102953
0.0102969
0.0103031
0.0103258
0.0104018
0.0106344
0.0112896
0.0130625
0.0181233
0.0363044
0.143096
1.09723
0.0102692
0.0102692
0.0102693
0.0102698
0.0102716
0.0102785
0.0103033
0.0103849
0.0106305
0.0113126
0.013139
0.0183218
0.0369041
0.146161
1.11649
0.0102437
0.0102437
0.0102438
0.0102443
0.0102464
0.0102541
0.0102811
0.0103685
0.0106273
0.0113362
0.0132157
0.0185189
0.0374951
0.14917
1.13534
0.0102183
0.0102183
0.0102184
0.010219
0.0102213
0.0102298
0.0102592
0.0103525
0.0106247
0.0113605
0.0132925
0.0187149
0.038084
0.152191
1.15367
0.010193
0.010193
0.0101932
0.0101938
0.0101964
0.0102058
0.0102376
0.0103371
0.0106227
0.0113853
0.0133693
0.0189094
0.0386635
0.155149
1.17156
0.0101678
0.0101678
0.010168
0.0101688
0.0101716
0.0101819
0.0102163
0.0103221
0.0106214
0.0114106
0.0134461
0.0191027
0.0392402
0.158118
1.18891
0.0101427
0.0101427
0.0101429
0.0101438
0.010147
0.0101583
0.0101953
0.0103075
0.0106204
0.0114363
0.0135229
0.0192942
0.0398069
0.161018
1.20581
0.0101177
0.0101178
0.010118
0.010119
0.0101225
0.0101348
0.0101746
0.0102934
0.0106203
0.0114625
0.0135995
0.0194843
0.0403701
0.163926
1.22213
0.0100928
0.0100929
0.0100931
0.0100942
0.0100982
0.0101115
0.0101542
0.0102798
0.0106206
0.0114891
0.013676
0.0196724
0.0409227
0.166762
1.238
0.010068
0.0100681
0.0100684
0.0100696
0.010074
0.0100885
0.0101342
0.0102665
0.0106212
0.011516
0.0137522
0.0198589
0.041471
0.169603
1.25327
0.0100434
0.0100434
0.0100438
0.0100451
0.0100499
0.0100657
0.0101144
0.0102537
0.0106224
0.0115432
0.013828
0.0200432
0.0420087
0.172372
1.26808
0.0100188
0.0100189
0.0100193
0.0100208
0.010026
0.010043
0.0100949
0.0102414
0.0106241
0.0115707
0.0139036
0.0202257
0.0425408
0.175139
1.28228
0.00999429
0.00999439
0.00999483
0.00999651
0.0100022
0.0100206
0.0100758
0.0102294
0.0106262
0.0115984
0.0139787
0.0204059
0.0430628
0.177838
1.29603
0.0099699
0.00997002
0.00997052
0.00997238
0.00997859
0.00999835
0.0100569
0.0102178
0.0106287
0.0116263
0.0140534
0.020584
0.0435776
0.180526
1.30915
0.00994562
0.00994575
0.00994631
0.00994836
0.00995513
0.00997634
0.0100384
0.0102067
0.0106316
0.0116544
0.0141276
0.0207599
0.0440832
0.183155
1.32185
0.00992143
0.00992158
0.00992221
0.00992446
0.00993181
0.00995453
0.0100201
0.0101959
0.0106349
0.0116826
0.0142012
0.0209333
0.0445798
0.185758
1.33389
0.00989735
0.00989751
0.00989821
0.00990068
0.00990864
0.00993294
0.0100022
0.0101854
0.0106385
0.0117109
0.0142743
0.0211044
0.0450684
0.188318
1.34554
0.00987335
0.00987354
0.00987432
0.00987703
0.00988563
0.00991156
0.00998452
0.0101754
0.0106425
0.0117393
0.0143467
0.0212728
0.0455459
0.190833
1.35651
0.00984946
0.00984967
0.00985054
0.00985349
0.00986277
0.00989039
0.00996715
0.0101657
0.0106468
0.0117677
0.0144185
0.021439
0.0460173
0.193326
1.36713
0.00982566
0.0098259
0.00982686
0.00983008
0.00984007
0.00986943
0.00995007
0.0101563
0.0106513
0.0117961
0.0144896
0.0216022
0.0464752
0.195749
1.37706
0.00980196
0.00980223
0.00980328
0.00980678
0.00981752
0.00984868
0.00993326
0.0101472
0.0106561
0.0118246
0.01456
0.0217632
0.0469292
0.198181
1.38667
0.00977836
0.00977866
0.00977982
0.00978361
0.00979513
0.00982815
0.00991674
0.0101385
0.0106612
0.0118529
0.0146295
0.021921
0.0473671
0.200508
1.39558
0.00975485
0.00975518
0.00975645
0.00976057
0.00977289
0.00980783
0.00990049
0.0101301
0.0106665
0.0118812
0.0146983
0.0220765
0.0478035
0.202884
1.40422
0.00973144
0.0097318
0.0097332
0.00973764
0.00975081
0.00978771
0.00988452
0.010122
0.010672
0.0119095
0.0147663
0.0222288
0.0482215
0.205113
1.41214
0.00970812
0.00970852
0.00971004
0.00971484
0.00972889
0.00976781
0.00986881
0.0101142
0.0106778
0.0119376
0.0148334
0.0223787
0.0486402
0.207443
1.41984
0.00968489
0.00968534
0.009687
0.00969216
0.00970713
0.00974811
0.00985337
0.0101066
0.0106837
0.0119655
0.0148996
0.0225252
0.0490385
0.209571
1.42682
0.00966176
0.00966225
0.00966406
0.00966961
0.00968552
0.00972863
0.00983818
0.0100993
0.0106897
0.0119933
0.0149649
0.0226694
0.0494402
0.21187
1.43362
0.00963872
0.00963926
0.00964122
0.00964718
0.00966407
0.00970934
0.00982325
0.0100923
0.0106959
0.012021
0.0150292
0.0228101
0.0498182
0.213885
1.43969
0.00961578
0.00961637
0.00961849
0.00962488
0.00964278
0.00969027
0.00980856
0.0100855
0.0107022
0.0120484
0.0150926
0.0229488
0.0502052
0.216188
1.44562
0.00959292
0.00959357
0.00959587
0.0096027
0.00962165
0.0096714
0.00979413
0.010079
0.0107087
0.0120756
0.015155
0.0230833
0.0505614
0.218065
1.45083
0.00957016
0.00957087
0.00957335
0.00958064
0.00960067
0.00965272
0.00977992
0.0100726
0.0107152
0.0121026
0.0152165
0.0232166
0.0509371
0.220428
1.45597
0.00954749
0.00954826
0.00955093
0.00955871
0.00957985
0.00963425
0.00976596
0.0100666
0.0107219
0.0121293
0.0152769
0.0233449
0.0512715
0.222138
1.4603
0.00952491
0.00952574
0.00952862
0.0095369
0.00955919
0.00961597
0.00975221
0.0100606
0.0107286
0.0121557
0.0153364
0.0234728
0.0516364
0.224618
1.46474
0.00950241
0.00950332
0.00950641
0.00951521
0.00953868
0.00959789
0.0097387
0.010055
0.0107354
0.012182
0.0153949
0.0235957
0.0519564
0.226205
1.46826
0.00948001
0.00948099
0.0094843
0.00949365
0.00951832
0.00958
0.00972538
0.0100494
0.0107421
0.0122077
0.0154519
0.023717
0.0523036
0.22875
1.47174
0.00945768
0.00945874
0.00946229
0.0094722
0.00949811
0.0095623
0.0097123
0.0100441
0.0107491
0.0122336
0.0155089
0.0238368
0.052629
0.230649
1.47537
0.00943546
0.0094366
0.00944039
0.00945089
0.00947806
0.00954477
0.00969937
0.0100388
0.0107556
0.0122583
0.0155631
0.0239492
0.0529378
0.233822
1.4759
0.00941329
0.00941452
0.00941857
0.00942966
0.00945814
0.00952744
0.00968671
0.0100339
0.0107629
0.012284
0.0156192
0.0240704
0.0533476
0.23615
1.48503
0.00934784
0.00934934
0.00935419
0.00936712
0.00939951
0.00947644
0.00964929
0.0100186
0.0107812
0.0123527
0.0157686
0.024369
0.0539146
0.238336
2.02793
0.00924068
0.00924274
0.00924917
0.00926563
0.00930525
0.00939574
0.00959192
0.00999824
0.0108162
0.0124696
0.0160143
0.0248789
0.0563765
0.312275
3.42611
0.00913578
0.00913851
0.00914677
0.00916717
0.00921441
0.00931845
0.0095366
0.00997554
0.0108384
0.0125503
0.0161707
0.0251873
0.058905
0.375808
3.80273
0.00903257
0.00903606
0.0090464
0.0090711
0.0091264
0.0092443
0.00948435
0.00995534
0.0108627
0.0126357
0.0163531
0.0257436
0.0650652
0.514772
4.27757
0.00893188
0.00893626
0.00894895
0.0089783
0.00904193
0.00917344
0.00943388
0.00993273
0.0108747
0.0126876
0.0164664
0.0262531
0.0729242
0.669406
4.4153
0.00883296
0.0088383
0.00885351
0.00888774
0.00895985
0.00910487
0.00938508
0.00991085
0.0108883
0.0127534
0.0166612
0.0273709
0.0890731
0.876247
4.37878
0.00873668
0.00874311
0.00876109
0.00880045
0.00888113
0.00903921
0.00933767
0.00988682
0.0108919
0.0127914
0.0168142
0.0287271
0.113054
1.10781
4.23077
0.0086421
0.00864968
0.0086705
0.00871507
0.00880423
0.00897496
0.00929073
0.00986204
0.0108966
0.0128575
0.0171678
0.0316668
0.152355
1.33334
3.95787
0.00855024
0.00855907
0.00858295
0.00863292
0.00873055
0.00891337
0.00924511
0.00983649
0.0108986
0.0129207
0.0175446
0.0353412
0.205923
1.55135
3.6605
0.00846001
0.00847011
0.00849702
0.00855229
0.00865808
0.00885244
0.00919941
0.00981065
0.0109055
0.0130239
0.0182716
0.0422733
0.283527
1.73859
3.37315
0.0083725
0.00838396
0.0084141
0.00847482
0.00858873
0.00879417
0.00915534
0.00978572
0.010917
0.0131787
0.0192759
0.0517665
0.379057
1.87765
3.11893
0.00828652
0.0082993
0.00833255
0.00839844
0.00851997
0.00873581
0.00911091
0.00976249
0.0109426
0.0134032
0.0208406
0.0673724
0.496321
1.96197
2.90188
0.00820322
0.00821741
0.00825392
0.00832514
0.00845434
0.00868045
0.00906935
0.00974387
0.0109891
0.0137557
0.023229
0.0896989
0.621959
1.99212
2.71567
0.00812131
0.00813684
0.0081764
0.00825254
0.00838877
0.00862451
0.0090277
0.0097317
0.0110711
0.0142582
0.0266678
0.121623
0.750456
1.98416
2.55391
0.00804203
0.00805897
0.00810172
0.00818297
0.00832647
0.00857232
0.00899167
0.00973352
0.0111915
0.0149987
0.0318791
0.165146
0.87453
1.95658
2.41277
0.00796398
0.00798221
0.0080279
0.00811378
0.00826392
0.00851966
0.00895776
0.00974935
0.0113892
0.0160743
0.0394525
0.221058
0.984339
1.90611
2.28434
0.00788849
0.00790809
0.00795685
0.00804763
0.00820503
0.00847227
0.00893243
0.00977936
0.0116565
0.0176011
0.0506053
0.28853
1.07291
1.85144
2.16749
0.00781405
0.00783488
0.00788643
0.0079817
0.00814593
0.00842468
0.00891072
0.0098477
0.0120666
0.0198301
0.0664583
0.364943
1.13926
1.79636
2.06138
0.00774211
0.00776427
0.00781881
0.00791896
0.00809095
0.00838437
0.008909
0.00995002
0.0126218
0.0229769
0.0884349
0.445568
1.18529
1.74294
1.96529
0.00767106
0.00769439
0.00775163
0.00785635
0.00803641
0.00834742
0.00891856
0.0101157
0.0134308
0.0275326
0.11767
0.526932
1.21272
1.6907
1.87795
0.00760244
0.00762708
0.00768735
0.00779745
0.00798747
0.00831967
0.00894348
0.010342
0.0145298
0.0339703
0.155026
0.604529
1.22725
1.63993
1.79831
0.00753457
0.00756037
0.00762347
0.00773886
0.0079393
0.00829631
0.0090006
0.0106747
0.0161016
0.0431386
0.19996
0.673818
1.23169
1.5904
1.72523
0.00746911
0.00749629
0.00756272
0.00768449
0.00789848
0.0082918
0.00909191
0.0111263
0.0182705
0.0557845
0.251377
0.733061
1.23002
1.54243
1.65777
0.00740435
0.00743276
0.00750238
0.00763106
0.00786175
0.00829893
0.00923378
0.0117626
0.0213408
0.0729175
0.306666
0.78201
1.22502
1.49697
1.59552
0.00734195
0.00737195
0.00744577
0.00758355
0.00783488
0.00832398
0.00943185
0.0126246
0.0255985
0.0952082
0.363832
0.820447
1.21521
1.45338
1.53776
0.00728037
0.0073119
0.00738989
0.00753724
0.00781226
0.00837302
0.00971534
0.0138229
0.0315675
0.123164
0.419999
0.850136
1.20265
1.41174
1.48401
0.00722117
0.00725472
0.00733825
0.00749867
0.00780868
0.00845637
0.0100982
0.0154586
0.0397494
0.156442
0.472757
0.872717
1.18794
1.37199
1.43387
0.00716309
0.00719866
0.00728823
0.00746454
0.00781613
0.0085858
0.0106307
0.0177268
0.0508431
0.194278
0.520644
0.889497
1.17161
1.33403
1.38694
0.00710744
0.00714589
0.00724402
0.00744062
0.0078407
0.00876362
0.0113435
0.0208303
0.0653926
0.235215
0.56286
0.901602
1.15423
1.29779
1.34292
0.00705359
0.00709518
0.00720206
0.0074207
0.00788877
0.00901757
0.0123245
0.0251165
0.0839735
0.277886
0.599129
0.909518
1.13603
1.26314
1.30152
0.00700241
0.00704783
0.00716727
0.00742216
0.00796917
0.00935636
0.0136415
0.0309358
0.106665
0.320475
0.630072
0.914219
1.11747
1.23007
1.26252
0.00695352
0.00700432
0.00713952
0.00743047
0.00809198
0.00982569
0.0154525
0.0388029
0.133363
0.361537
0.656058
0.915497
1.09846
1.19841
1.22569
0.00690895
0.0069656
0.00711853
0.00746021
0.0082608
0.0104485
0.0178951
0.0491243
0.16323
0.400044
0.677767
0.914718
1.07929
1.16806
1.19082
0.00686666
0.00693118
0.00710948
0.00751127
0.00849813
0.0112983
0.021239
0.0624188
0.195612
0.435252
0.69582
0.912399
1.06034
1.13908
1.1578
0.006831
0.00690563
0.00711447
0.00759533
0.00881625
0.0124315
0.0257373
0.0788864
0.229282
0.466974
0.710386
0.907922
1.04136
1.11128
1.12646
0.00679901
0.00688546
0.00713003
0.00771861
0.00925067
0.0139738
0.031786
0.0986433
0.263155
0.495258
0.721911
0.902147
1.02254
1.08462
1.09666
0.00677583
0.00687781
0.00716793
0.00788987
0.00982931
0.0160437
0.0397152
0.121311
0.29626
0.520284
0.730779
0.895268
1.00393
1.05901
1.06829
0.0067588
0.00688215
0.00723231
0.00812579
0.0106094
0.0188501
0.0499475
0.146494
0.327831
0.542238
0.737337
0.887477
0.985582
1.03441
1.04123
0.00675719
0.0068998
0.00732992
0.00844558
0.0116517
0.0226083
0.0627149
0.17344
0.357415
0.561318
0.741877
0.878939
0.967538
1.01076
1.01539
0.00676309
0.00693474
0.00746633
0.00887488
0.0130564
0.0276274
0.0781943
0.201364
0.38479
0.577723
0.744656
0.869783
0.949803
0.987998
0.990677
0.00678391
0.00699918
0.00765852
0.00945118
0.0149414
0.0341999
0.0962297
0.229481
0.409901
0.59172
0.745878
0.860161
0.932423
0.966082
0.967022
0.00682426
0.00709106
0.00791665
0.0102201
0.0174769
0.0426665
0.116597
0.257103
0.432701
0.603414
0.74562
0.85004
0.915333
0.944936
0.944358
0.00689497
0.00722611
0.00826894
0.0112537
0.0208674
0.0532647
0.13881
0.283741
0.453264
0.613211
0.744551
0.839742
0.898625
0.924538
0.922618
0.00699407
0.00740859
0.0087363
0.0126359
0.0253666
0.0661696
0.162292
0.30907
0.47165
0.621178
0.742268
0.829177
0.882265
0.904845
0.901728
0.00713803
0.00766181
0.00936763
0.014498
0.0312546
0.0813272
0.186427
0.332896
0.487975
0.627493
0.739047
0.818399
0.866239
0.88581
0.881625
0.00733108
0.00799769
0.010207
0.0169885
0.0388057
0.0986074
0.210635
0.355076
0.50233
0.632305
0.735049
0.807466
0.850535
0.867388
0.862253
0.00759762
0.00845384
0.0113404
0.0203226
0.0482687
0.117661
0.234468
0.375565
0.514894
0.635826
0.73041
0.796456
0.835168
0.849553
0.843569
0.00795059
0.00905912
0.012857
0.0247247
0.0597641
0.138042
0.257579
0.394313
0.525708
0.638079
0.725126
0.785349
0.820102
0.832257
0.825524
0.00842914
0.00987774
0.0149056
0.0304737
0.0733235
0.159262
0.279722
0.411393
0.535033
0.639387
0.719418
0.774255
0.805368
0.815488
0.808083
0.00906489
0.010973
0.0176483
0.0378135
0.0888055
0.18084
0.300706
0.426791
0.542781
0.639426
0.713118
0.763093
0.790916
0.799202
0.791205
0.00992641
0.0124594
0.0213178
0.0469672
0.105949
0.202382
0.320405
0.440593
0.549253
0.638913
0.706511
0.751949
0.77675
0.78337
0.774853
0.0110846
0.0144644
0.0261518
0.0580394
0.124372
0.223556
0.338758
0.452898
0.554538
0.637601
0.699611
0.740858
0.762877
0.767976
0.758999
0.0126673
0.0171865
0.0324335
0.0710466
0.14367
0.244089
0.355711
0.463735
0.558621
0.635415
0.692347
0.729781
0.749267
0.752988
0.743609
0.0148247
0.0208487
0.0403916
0.0858348
0.163438
0.263782
0.371273
0.473213
0.561666
0.632627
0.684823
0.718746
0.735914
0.738386
0.728656
0.0177944
0.0257472
0.0502203
0.102149
0.183315
0.28247
0.385422
0.481355
0.563692
0.629221
0.67704
0.70774
0.722794
0.724136
0.714103
0.0218599
0.0321771
0.0619796
0.119642
0.202983
0.300056
0.398226
0.488326
0.564899
0.625339
0.669081
0.696797
0.709907
0.710222
0.699932
0.0274057
0.0404492
0.075618
0.137949
0.222176
0.31645
0.409666
0.494054
0.565078
0.620874
0.660897
0.685892
0.697233
0.696638
0.686108
0.0348327
0.05078
0.0909328
0.156697
0.240677
0.331606
0.419808
0.498734
0.564677
0.616007
0.652548
0.675032
0.684758
0.68335
0.672616
0.0445506
0.0633032
0.107647
0.175545
0.25831
0.345493
0.428707
0.502428
0.56359
0.610771
0.644072
0.664231
0.672476
0.670337
0.659437
0.0568281
0.0779746
0.125411
0.194184
0.274943
0.358108
0.436397
0.505116
0.561696
0.605108
0.635448
0.653481
0.660377
0.657581
0.646552
0.0717374
0.0946128
0.14387
0.212351
0.290451
0.369411
0.442876
0.50684
0.559162
0.599055
0.626672
0.642763
0.648437
0.645059
0.633936
0.089069
0.112879
0.162667
0.22983
0.304774
0.379452
0.448255
0.507722
0.556071
0.592684
0.617779
0.632086
0.63665
0.632755
0.621572
0.108375
0.132333
0.181471
0.246436
0.317821
0.388161
0.452426
0.507598
0.552311
0.585939
0.608741
0.621432
0.624998
0.620652
0.609442
0.129028
0.152461
0.199971
0.262039
0.329584
0.39563
0.455616
0.506899
0.548092
0.578905
0.599584
0.610797
0.613465
0.60873
0.597525
0.150339
0.172737
0.21788
0.276516
0.340014
0.401821
0.457721
0.505306
0.543318
0.571562
0.590302
0.600175
0.602041
0.596974
0.585806
0.171628
0.192652
0.234937
0.289797
0.349156
0.406833
0.458842
0.50292
0.538016
0.563912
0.580889
0.589553
0.590709
0.585366
0.574265
0.192311
0.211771
0.250922
0.301804
0.356948
0.410527
0.458746
0.499677
0.532135
0.555922
0.571322
0.578913
0.579449
0.573886
0.562887
0.211896
0.229713
0.265621
0.312465
0.363444
0.413141
0.457985
0.49581
0.525771
0.54762
0.561598
0.568239
0.568246
0.562514
0.551653
0.230038
0.246222
0.27893
0.321818
0.368763
0.414727
0.456254
0.491266
0.518935
0.539015
0.551713
0.557517
0.557086
0.551231
0.540539
0.246488
0.261099
0.290718
0.329762
0.372743
0.415005
0.453465
0.485958
0.511579
0.530083
0.541651
0.546731
0.545943
0.540019
0.529528
0.261097
0.274227
0.300929
0.336332
0.375592
0.414497
0.449939
0.480016
0.503747
0.520832
0.531406
0.53587
0.534801
0.528863
0.518603
0.273797
0.285566
0.309581
0.341617
0.377408
0.413119
0.445721
0.47351
0.495479
0.511273
0.520969
0.524914
0.523638
0.517739
0.507743
0.284631
0.295153
0.316687
0.345559
0.378005
0.410679
0.440743
0.466447
0.486806
0.501433
0.510353
0.513863
0.512444
0.506633
0.496931
0.293552
0.30294
0.322213
0.348202
0.377636
0.407441
0.435086
0.458849
0.477733
0.49131
0.499555
0.502709
0.501206
0.49553
0.48615
0.300784
0.309169
0.326435
0.349839
0.376516
0.403592
0.428917
0.450833
0.468333
0.480945
0.48859
0.491455
0.48992
0.484418
0.475388
0.306277
0.313741
0.329141
0.350093
0.374258
0.398973
0.422203
0.442418
0.458639
0.470368
0.477481
0.480111
0.478586
0.473292
0.464634
0.310277
0.316937
0.330717
0.349561
0.371302
0.39376
0.415028
0.433656
0.448689
0.459608
0.466246
0.468686
0.467208
0.46215
0.453882
0.312815
0.318741
0.331019
0.348071
0.367662
0.38804
0.407478
0.42462
0.438539
0.448706
0.454914
0.457201
0.455795
0.450993
0.44313
0.314064
0.319339
0.330427
0.345624
0.36332
0.381821
0.399579
0.415344
0.428228
0.437697
0.443513
0.445673
0.444361
0.43983
0.432379
0.314086
0.318925
0.328872
0.342472
0.35842
0.375197
0.391404
0.405887
0.417803
0.426619
0.432075
0.434129
0.432922
0.428669
0.421635
0.31342
0.317665
0.326425
0.338628
0.353002
0.36821
0.382993
0.39629
0.407303
0.415509
0.420629
0.422591
0.421496
0.417525
0.410906
0.311662
0.315378
0.323229
0.334187
0.347145
0.360926
0.374399
0.386597
0.396768
0.4044
0.409206
0.411087
0.410106
0.406414
0.400204
0.308954
0.312316
0.319363
0.329212
0.3409
0.353388
0.365665
0.376846
0.386231
0.393326
0.397836
0.39964
0.398772
0.395352
0.389542
0.305588
0.308607
0.314931
0.323787
0.334332
0.345647
0.35683
0.367074
0.375727
0.382316
0.386545
0.388277
0.387517
0.384359
0.378936
0.30163
0.304337
0.310013
0.317979
0.327494
0.337748
0.347931
0.357311
0.365284
0.371398
0.37536
0.377021
0.376362
0.373454
0.368402
0.297156
0.299585
0.304683
0.311852
0.320441
0.329732
0.339003
0.347588
0.354928
0.360596
0.364304
0.365894
0.365327
0.362654
0.357956
0.292248
0.294429
0.299009
0.305462
0.313218
0.321639
0.330077
0.337931
0.344683
0.349933
0.353398
0.354915
0.354432
0.351979
0.347616
0.286977
0.288935
0.293051
0.298864
0.305869
0.313502
0.321181
0.328362
0.33457
0.339426
0.34266
0.344105
0.343695
0.341446
0.337398
0.281401
0.283161
0.286864
0.292104
0.298434
0.305352
0.312341
0.318904
0.324606
0.329094
0.332107
0.333478
0.333132
0.33107
0.327317
0.275579
0.277163
0.280498
0.285224
0.290946
0.297218
0.303577
0.309573
0.314807
0.31895
0.321752
0.323049
0.322757
0.320867
0.317389
0.269565
0.270992
0.273998
0.278262
0.283437
0.289124
0.294909
0.300385
0.305187
0.309007
0.311609
0.31283
0.312584
0.310849
0.307626
0.263406
0.264692
0.267403
0.271253
0.275934
0.281093
0.286355
0.291355
0.295756
0.299274
0.301685
0.302832
0.302622
0.301029
0.29804
0.257143
0.258303
0.260749
0.264227
0.268464
0.273143
0.27793
0.282492
0.286524
0.28976
0.291991
0.293062
0.292882
0.291415
0.288643
0.250812
0.251859
0.254067
0.257211
0.261047
0.265292
0.269646
0.273808
0.277498
0.280472
0.282531
0.283529
0.28337
0.282017
0.279444
0.244445
0.245391
0.247386
0.250229
0.253703
0.257555
0.261514
0.26531
0.268685
0.271415
0.273312
0.274236
0.274094
0.272842
0.27045
0.238071
0.238926
0.240729
0.243301
0.246448
0.249943
0.253544
0.257004
0.260089
0.262591
0.264335
0.265188
0.265057
0.263895
0.26167
0.231713
0.232487
0.234118
0.236446
0.239297
0.242469
0.245744
0.248896
0.251714
0.254004
0.255605
0.256387
0.256263
0.255182
0.253108
0.225395
0.226095
0.227571
0.229678
0.232262
0.235142
0.238118
0.24099
0.243562
0.245656
0.247121
0.247836
0.247714
0.246704
0.244768
0.219133
0.219767
0.221103
0.223012
0.225354
0.227968
0.230674
0.233288
0.235634
0.237546
0.238884
0.239534
0.239411
0.238464
0.236655
0.212944
0.213518
0.214729
0.216458
0.218582
0.220954
0.223414
0.225793
0.22793
0.229674
0.230894
0.231481
0.231354
0.230464
0.228769
0.206842
0.207363
0.208459
0.210027
0.211953
0.214106
0.216341
0.218505
0.220451
0.222039
0.223148
0.223675
0.223544
0.222703
0.221112
0.200839
0.201311
0.202304
0.203725
0.205472
0.207427
0.209457
0.211425
0.213195
0.21464
0.215645
0.216115
0.215977
0.21518
0.213685
0.194943
0.195371
0.196272
0.197561
0.199145
0.20092
0.202764
0.204552
0.206161
0.207473
0.208382
0.208799
0.208653
0.207895
0.206486
0.189164
0.189552
0.190369
0.191538
0.192976
0.194586
0.196261
0.197886
0.199347
0.200536
0.201356
0.201722
0.201568
0.200845
0.199516
0.183508
0.18386
0.184602
0.185662
0.186966
0.188428
0.189948
0.191424
0.192749
0.193826
0.194563
0.194882
0.19472
0.194028
0.192771
0.17798
0.178301
0.178973
0.179935
0.181119
0.182445
0.183825
0.185164
0.186366
0.187339
0.188
0.188274
0.188103
0.18744
0.186249
0.172585
0.172876
0.173487
0.17436
0.175434
0.176638
0.17789
0.179105
0.180193
0.181072
0.181662
0.181895
0.181716
0.181078
0.179949
0.167327
0.167591
0.168146
0.168938
0.169913
0.171005
0.172142
0.173242
0.174228
0.175019
0.175545
0.17574
0.175552
0.174938
0.173865
0.162207
0.162447
0.162951
0.16367
0.164555
0.165546
0.166577
0.167574
0.168465
0.169177
0.169643
0.169803
0.169608
0.169016
0.167995
0.157226
0.157445
0.157903
0.158556
0.159359
0.160259
0.161193
0.162097
0.162901
0.16354
0.163952
0.16408
0.163878
0.163306
0.162334
0.152387
0.152587
0.153002
0.153595
0.154325
0.155141
0.155988
0.156806
0.157532
0.158105
0.158467
0.158566
0.158358
0.157805
0.156878
0.14769
0.147871
0.148249
0.148787
0.149449
0.15019
0.150958
0.151698
0.152353
0.152866
0.153183
0.153255
0.153043
0.152508
0.151623
0.143133
0.143298
0.143641
0.14413
0.144732
0.145404
0.146101
0.14677
0.14736
0.147818
0.148094
0.148143
0.147926
0.147408
0.146564
0.138716
0.138866
0.139178
0.139623
0.140169
0.14078
0.141411
0.142016
0.142547
0.142956
0.143195
0.143223
0.143003
0.142502
0.141697
0.134437
0.134574
0.134859
0.135263
0.13576
0.136314
0.136886
0.137433
0.137911
0.138274
0.138481
0.13849
0.138269
0.137785
0.137016
0.130296
0.130421
0.13068
0.131048
0.131499
0.132003
0.132521
0.133016
0.133446
0.133769
0.133946
0.133939
0.133717
0.13325
0.132516
0.126291
0.126405
0.12664
0.126975
0.127386
0.127843
0.128314
0.128761
0.129148
0.129435
0.129585
0.129565
0.129344
0.128894
0.128194
0.122418
0.122522
0.122737
0.123042
0.123416
0.123831
0.124259
0.124664
0.125012
0.125266
0.125394
0.125362
0.125143
0.12471
0.124044
0.118676
0.118771
0.118967
0.119245
0.119586
0.119964
0.120352
0.120719
0.121032
0.121259
0.121367
0.121326
0.12111
0.120695
0.120062
0.115063
0.115149
0.115328
0.115582
0.115893
0.116238
0.116591
0.116924
0.117206
0.117408
0.117498
0.117451
0.11724
0.116844
0.116243
0.111575
0.111654
0.111817
0.112049
0.112333
0.112648
0.11297
0.113273
0.113528
0.113708
0.113785
0.113733
0.113529
0.113152
0.112584
0.10821
0.108282
0.108432
0.108644
0.108904
0.109192
0.109486
0.109762
0.109994
0.110155
0.110221
0.110167
0.109972
0.109615
0.109082
0.104965
0.105032
0.105169
0.105364
0.105602
0.105867
0.106136
0.106389
0.1066
0.106746
0.106804
0.106751
0.106566
0.106231
0.105732
0.10184
0.1019
0.102026
0.102206
0.102425
0.102668
0.102916
0.103149
0.103343
0.103477
0.103529
0.103479
0.103306
0.102995
0.102532
0.0988307
0.098886
0.099002
0.0991674
0.0993701
0.0995949
0.0998244
0.10004
0.10022
0.100345
0.100395
0.10035
0.100192
0.0999067
0.099481
0.0959378
0.0959881