/*--------------------------------*- C++ -*----------------------------------*\
  =========                 |
  \\      /  F ield         | OpenFOAM: The Open Source CFD Toolbox
   \\    /   O peration     | Website:  https://openfoam.org
    \\  /    A nd           | Version:  7
     \\/     M anipulation  |
\*---------------------------------------------------------------------------*/
FoamFile
{
    version     2.0;
    format      ascii;
    class       volScalarField;
    location    "300";
    object      k;
}
// * * * * * * * * * * * * * * * * * * * * * * * * * * * * * * * * * * * * * //

dimensions      [0 2 -2 0 0 0 0];

internalField   nonuniform List<scalar> 
32100
(
0.00579596
0.00579596
0.00579596
0.00579596
0.00579596
0.00579596
0.00579596
0.00579596
0.00579596
0.00579597
0.00579598
0.0057959
0.0058002
0.00584998
0.00590062
0.00578791
0.00578791
0.00578791
0.00578791
0.00578791
0.00578791
0.00578791
0.00578791
0.00578791
0.00578792
0.00578798
0.00579005
0.0058088
0.00595213
0.00616092
0.00577988
0.00577988
0.00577988
0.00577988
0.00577988
0.00577988
0.00577988
0.00577988
0.00577989
0.00577994
0.00578047
0.00578982
0.0058205
0.00600937
0.00642486
0.00577187
0.00577187
0.00577187
0.00577187
0.00577187
0.00577187
0.00577187
0.00577187
0.00577189
0.00577206
0.00577344
0.00579043
0.00583647
0.00604149
0.0066926
0.00576388
0.00576388
0.00576388
0.00576388
0.00576388
0.00576388
0.00576388
0.00576389
0.00576393
0.00576432
0.00576702
0.00579166
0.00585204
0.00605973
0.00696291
0.00575591
0.00575591
0.00575591
0.00575591
0.00575591
0.00575591
0.00575592
0.00575593
0.00575602
0.00575672
0.00576111
0.00579172
0.0058649
0.00607033
0.00723706
0.00574797
0.00574797
0.00574797
0.00574797
0.00574797
0.00574797
0.00574798
0.005748
0.00574815
0.00574927
0.00575561
0.0057913
0.0058736
0.00607716
0.00751394
0.00574005
0.00574005
0.00574005
0.00574005
0.00574005
0.00574005
0.00574006
0.0057401
0.00574033
0.00574196
0.00575041
0.00579019
0.00587913
0.00608191
0.00779343
0.00573215
0.00573215
0.00573215
0.00573215
0.00573215
0.00573216
0.00573217
0.00573224
0.00573258
0.00573477
0.00574537
0.00578801
0.00588037
0.00608522
0.00807544
0.00572428
0.00572428
0.00572428
0.00572428
0.00572428
0.00572429
0.00572431
0.0057244
0.00572489
0.00572771
0.00574036
0.00578501
0.00587945
0.00608756
0.0083597
0.00571643
0.00571643
0.00571643
0.00571643
0.00571643
0.00571644
0.00571647
0.0057166
0.00571727
0.00572074
0.00573532
0.00578132
0.00587693
0.00608929
0.00864606
0.00570861
0.00570861
0.00570861
0.00570861
0.00570861
0.00570862
0.00570866
0.00570883
0.00570971
0.00571387
0.00573019
0.00577696
0.00587212
0.00609071
0.00893421
0.00570081
0.00570081
0.00570081
0.00570081
0.00570081
0.00570083
0.00570088
0.0057011
0.00570222
0.00570707
0.00572493
0.00577197
0.00586599
0.00609198
0.00922396
0.00569303
0.00569303
0.00569303
0.00569303
0.00569304
0.00569306
0.00569313
0.00569341
0.00569478
0.00570033
0.0057195
0.00576644
0.00585886
0.00609337
0.00951496
0.00568528
0.00568528
0.00568528
0.00568529
0.00568529
0.00568532
0.0056854
0.00568575
0.0056874
0.00569363
0.00571391
0.00576043
0.00585101
0.00609493
0.00980699
0.00567756
0.00567756
0.00567756
0.00567756
0.00567757
0.0056776
0.00567771
0.00567814
0.00568007
0.00568696
0.00570813
0.00575399
0.00584265
0.00609692
0.0100997
0.00566985
0.00566985
0.00566986
0.00566986
0.00566988
0.00566991
0.00567004
0.00567057
0.00567279
0.0056803
0.00570216
0.00574718
0.00583391
0.0060993
0.0103928
0.00566218
0.00566218
0.00566218
0.00566219
0.0056622
0.00566225
0.00566241
0.00566303
0.00566555
0.00567365
0.00569602
0.00574004
0.00582495
0.00610235
0.010686
0.00565453
0.00565453
0.00565453
0.00565454
0.00565456
0.00565461
0.0056548
0.00565553
0.00565836
0.005667
0.00568969
0.00573261
0.00581582
0.00610589
0.010979
0.0056469
0.0056469
0.00564691
0.00564692
0.00564694
0.005647
0.00564723
0.00564807
0.0056512
0.00566032
0.0056832
0.00572494
0.0058066
0.00611027
0.0112714
0.0056393
0.0056393
0.0056393
0.00563932
0.00563934
0.00563941
0.00563968
0.00564065
0.00564407
0.00565363
0.00567654
0.00571704
0.00579732
0.00611519
0.011563
0.00563172
0.00563173
0.00563173
0.00563174
0.00563177
0.00563185
0.00563217
0.00563326
0.00563697
0.00564691
0.00566973
0.00570896
0.00578803
0.00612109
0.0118534
0.00562417
0.00562417
0.00562418
0.00562419
0.00562422
0.00562432
0.00562469
0.00562591
0.0056299
0.00564015
0.00566276
0.00570069
0.00577872
0.0061275
0.0121424
0.00561664
0.00561664
0.00561665
0.00561666
0.0056167
0.00561682
0.00561723
0.00561859
0.00562284
0.00563335
0.00565566
0.00569228
0.00576943
0.00613499
0.0124295
0.00560914
0.00560914
0.00560914
0.00560916
0.00560921
0.00560934
0.00560981
0.00561131
0.0056158
0.00562651
0.00564843
0.00568372
0.00576011
0.00614293
0.0127145
0.00560166
0.00560166
0.00560166
0.00560168
0.00560173
0.00560189
0.00560241
0.00560405
0.00560877
0.00561963
0.00564107
0.00567504
0.00575083
0.00615204
0.0129972
0.0055942
0.0055942
0.00559421
0.00559423
0.00559429
0.00559446
0.00559505
0.00559682
0.00560174
0.0056127
0.00563359
0.00566624
0.00574149
0.00616149
0.0132772
0.00558677
0.00558677
0.00558678
0.0055868
0.00558686
0.00558706
0.00558771
0.00558962
0.00559473
0.00560571
0.005626
0.00565733
0.0057322
0.0061722
0.0135542
0.00557936
0.00557936
0.00557937
0.00557939
0.00557947
0.00557969
0.0055804
0.00558244
0.00558771
0.00559868
0.00561831
0.00564832
0.00572282
0.0061831
0.013828
0.00557197
0.00557197
0.00557198
0.00557201
0.00557209
0.00557234
0.00557312
0.00557528
0.0055807
0.0055916
0.00561051
0.00563921
0.00571346
0.00619535
0.0140983
0.00556461
0.00556461
0.00556462
0.00556465
0.00556474
0.00556502
0.00556586
0.00556815
0.00557368
0.00558446
0.00560262
0.00563
0.00570399
0.00620762
0.0143649
0.00555727
0.00555727
0.00555728
0.00555731
0.00555742
0.00555772
0.00555863
0.00556103
0.00556665
0.00557728
0.00559464
0.00562071
0.00569453
0.00622135
0.0146274
0.00554995
0.00554995
0.00554996
0.00555
0.00555011
0.00555045
0.00555143
0.00555394
0.00555962
0.00557004
0.00558657
0.00561132
0.00568491
0.00623488
0.0148859
0.00554265
0.00554265
0.00554266
0.00554271
0.00554283
0.0055432
0.00554425
0.00554685
0.00555258
0.00556275
0.00557842
0.00560185
0.00567531
0.00625001
0.0151397
0.00553538
0.00553538
0.00553539
0.00553544
0.00553558
0.00553598
0.00553709
0.00553979
0.00554552
0.00555541
0.00557019
0.00559229
0.0056655
0.00626469
0.0153891
0.00552812
0.00552813
0.00552814
0.0055282
0.00552835
0.00552878
0.00552996
0.00553273
0.00553846
0.00554801
0.00556188
0.00558264
0.0056557
0.00628112
0.0156335
0.0055209
0.0055209
0.00552091
0.00552097
0.00552114
0.00552161
0.00552284
0.00552569
0.00553138
0.00554057
0.00555349
0.0055729
0.00564564
0.00629684
0.0158731
0.00551369
0.00551369
0.00551371
0.00551378
0.00551396
0.00551446
0.00551575
0.00551865
0.00552428
0.00553308
0.00554503
0.00556308
0.00563561
0.00631448
0.0161074
0.0055065
0.00550651
0.00550653
0.0055066
0.0055068
0.00550733
0.00550868
0.00551163
0.00551716
0.00552553
0.00553649
0.00555316
0.00562527
0.00633112
0.0163366
0.00549934
0.00549934
0.00549936
0.00549944
0.00549966
0.00550023
0.00550163
0.00550461
0.00551003
0.00551794
0.00552789
0.00554316
0.00561496
0.00634989
0.0165601
0.00549219
0.0054922
0.00549222
0.00549231
0.00549254
0.00549315
0.0054946
0.00549759
0.00550288
0.0055103
0.00551921
0.00553305
0.00560431
0.00636733
0.0167783
0.00548507
0.00548508
0.00548511
0.0054852
0.00548545
0.00548609
0.00548758
0.00549058
0.00549571
0.00550261
0.00551047
0.00552287
0.0055937
0.00638714
0.0169906
0.00547797
0.00547798
0.00547801
0.00547811
0.00547838
0.00547905
0.00548058
0.00548358
0.00548852
0.00549487
0.00550166
0.00551258
0.0055827
0.00640527
0.0171975
0.0054709
0.0054709
0.00547094
0.00547105
0.00547133
0.00547204
0.0054736
0.00547657
0.00548131
0.00548709
0.00549278
0.00550221
0.00557177
0.00642606
0.0173982
0.00546384
0.00546385
0.00546388
0.005464
0.00546431
0.00546504
0.00546663
0.00546957
0.00547407
0.00547926
0.00548384
0.00549172
0.0055604
0.00644478
0.0175934
0.0054568
0.00545681
0.00545685
0.00545698
0.0054573
0.00545806
0.00545967
0.00546256
0.00546682
0.00547139
0.00547484
0.00548116
0.00554913
0.00646649
0.0177823
0.00544978
0.0054498
0.00544984
0.00544998
0.00545032
0.0054511
0.00545273
0.00545555
0.00545954
0.00546347
0.00546576
0.00547047
0.00553738
0.0064857
0.0179657
0.00544279
0.0054428
0.00544285
0.005443
0.00544336
0.00544417
0.00544579
0.00544854
0.00545224
0.00545551
0.00545663
0.00545971
0.00552576
0.00650827
0.0181426
0.00543582
0.00543583
0.00543588
0.00543604
0.00543641
0.00543725
0.00543887
0.00544153
0.00544491
0.0054475
0.00544743
0.00544882
0.00551361
0.00652789
0.0183141
0.00542886
0.00542888
0.00542893
0.0054291
0.00542949
0.00543034
0.00543196
0.00543452
0.00543756
0.00543944
0.00543817
0.00543786
0.00550164
0.00655128
0.018479
0.00542193
0.00542194
0.00542201
0.00542218
0.00542259
0.00542346
0.00542506
0.0054275
0.00543019
0.00543135
0.00542885
0.00542677
0.0054891
0.00657124
0.0186386
0.00541501
0.00541503
0.0054151
0.00541529
0.00541571
0.00541659
0.00541817
0.00542047
0.0054228
0.00542321
0.00541946
0.00541561
0.00547677
0.00659541
0.0187915
0.00540812
0.00540814
0.00540821
0.00540841
0.00540885
0.00540973
0.00541129
0.00541344
0.00541537
0.00541503
0.00541
0.00540432
0.00546384
0.00661566
0.0189393
0.00540125
0.00540127
0.00540135
0.00540155
0.005402
0.0054029
0.00540441
0.0054064
0.00540793
0.0054068
0.00540049
0.00539295
0.00545117
0.00664058
0.0190804
0.00539439
0.00539442
0.0053945
0.00539471
0.00539518
0.00539607
0.00539754
0.00539936
0.00540046
0.00539854
0.00539091
0.00538146
0.00543787
0.00666107
0.0192166
0.00538756
0.00538759
0.00538767
0.0053879
0.00538837
0.00538926
0.00539067
0.0053923
0.00539296
0.00539023
0.00538127
0.00536989
0.00542485
0.00668672
0.0193461
0.00538075
0.00538077
0.00538087
0.0053811
0.00538158
0.00538247
0.00538381
0.00538524
0.00538544
0.00538188
0.00537157
0.00535819
0.0054112
0.00670742
0.019471
0.00537395
0.00537398
0.00537408
0.00537432
0.00537481
0.00537569
0.00537696
0.00537817
0.0053779
0.00537349
0.0053618
0.00534642
0.00539786
0.00673379
0.019589
0.00536718
0.00536721
0.00536731
0.00536756
0.00536806
0.00536892
0.00537011
0.00537109
0.00537033
0.00536506
0.00535198
0.00533453
0.00538389
0.0067547
0.0197029
0.00536042
0.00536046
0.00536056
0.00536082
0.00536132
0.00536216
0.00536326
0.005364
0.00536274
0.00535658
0.00534209
0.00532255
0.00537023
0.00678175
0.0198099
0.00535369
0.00535372
0.00535383
0.0053541
0.0053546
0.00535541
0.00535641
0.00535689
0.00535512
0.00534807
0.00533215
0.00531047
0.00535597
0.0068029
0.0199131
0.00534697
0.00534701
0.00534712
0.00534739
0.00534789
0.00534868
0.00534957
0.00534978
0.00534748
0.00533952
0.00532214
0.00529829
0.00534201
0.00683058
0.0200095
0.00534027
0.00534031
0.00534043
0.0053407
0.0053412
0.00534195
0.00534273
0.00534266
0.00533982
0.00533093
0.00531208
0.00528602
0.00532752
0.00685207
0.0201025
0.00533359
0.00533363
0.00533376
0.00533404
0.00533453
0.00533524
0.00533589
0.00533553
0.00533212
0.00532229
0.00530195
0.00527364
0.00531326
0.00688024
0.0201885
0.00532693
0.00532697
0.0053271
0.00532738
0.00532787
0.00532853
0.00532905
0.00532839
0.00532441
0.00531363
0.00529177
0.0052612
0.00529859
0.00690227
0.0202717
0.00532029
0.00532033
0.00532047
0.00532075
0.00532122
0.00532184
0.00532221
0.00532123
0.00531667
0.00530492
0.00528152
0.00524861
0.00528403
0.00693074
0.0203479
0.00531366
0.00531371
0.00531385
0.00531413
0.00531459
0.00531515
0.00531537
0.00531407
0.00530891
0.00529617
0.00527124
0.00523602
0.00526926
0.00695361
0.0204218
0.00530706
0.00530711
0.00530725
0.00530753
0.00530797
0.00530847
0.00530853
0.00530689
0.00530112
0.00528738
0.00526087
0.00522322
0.00525441
0.00698209
0.0204886
0.00530047
0.00530052
0.00530066
0.00530094
0.00530137
0.0053018
0.00530168
0.0052997
0.00529331
0.00527857
0.00525048
0.00521049
0.00523961
0.00700617
0.0205536
0.0052939
0.00529395
0.00529409
0.00529437
0.00529478
0.00529513
0.00529484
0.00529249
0.00528547
0.0052697
0.00523999
0.00519747
0.00522448
0.00703452
0.0206116
0.00528734
0.0052874
0.00528754
0.00528782
0.0052882
0.00528847
0.00528799
0.00528528
0.00527761
0.00526082
0.00522951
0.00518465
0.0052097
0.00705986
0.0206682
0.00528081
0.00528086
0.00528101
0.00528128
0.00528163
0.00528182
0.00528115
0.00527805
0.00526973
0.00525188
0.00521889
0.00517139
0.00519435
0.00708853
0.0207177
0.00527429
0.00527435
0.00527449
0.00527475
0.00527507
0.00527517
0.0052743
0.00527081
0.00526183
0.00524293
0.00520834
0.0051585
0.00517962
0.00711461
0.0207667
0.00526778
0.00526784
0.00526799
0.00526824
0.00526852
0.00526853
0.00526744
0.00526356
0.00525389
0.00523391
0.00519757
0.00514498
0.00516413
0.00714466
0.0208079
0.0052613
0.00526136
0.0052615
0.00526175
0.00526199
0.00526189
0.00526059
0.0052563
0.00524595
0.00522491
0.00518698
0.0051321
0.00514946
0.00717103
0.0208497
0.00525483
0.00525489
0.00525503
0.00525526
0.00525546
0.00525526
0.00525373
0.00524902
0.00523796
0.0052158
0.00517604
0.00511825
0.00513392
0.007203
0.020884
0.00524837
0.00524843
0.00524857
0.00524879
0.00524894
0.00524863
0.00524686
0.00524173
0.00522999
0.00520678
0.00516546
0.00510548
0.0051194
0.00723125
0.0209168
0.00524193
0.00524199
0.00524212
0.00524233
0.00524243
0.005242
0.00523999
0.00523442
0.00522195
0.00519755
0.00515429
0.00509122
0.00510382
0.00726332
0.0209445
0.0052355
0.00523556
0.00523569
0.00523587
0.00523593
0.00523537
0.00523312
0.00522712
0.00521396
0.00518856
0.00514384
0.00507875
0.00508976
0.00730221
0.0209849
0.00522908
0.00522914
0.00522927
0.00522943
0.00522943
0.00522875
0.00522623
0.00521976
0.00520582
0.00517915
0.00513232
0.00506389
0.00507372
0.00730985
0.0209595
0.00521006
0.00521012
0.00521023
0.00521032
0.00521013
0.00520905
0.00520578
0.00519805
0.00518221
0.00515285
0.00510232
0.00502881
0.00503565
0.00761105
0.0261976
0.00517874
0.00517879
0.00517885
0.00517878
0.00517822
0.00517633
0.00517157
0.00516127
0.00514125
0.0051051
0.00504344
0.00495197
0.00495972
0.00842331
0.0432916
0.00514765
0.00514766
0.00514761
0.00514729
0.0051462
0.00514334
0.00513694
0.00512412
0.00510053
0.00505959
0.00499188
0.00489427
0.00495214
0.00971874
0.0500517
0.00511683
0.0051168
0.00511663
0.00511602
0.00511436
0.00511046
0.00510231
0.00508673
0.00505882
0.00501102
0.00493208
0.00482093
0.00498755
0.0123535
0.0623537
0.0050863
0.0050862
0.00508584
0.00508484
0.00508245
0.00507731
0.00506722
0.00504878
0.00501692
0.00496407
0.00488053
0.00477932
0.005179
0.0156994
0.0698205
0.00505605
0.00505586
0.00505529
0.00505387
0.00505073
0.00504436
0.00503234
0.005011
0.00497488
0.00491579
0.00482375
0.00472428
0.0055027
0.0208599
0.0761651
0.00502606
0.00502577
0.00502492
0.00502298
0.00501893
0.0050111
0.00499689
0.00497248
0.00493227
0.0048684
0.00477511
0.00472662
0.0061377
0.0268376
0.0791841
0.0049963
0.00499589
0.00499473
0.00499223
0.00498727
0.00497804
0.00496178
0.00493446
0.00489025
0.00482165
0.00472921
0.00474765
0.00733782
0.0333328
0.0807524
0.00496679
0.00496623
0.00496472
0.00496158
0.00495555
0.00494469
0.00492607
0.00489558
0.00484762
0.00477671
0.00469566
0.00485857
0.00904678
0.0401949
0.0812036
0.00493745
0.00493673
0.00493483
0.004931
0.00492392
0.00491153
0.00489084
0.00485767
0.00480673
0.00473469
0.00467121
0.00504584
0.0117268
0.0466841
0.0811952
0.00490833
0.00490743
0.0049051
0.00490053
0.00489227
0.00487815
0.00485506
0.00481889
0.00476519
0.00469589
0.00467434
0.00538099
0.0150881
0.0523605
0.081206
0.00487934
0.00487824
0.00487543
0.00487007
0.00486064
0.00484492
0.00481985
0.0047816
0.0047273
0.00466642
0.00470687
0.00602182
0.0194536
0.0569655
0.0812798
0.00485051
0.0048492
0.00484592
0.00483974
0.00482908
0.00481162
0.00478432
0.00474384
0.00468954
0.00464046
0.00477164
0.00697156
0.0241528
0.0605359
0.081396
0.0048218
0.00482025
0.00481642
0.00480936
0.00479745
0.00477843
0.0047495
0.00470816
0.00465685
0.0046318
0.0049079
0.00840065
0.029361
0.0633072
0.0815628
0.00479319
0.00479142
0.00478706
0.00477915
0.00476604
0.00474544
0.00471473
0.00467257
0.0046271
0.00464087
0.0051575
0.0104256
0.0344917
0.0653033
0.0816523
0.00476469
0.00476266
0.00475771
0.00474887
0.00473448
0.00471244
0.00468082
0.00464046
0.00460606
0.0046668
0.00554665
0.0130574
0.03934
0.066963
0.081698
0.00473625
0.00473397
0.00472847
0.00471879
0.00470333
0.00468016
0.00464793
0.00460939
0.00458813
0.00473037
0.00615977
0.0163097
0.0436526
0.06839
0.0817162
0.00470793
0.00470538
0.00469928
0.00468867
0.00467204
0.00464777
0.00461562
0.00458251
0.0045892
0.00484775
0.00705832
0.0199953
0.0474497
0.0696664
0.0817386
0.00467961
0.0046768
0.00467015
0.00465877
0.0046413
0.00461661
0.00458601
0.00456146
0.00460132
0.00503337
0.00833119
0.0240186
0.0506791
0.0708056
0.081774
0.00465143
0.00464837
0.00464115
0.00462895
0.0046106
0.00458568
0.00455748
0.00454402
0.00463024
0.00532904
0.0100588
0.0281513
0.0534428
0.0718053
0.0818163
0.00462323
0.00461991
0.00461218
0.00459936
0.00458066
0.00455649
0.00453263
0.00453673
0.00469086
0.00576121
0.0122697
0.0322104
0.05586
0.0726882
0.0818658
0.00459519
0.00459165
0.00458345
0.00457006
0.00455099
0.00452788
0.00451067
0.0045407
0.00479594
0.00640406
0.0149466
0.0360171
0.0580048
0.0734631
0.0819112
0.00456715
0.00456337
0.00455474
0.00454097
0.00452233
0.00450232
0.0044954
0.00455696
0.00495553
0.00729723
0.0179941
0.039559
0.0599503
0.074168
0.0819606
0.00453926
0.00453532
0.00452643
0.00451259
0.00449471
0.00447787
0.00448225
0.00458934
0.00519497
0.00852373
0.0213294
0.0427476
0.061696
0.0748086
0.0820125
0.00451144
0.00450735
0.00449823
0.00448442
0.0044679
0.0044571
0.00448298
0.00465263
0.0055428
0.0101194
0.024794
0.0456283
0.0632722
0.0753907
0.0820633
0.00448379
0.00447962
0.00447049
0.00445733
0.00444355
0.00444114
0.00449016
0.00475017
0.00604132
0.0121153
0.0282569
0.0482522
0.0646984
0.0759239
0.0821142
0.00445631
0.00445213
0.00444316
0.00443098
0.00442052
0.00442806
0.00451002
0.00489649
0.00673509
0.0144703
0.0316131
0.0506508
0.0659902
0.0764109
0.0821627
0.00442907
0.00442496
0.00441643
0.00440588
0.00440047
0.0044235
0.00454892
0.00510681
0.00767416
0.0171399
0.0348071
0.0528581
0.0671702
0.076859
0.0822095
0.00440211
0.0043982
0.00439042
0.00438221
0.00438388
0.00442686
0.00461399
0.00540792
0.00890684
0.0200323
0.0377937
0.0548843
0.0682495
0.0772713
0.0822537
0.00437556
0.00437193
0.00436532
0.00436069
0.00437166
0.0044393
0.00471052
0.00582777
0.0104644
0.0230516
0.0405877
0.0567493
0.0692416
0.0776524
0.0822955
0.00434936
0.00434637
0.00434155
0.00434118
0.00436348
0.00446413
0.00485003
0.00640613
0.0123501
0.0260948
0.0431938
0.0584627
0.0701539
0.078005
0.0823349
0.00432405
0.0043216
0.00431877
0.00432464
0.00436491
0.00451003
0.00504835
0.00718204
0.0145346
0.0290968
0.0456307
0.0600444
0.0709936
0.0783301
0.0823705
0.0042989
0.0042977
0.0042986
0.00431308
0.00437231
0.00457891
0.00532389
0.00819614
0.0169728
0.0320001
0.0479111
0.0615091
0.0717719
0.0786327
0.0824034
0.00427565
0.00427566
0.00427998
0.00430335
0.00438963
0.00467863
0.00570411
0.00948606
0.0195956
0.0347812
0.0500348
0.0628615
0.0724912
0.0789129
0.0824331
0.00425227
0.00425405
0.00426427
0.00430366
0.00442368
0.00481924
0.00621822
0.0110614
0.0223177
0.0374301
0.0520158
0.0641169
0.073157
0.0791719
0.0824589
0.00423175
0.00423615
0.00425353
0.00430863
0.00447656
0.00501586
0.00690371
0.0129179
0.0250812
0.0399501
0.0538662
0.0652839
0.0737756
0.0794124
0.0824813
0.00421188
0.00421893
0.00424452
0.00432234
0.00455283
0.0052842
0.00779317
0.0150245
0.0278197
0.0423386
0.0555942
0.0663688
0.07435
0.0796349
0.0824997
0.00419502
0.00420632
0.00424473
0.0043493
0.004661
0.00564919
0.00892382
0.0173382
0.0305047
0.044601
0.0572115
0.0673803
0.0748852
0.0798417
0.0825149
0.00418068
0.00419692
0.00424978
0.00439311
0.00481106
0.00613705
0.010309
0.0197912
0.0331097
0.0467365
0.0587234
0.0683226
0.0753827
0.0800324
0.0825257
0.00417006
0.0041927
0.00426205
0.00445661
0.00501665
0.0067808
0.0119547
0.0223339
0.035629
0.0487549
0.0601408
0.0692033
0.0758468
0.080209
0.0825328
0.00416386
0.00419518
0.00428829
0.00454682
0.00529442
0.00761154
0.0138422
0.0249044
0.038048
0.0506567
0.0614668
0.0700245
0.0762784
0.0803716
0.0825364
0.00416405
0.00420281
0.00432871
0.00467145
0.00566713
0.00866199
0.0159394
0.0274705
0.0403694
0.0524552
0.0627131
0.0707935
0.0766809
0.0805208
0.0825346
0.00417018
0.00422181
0.00438845
0.00484225
0.00616111
0.00994817
0.0181971
0.0300013
0.0425855
0.054149
0.0638799
0.0715122
0.0770555
0.0806574
0.0825286
0.00418204
0.00425277
0.00447198
0.00507211
0.00680596
0.0114797
0.0205687
0.0324805
0.0446994
0.0557474
0.0649755
0.0721841
0.0774037
0.0807812
0.0825172
0.00420786
0.00430044
0.00458831
0.005381
0.0076341
0.013244
0.0230024
0.0348908
0.0467107
0.0572542
0.0660033
0.0728117
0.0777262
0.0808923
0.0825006
0.00424703
0.00436767
0.00474542
0.00579024
0.00867219
0.0152154
0.0254647
0.0372269
0.0486257
0.0586772
0.0669694
0.073399
0.0780256
0.0809918
0.0824788
0.00430508
0.00446248
0.00495864
0.00632937
0.00994054
0.0173548
0.0279227
0.0394782
0.0504433
0.0600178
0.0678751
0.0739469
0.0783018
0.0810792
0.0824512
0.00438537
0.00459079
0.00524239
0.00702616
0.0114442
0.0196188
0.0303567
0.041646
0.0521717
0.0612839
0.0687265
0.074459
0.0785568
0.0811553
0.082418
0.00449684
0.00476567
0.00562138
0.00791485
0.0131766
0.0219674
0.0327477
0.0437243
0.0538092
0.0624758
0.0695244
0.0749359
0.0787907
0.0812201
0.0823788
0.00464688
0.00499923
0.00611935
0.00901808
0.0151105
0.0243624
0.0350826
0.0457157
0.0553643
0.0636011
0.0702729
0.0753798
0.0790044
0.0812732
0.082333
0.00485038
0.00531294
0.00677046
0.0103569
0.0172153
0.0267775
0.0373548
0.0476211
0.0568381
0.0646612
0.0709751
0.0757929
0.0791989
0.0813152
0.0822808
0.00512228
0.005729
0.00760497
0.0119316
0.0194493
0.0291852
0.0395539
0.0494381
0.0582318
0.0656579
0.0716313
0.076175
0.0793741
0.0813457
0.0822214
0.00548847
0.0062811
0.00865753
0.013734
0.0217784
0.031569
0.0416783
0.0511717
0.0595519
0.0665966
0.0722448
0.0765279
0.0795305
0.0813646
0.0821549
0.00597702
0.00700324
0.00994976
0.0157362
0.024165
0.0339106
0.0437223
0.0528213
0.0607992
0.0674782
0.0728166
0.0768523
0.0796683
0.0813718
0.0820806
0.00663113
0.00793911
0.011497
0.0179081
0.0265828
0.0362018
0.0456876
0.0543917
0.0619784
0.0683062
0.073349
0.077149
0.0797876
0.0813669
0.081998
0.00749594
0.00912479
0.0132937
0.0202109
0.0290043
0.0384306
0.0475697
0.0558814
0.0630895
0.0690814
0.0738429
0.0774194
0.0798898
0.0813514
0.0819077
0.00862947
0.0105968
0.0153258
0.0226111
0.0314113
0.0405925
0.0493715
0.057296
0.0641374
0.0698064
0.0742994
0.0776628
0.0799726
0.0813211
0.0818073
0.0100808
0.0123707
0.0175618
0.0250731
0.0337856
0.0426814
0.0510915
0.058635
0.0651222
0.0704827
0.0747197
0.0778801
0.0800372
0.0812783
0.0816973
0.0118922
0.014451
0.0199713
0.0275718
0.0361162
0.044694
0.0527296
0.0598995
0.0660452
0.0711108
0.0751036
0.078071
0.0800829
0.0812221
0.081577
0.0140731
0.0168162
0.0225144
0.0300782
0.0383882
0.0466245
0.0542849
0.0610911
0.0669083
0.0716916
0.0754521
0.0782361
0.0801102
0.0811524
0.0814461
0.016604
0.0194328
0.025159
0.032576
0.0405975
0.0484746
0.0557611
0.0622128
0.0677135
0.0722264
0.075765
0.0783739
0.0801163
0.081067
0.081303
0.0194283
0.0222474
0.0278671
0.0350437
0.0427322
0.0502375
0.0571537
0.063262
0.0684592
0.0727145
0.0760425
0.0784861
0.0801051
0.0809675
0.0811481
0.0224699
0.0252016
0.0306076
0.0374695
0.044791
0.0519167
0.0584682
0.0642435
0.0691491
0.0731586
0.0762864
0.0785729
0.0800742
0.0808531
0.0809812
0.0256409
0.0282298
0.0333449
0.0398368
0.0467653
0.0535062
0.059699
0.065153
0.0697804
0.0735557
0.0764929
0.0786298
0.0800187
0.0807201
0.0807993
0.0288573
0.0312706
0.0360477
0.0421339
0.0486524
0.0550068
0.0608487
0.0659932
0.0703548
0.0739082
0.0766653
0.0786614
0.0799438
0.0805709
0.0806035
0.0320456
0.0342676
0.0386831
0.0443445
0.0504442
0.0564144
0.0619146
0.0667616
0.0708693
0.0742111
0.0767968
0.0786581
0.0798427
0.0804013
0.0803913
0.0351436
0.0371722
0.041223
0.046457
0.0521389
0.0577306
0.0628983
0.0674585
0.0713246
0.0744671
0.076893
0.0786312
0.0797205
0.0802132
0.0801633
0.0381073
0.0399487
0.0436449
0.0484596
0.05373
0.0589509
0.0637972
0.0680845
0.0717216
0.0746759
0.0769507
0.0785707
0.0795728
0.0800048
0.0799182
0.0409036
0.0425685
0.0459275
0.050339
0.0552109
0.060073
0.0646098
0.0686353
0.072054
0.0748292
0.0769598
0.0784717
0.0793948
0.0797722
0.0796529
0.0435095
0.0450113
0.0480564
0.0520879
0.0565792
0.061096
0.0653347
0.0691104
0.0723234
0.0749327
0.0769335
0.078341
0.0791887
0.0795153
0.0793664
0.0459148
0.0472683
0.050025
0.0537019
0.0578333
0.0620212
0.0659764
0.0695148
0.0725337
0.0749867
0.0768643
0.0781762
0.0789542
0.079234
0.0790584
0.0481132
0.0493318
0.0518244
0.0551725
0.0589658
0.062842
0.0665269
0.0698388
0.0726723
0.0749762
0.0767394
0.0779671
0.0786841
0.0789234
0.0787256
0.050102
0.0511999
0.0534542
0.0565021
0.059982
0.0635653
0.0669952
0.0700943
0.0727553
0.0749231
0.0765753
0.0777214
0.0783812
0.0785838
0.078367
0.0518905
0.0528798
0.0549185
0.0576909
0.0608791
0.0641864
0.0673729
0.0702672
0.0727609
0.074803
0.0763583
0.0774322
0.0780415
0.0782126
0.0779806
0.0534781
0.0543704
0.056215
0.0587376
0.0616586
0.0647108
0.0676712
0.0703761
0.0727182
0.0746321
0.0760942
0.0771008
0.0776646
0.0778084
0.0775648
0.0548797
0.0556854
0.0573557
0.0596509
0.0623252
0.0651387
0.0678853
0.0704088
0.0726079
0.0744071
0.0757826
0.0767272
0.07725
0.0773705
0.0771185
0.0560994
0.0568276
0.0583412
0.060431
0.0628801
0.065473
0.068021
0.070376
0.0724324
0.0741253
0.0754213
0.0763098
0.0767964
0.0768976
0.0766404
0.0571528
0.0578118
0.0591849
0.0610886
0.0633324
0.0657221
0.0680846
0.0702821
0.0722051
0.073795
0.075015
0.0758509
0.0763046
0.0763896
0.07613
0.0580443
0.0586412
0.0598876
0.0616226
0.0636772
0.0658778
0.0680657
0.0701121
0.0719156
0.0734115
0.0745617
0.0753496
0.0757743
0.0758462
0.0755867
0.0587914
0.0593329
0.0604664
0.0620502
0.0639344
0.0659636
0.0679919
0.0698923
0.0715777
0.0729823
0.0740658
0.0748085
0.0752067
0.0752678
0.0750106
0.0593956
0.0598877
0.060919
0.0623637
0.0640891
0.0659554
0.0678364
0.0696087
0.0711866
0.0725065
0.0735276
0.0742285
0.0746028
0.0746552
0.0744019
0.0598754
0.0603235
0.0612638
0.062585
0.0641697
0.0658925
0.0676274
0.0692749
0.0707495
0.0719884
0.0729503
0.0736118
0.073964
0.0740094
0.0737615
0.0602357
0.0606433
0.0615
0.0627066
0.0641582
0.0657484
0.0673563
0.0688893
0.0702674
0.0714301
0.0723359
0.0729602
0.0732921
0.0733318
0.0730902
0.0604872
0.0608588
0.0616408
0.0627453
0.0640853
0.0655444
0.0670319
0.0684572
0.0697442
0.0708346
0.0716871
0.0722761
0.072589
0.0726238
0.0723893
0.0606391
0.0609778
0.0616917
0.0627062
0.0639322
0.0652784
0.0666558
0.0679808
0.0691824
0.0702044
0.0710063
0.0715617
0.0718567
0.0718874
0.0716604
0.0606931
0.0610032
0.0616619
0.0625938
0.0637172
0.0649579
0.0662326
0.067464
0.0685851
0.0695424
0.0702961
0.0708195
0.0710974
0.0711244
0.070905
0.0606747
0.0609619
0.061563
0.0624096
0.0634422
0.0645862
0.0657658
0.0669097
0.0679552
0.0688513
0.069559
0.0700517
0.0703133
0.0703368
0.0701251
0.0605888
0.0608454
0.0613876
0.0621636
0.0631127
0.0641676
0.065259
0.0663212
0.0672956
0.0681336
0.0687976
0.0692609
0.0695066
0.0695268
0.0693226
0.0604103
0.060646
0.0611454
0.0618587
0.0627322
0.0637054
0.0647153
0.0657014
0.066609
0.0673921
0.0680143
0.0684492
0.0686797
0.0686964
0.0684995
0.0601692
0.0603861
0.0608451
0.0615009
0.0623052
0.0632032
0.0641378
0.0650529
0.0658978
0.066629
0.0672114
0.0676191
0.0678346
0.0678479
0.0676578
0.0598713
0.0600705
0.0604922
0.0610952
0.061836
0.0626648
0.0635295
0.0643786
0.0651647
0.0658467
0.0663912
0.0667727
0.0669737
0.0669834
0.0667996
0.0595211
0.0597041
0.0600916
0.0606462
0.0613285
0.0620935
0.0628935
0.0636809
0.0644118
0.0650475
0.0655558
0.0659122
0.0660989
0.066105
0.0659269
0.0591234
0.0592915
0.0596476
0.0601578
0.0607865
0.0614926
0.0622325
0.0629625
0.0636416
0.0642334
0.0647074
0.0650396
0.0652125
0.0652146
0.0650419
0.0586825
0.0588371
0.0591645
0.059634
0.0602133
0.060865
0.0615493
0.0622257
0.0628562
0.0634067
0.063848
0.0641569
0.0643163
0.0643144
0.0641464
0.0582029
0.058345
0.0586462
0.0590783
0.0596121
0.0602136
0.0608462
0.0614728
0.0620578
0.0625692
0.0629794
0.0632661
0.0634123
0.0634063
0.0632425
0.0576883
0.0578192
0.0580962
0.0584941
0.0589861
0.0595412
0.0601259
0.0607059
0.0612482
0.0617228
0.0621035
0.0623689
0.0625023
0.0624921
0.0623322
0.0571427
0.0572631
0.0575181
0.0578845
0.0583379
0.0588501
0.0593904
0.059927
0.0604294
0.0608694
0.0612221
0.0614671
0.0615882
0.0615737
0.0614172
0.0565694
0.0566803
0.056915
0.0572524
0.0576703
0.0581429
0.0586419
0.0591382
0.0596032
0.0600106
0.0603369
0.0605624
0.0606716
0.0606529
0.0604994
0.0559716
0.0560737
0.0562899
0.0566006
0.0569858
0.0574218
0.0578826
0.0583413
0.0587714
0.0591481
0.0594494
0.0596564
0.0597541
0.0597313
0.0595806
0.0553524
0.0554465
0.0556455
0.0559318
0.0562868
0.0566889
0.0571143
0.057538
0.0579354
0.0582834
0.0585611
0.0587507
0.0588374
0.0588105
0.0586623
0.0547145
0.0548012
0.0549846
0.0552483
0.0555755
0.0559464
0.0563389
0.05673
0.057097
0.0574181
0.0576736
0.0578466
0.057923
0.0578921
0.0577463
0.0540606
0.0541405
0.0543095
0.0545525
0.054854
0.055196
0.055558
0.055919
0.0562576
0.0565535
0.0567882
0.0569456
0.0570122
0.0569775
0.0568341
0.0533932
0.0534669
0.0536226
0.0538464
0.0541244
0.0544396
0.0547736
0.0551065
0.0554186
0.0556911
0.0559063
0.0560491
0.0561064
0.0560684
0.0559272
0.0527145
0.0527825
0.052926
0.0531323
0.0533884
0.053679
0.0539869
0.0542939
0.0545815
0.0548321
0.0550292
0.0551583
0.055207
0.0551658
0.055027
0.0520268
0.0520895
0.0522218
0.0524119
0.052648
0.0529159
0.0531998
0.0534826
0.0537475
0.0539778
0.054158
0.0542744
0.0543153
0.0542713
0.0541349
0.051332
0.0513899
0.0515119
0.0516872
0.0519048
0.0521518
0.0524134
0.0526741
0.0529179
0.0531294
0.053294
0.0533988
0.0534324
0.0533861
0.0532523
0.0506322
0.0506857
0.0507982
0.0509598
0.0511605
0.0513882
0.0516294
0.0518696
0.052094
0.0522881
0.0524383
0.0525324