/*--------------------------------*- C++ -*----------------------------------*\
  =========                 |
  \\      /  F ield         | OpenFOAM: The Open Source CFD Toolbox
   \\    /   O peration     | Website:  https://openfoam.org
    \\  /    A nd           | Version:  7
     \\/     M anipulation  |
\*---------------------------------------------------------------------------*/
FoamFile
{
    version     2.0;
    format      ascii;
    class       volScalarField;
    location    "300";
    object      nut;
}
// * * * * * * * * * * * * * * * * * * * * * * * * * * * * * * * * * * * * * //

dimensions      [0 2 -1 0 0 0 0];

internalField   nonuniform List<scalar> 
32100
(
0.000263484
0.000263484
0.000263484
0.000263484
0.000263484
0.000263484
0.000263484
0.000263484
0.000263484
0.000263484
0.000263488
0.00026351
0.000261889
0.000217326
1.42099e-05
0.000263455
0.000263455
0.000263455
0.000263455
0.000263455
0.000263455
0.000263455
0.000263455
0.000263455
0.000263455
0.000263453
0.000263242
0.000258687
0.000171501
1.452e-05
0.000263425
0.000263425
0.000263425
0.000263425
0.000263425
0.000263425
0.000263425
0.000263426
0.000263426
0.000263427
0.000263421
0.000263
0.000251909
0.000145409
1.48277e-05
0.000263396
0.000263396
0.000263396
0.000263396
0.000263396
0.000263396
0.000263396
0.000263396
0.000263397
0.000263401
0.000263381
0.000262444
0.000244334
0.000128195
1.51335e-05
0.000263367
0.000263367
0.000263367
0.000263367
0.000263367
0.000263367
0.000263367
0.000263367
0.000263369
0.000263375
0.00026331
0.000261434
0.000236213
0.000115211
1.54361e-05
0.000263338
0.000263338
0.000263338
0.000263338
0.000263338
0.000263338
0.000263338
0.000263339
0.000263341
0.000263349
0.000263191
0.000259994
0.00022804
0.000105478
1.57371e-05
0.000263309
0.000263309
0.000263309
0.000263309
0.000263309
0.000263309
0.000263309
0.00026331
0.000263314
0.000263318
0.000262998
0.000258221
0.00021986
9.69963e-05
1.60353e-05
0.00026328
0.00026328
0.00026328
0.00026328
0.00026328
0.00026328
0.00026328
0.000263282
0.000263287
0.000263279
0.000262734
0.000256127
0.000211845
8.9638e-05
1.63308e-05
0.000263251
0.000263251
0.000263251
0.000263251
0.000263251
0.000263251
0.000263252
0.000263254
0.000263261
0.000263228
0.000262356
0.000253712
0.00020397
8.32542e-05
1.66236e-05
0.000263222
0.000263222
0.000263222
0.000263222
0.000263222
0.000263223
0.000263223
0.000263226
0.000263233
0.000263158
0.000261871
0.000251034
0.000196407
7.76901e-05
1.69137e-05
0.000263194
0.000263194
0.000263194
0.000263194
0.000263194
0.000263194
0.000263195
0.000263199
0.000263203
0.000263069
0.0002613
0.000248139
0.000189193
7.28125e-05
1.72009e-05
0.000263165
0.000263165
0.000263165
0.000263165
0.000263165
0.000263166
0.000263167
0.000263172
0.000263171
0.000262955
0.000260624
0.000245062
0.000182272
6.85065e-05
1.74852e-05
0.000263137
0.000263137
0.000263137
0.000263137
0.000263137
0.000263138
0.000263139
0.000263144
0.000263134
0.000262812
0.000259816
0.000241839
0.000175691
6.46823e-05
1.77665e-05
0.000263108
0.000263108
0.000263108
0.000263108
0.000263109
0.000263109
0.000263112
0.000263117
0.000263092
0.000262636
0.000258899
0.000238501
0.000169447
6.12646e-05
1.80445e-05
0.00026308
0.00026308
0.00026308
0.00026308
0.000263081
0.000263082
0.000263084
0.000263089
0.000263044
0.000262424
0.000257875
0.00023508
0.000163533
5.81941e-05
1.83194e-05
0.000263052
0.000263052
0.000263052
0.000263052
0.000263053
0.000263054
0.000263057
0.00026306
0.000262987
0.000262173
0.000256747
0.0002316
0.000157934
5.54207e-05
1.85907e-05
0.000263024
0.000263024
0.000263024
0.000263025
0.000263025
0.000263026
0.00026303
0.000263029
0.000262921
0.000261882
0.000255523
0.000228083
0.000152638
5.29047e-05
1.88586e-05
0.000262996
0.000262997
0.000262997
0.000262997
0.000262998
0.000262999
0.000263003
0.000262997
0.000262844
0.000261548
0.000254208
0.00022455
0.000147624
5.06123e-05
1.91227e-05
0.000262969
0.000262969
0.000262969
0.000262969
0.00026297
0.000262972
0.000262976
0.000262963
0.000262755
0.000261171
0.000252809
0.000221016
0.000142881
4.85161e-05
1.93831e-05
0.000262941
0.000262941
0.000262942
0.000262942
0.000262943
0.000262945
0.000262948
0.000262927
0.000262651
0.000260747
0.000251332
0.000217494
0.000138386
4.65927e-05
1.96395e-05
0.000262914
0.000262914
0.000262914
0.000262915
0.000262916
0.000262918
0.00026292
0.000262887
0.000262534
0.000260282
0.000249785
0.000213997
0.000134128
4.48225e-05
1.9892e-05
0.000262887
0.000262887
0.000262887
0.000262888
0.000262889
0.000262891
0.000262892
0.000262843
0.000262399
0.000259766
0.000248173
0.000210532
0.000130086
4.31893e-05
2.01402e-05
0.00026286
0.00026286
0.00026286
0.000262861
0.000262862
0.000262864
0.000262863
0.000262796
0.000262249
0.000259216
0.000246505
0.000207109
0.000126251
4.16781e-05
2.03842e-05
0.000262833
0.000262833
0.000262833
0.000262834
0.000262835
0.000262838
0.000262834
0.000262743
0.00026208
0.000258603
0.000244785
0.000203732
0.000122605
4.02779e-05
2.06238e-05
0.000262806
0.000262806
0.000262806
0.000262807
0.000262808
0.000262811
0.000262803
0.000262685
0.000261891
0.000257959
0.000243019
0.000200408
0.000119138
3.89766e-05
2.0859e-05
0.000262779
0.000262779
0.00026278
0.00026278
0.000262782
0.000262784
0.000262771
0.000262621
0.000261684
0.000257282
0.000241216
0.000197138
0.000115836
3.77671e-05
2.10895e-05
0.000262753
0.000262753
0.000262753
0.000262754
0.000262756
0.000262757
0.000262738
0.000262551
0.000261456
0.000256555
0.000239378
0.000193927
0.000112691
3.66385e-05
2.13155e-05
0.000262726
0.000262726
0.000262726
0.000262727
0.000262729
0.00026273
0.000262703
0.000262473
0.000261208
0.000255789
0.000237512
0.000190776
0.000109689
3.55873e-05
2.15367e-05
0.0002627
0.0002627
0.0002627
0.000262701
0.000262703
0.000262702
0.000262666
0.000262388
0.000260938
0.000254985
0.000235621
0.000187687
0.000106826
3.4603e-05
2.17532e-05
0.000262673
0.000262673
0.000262674
0.000262675
0.000262677
0.000262675
0.000262626
0.000262295
0.000260647
0.000254145
0.000233711
0.00018466
0.000104088
3.3685e-05
2.19647e-05
0.000262647
0.000262647
0.000262648
0.000262649
0.000262651
0.000262646
0.000262585
0.000262193
0.000260335
0.00025327
0.000231786
0.000181697
0.000101472
3.28226e-05
2.21714e-05
0.000262621
0.000262621
0.000262622
0.000262623
0.000262624
0.000262618
0.000262541
0.000262082
0.000260001
0.000252362
0.000229848
0.000178796
9.89659e-05
3.2018e-05
2.23731e-05
0.000262595
0.000262595
0.000262596
0.000262597
0.000262598
0.000262588
0.000262493
0.000261962
0.000259645
0.000251423
0.000227902
0.000175959
9.65687e-05
3.12595e-05
2.25699e-05
0.000262569
0.000262569
0.00026257
0.000262571
0.000262572
0.000262558
0.000262443
0.000261832
0.000259268
0.000250454
0.00022595
0.000173184
9.42685e-05
3.05523e-05
2.27615e-05
0.000262543
0.000262544
0.000262544
0.000262546
0.000262546
0.000262527
0.000262389
0.000261692
0.000258869
0.000249459
0.000223997
0.000170473
9.20652e-05
2.98832e-05
2.29482e-05
0.000262518
0.000262518
0.000262519
0.00026252
0.000262519
0.000262495
0.000262331
0.000261541
0.000258449
0.000248437
0.000222043
0.000167822
8.99482e-05
2.92603e-05
2.31297e-05
0.000262492
0.000262492
0.000262493
0.000262494
0.000262492
0.000262462
0.00026227
0.00026138
0.000258007
0.000247391
0.000220092
0.000165232
8.79179e-05
2.86686e-05
2.33063e-05
0.000262467
0.000262467
0.000262468
0.000262469
0.000262466
0.000262427
0.000262204
0.000261207
0.000257545
0.000246323
0.000218145
0.000162701
8.59647e-05
2.81193e-05
2.34777e-05
0.000262441
0.000262441
0.000262442
0.000262443
0.000262438
0.000262391
0.000262133
0.000261024
0.000257063
0.000245234
0.000216206
0.00016023
8.40892e-05
2.75951e-05
2.36441e-05
0.000262416
0.000262416
0.000262417
0.000262418
0.000262411
0.000262354
0.000262058
0.000260829
0.000256561
0.000244126
0.000214274
0.000157816
8.22832e-05
2.71104e-05
2.38053e-05
0.000262391
0.000262391
0.000262392
0.000262392
0.000262383
0.000262315
0.000261978
0.000260622
0.00025604
0.000243
0.000212353
0.000155459
8.05469e-05
2.66452e-05
2.39616e-05
0.000262365
0.000262366
0.000262367
0.000262367
0.000262355
0.000262274
0.000261892
0.000260403
0.000255499
0.000241859
0.000210444
0.000153156
7.88737e-05
2.62176e-05
2.41127e-05
0.00026234
0.000262341
0.000262341
0.000262341
0.000262326
0.000262232
0.000261801
0.000260173
0.000254941
0.000240702
0.000208547
0.000150908
7.7263e-05
2.58043e-05
2.42591e-05
0.000262315
0.000262316
0.000262316
0.000262315
0.000262296
0.000262187
0.000261705
0.000259931
0.000254364
0.000239533
0.000206665
0.000148713
7.57101e-05
2.54273e-05
2.44002e-05
0.00026229
0.000262291
0.000262291
0.000262289
0.000262266
0.00026214
0.000261603
0.000259677
0.000253771
0.000238352
0.000204797
0.00014657
7.42131e-05
2.50598e-05
2.45368e-05
0.000262266
0.000262266
0.000262266
0.000262263
0.000262235
0.000262091
0.000261494
0.000259411
0.00025316
0.00023716
0.000202946
0.000144477
7.27695e-05
2.4728e-05
2.46681e-05
0.000262241
0.000262241
0.000262241
0.000262237
0.000262204
0.000262039
0.00026138
0.000259133
0.000252534
0.000235959
0.000201111
0.000142434
7.13756e-05
2.44009e-05
2.4795e-05
0.000262216
0.000262216
0.000262217
0.000262211
0.000262171
0.000261985
0.000261259
0.000258843
0.00025189
0.00023475
0.000199294
0.000140439
7.00316e-05
2.41097e-05
2.49168e-05
0.000262192
0.000262192
0.000262192
0.000262184
0.000262138
0.000261927
0.000261132
0.000258542
0.000251236
0.000233534
0.000197495
0.000138491
6.87316e-05
2.38185e-05
2.50343e-05
0.000262167
0.000262167
0.000262167
0.000262157
0.000262103
0.000261867
0.000260999
0.000258229
0.000250561
0.000232312
0.000195715
0.000136588
6.74787e-05
2.35639e-05
2.51467e-05
0.000262142
0.000262143
0.000262142
0.00026213
0.000262068
0.000261804
0.000260858
0.000257904
0.000249877
0.000231085
0.000193954
0.000134731
6.62643e-05
2.33045e-05
2.52551e-05
0.000262118
0.000262118
0.000262117
0.000262103
0.000262031
0.000261738
0.000260711
0.000257568
0.000249182
0.000229854
0.000192213
0.000132918
6.50949e-05
2.3083e-05
2.53585e-05
0.000262094
0.000262094
0.000262091
0.000262075
0.000261993
0.000261669
0.000260557
0.000257221
0.000248471
0.000228621
0.000190492
0.000131146
6.39587e-05
2.28519e-05
2.5458e-05
0.000262069
0.000262069
0.000262066
0.000262047
0.000261954
0.000261596
0.000260396
0.000256863
0.000247749
0.000227386
0.000188791
0.000129418
6.28659e-05
2.26606e-05
2.55527e-05
0.000262045
0.000262045
0.000262041
0.000262018
0.000261913
0.00026152
0.000260228
0.000256493
0.000247016
0.00022615
0.000187111
0.000127728
6.18013e-05
2.24546e-05
2.56437e-05
0.000262021
0.00026202
0.000262016
0.000261989
0.000261871
0.00026144
0.000260053
0.000256113
0.000246273
0.000224913
0.000185452
0.000126079
6.07792e-05
2.2291e-05
2.573e-05
0.000261997
0.000261996
0.00026199
0.000261959
0.000261828
0.000261357
0.000259871
0.000255722
0.000245519
0.000223676
0.000183813
0.000124467
5.97802e-05
2.21073e-05
2.58129e-05
0.000261973
0.000261971
0.000261964
0.000261928
0.000261782
0.00026127
0.000259682
0.000255321
0.000244757
0.000222441
0.000182196
0.000122894
5.88231e-05
2.19692e-05
2.5891e-05
0.000261948
0.000261947
0.000261938
0.000261897
0.000261735
0.000261179
0.000259486
0.00025491
0.000243985
0.000221208
0.000180599
0.000121356
5.78845e-05
2.18054e-05
2.59662e-05
0.000261924
0.000261923
0.000261912
0.000261866
0.000261686
0.000261084
0.000259282
0.000254489
0.000243205
0.000219976
0.000179024
0.000119855
5.69873e-05
2.16907e-05
2.60366e-05
0.0002619
0.000261898
0.000261886
0.000261833
0.000261636
0.000260985
0.000259072
0.000254058
0.000242417
0.000218748
0.00017747
0.000118387
5.61045e-05
2.15447e-05
2.61043e-05
0.000261876
0.000261873
0.000261859
0.0002618
0.000261583
0.000260881
0.000258854
0.000253618
0.000241623
0.000217524
0.000175937
0.000116954
5.52624e-05
2.14515e-05
2.61674e-05
0.000261852
0.000261849
0.000261832
0.000261766
0.000261528
0.000260774
0.000258629
0.000253169
0.000240821
0.000216303
0.000174426
0.000115552
5.44313e-05
2.13219e-05
2.62281e-05
0.000261828
0.000261824
0.000261805
0.000261731
0.000261471
0.000260662
0.000258397
0.00025271
0.000240014
0.000215087
0.000172935
0.000114183
5.36398e-05
2.1248e-05
2.62842e-05
0.000261804
0.000261799
0.000261778
0.000261695
0.000261412
0.000260546
0.000258157
0.000252244
0.000239201
0.000213876
0.000171466
0.000112845
5.28571e-05
2.11339e-05
2.63383e-05
0.00026178
0.000261774
0.00026175
0.000261658
0.000261351
0.000260426
0.000257911
0.000251768
0.000238382
0.000212671
0.000170016
0.000111536
5.21114e-05
2.10769e-05
2.63878e-05
0.000261755
0.000261749
0.000261721
0.00026162
0.000261288
0.000260301
0.000257658
0.000251285
0.00023756
0.000211471
0.000168589
0.000110258
5.13743e-05
2.0978e-05
2.64355e-05
0.000261731
0.000261724
0.000261693
0.000261581
0.000261222
0.000260172
0.000257398
0.000250794
0.000236732
0.000210277
0.00016718
0.000109006
5.06704e-05
2.09355e-05
2.64789e-05
0.000261707
0.000261698
0.000261663
0.000261541
0.000261153
0.000260038
0.000257132
0.000250295
0.000235901
0.000209091
0.000165794
0.000107785
4.99758e-05
2.08513e-05
2.65207e-05
0.000261682
0.000261673
0.000261634
0.0002615
0.000261082
0.0002599
0.000256858
0.000249789
0.000235067
0.00020791
0.000164425
0.000106586
4.93107e-05
2.08224e-05
2.65582e-05
0.000261658
0.000261647
0.000261603
0.000261457
0.000261009
0.000259757
0.000256578
0.000249276
0.00023423
0.000206738
0.00016308
0.00010542
4.86542e-05
2.07493e-05
2.65947e-05
0.000261633
0.000261621
0.000261573
0.000261413
0.000260933
0.000259609
0.000256291
0.000248756
0.00023339
0.000205571
0.000161749
0.00010427
4.8027e-05
2.07381e-05
2.66263e-05
0.000261608
0.000261594
0.000261541
0.000261368
0.000260854
0.000259457
0.000255998
0.00024823
0.000232549
0.000204415
0.000160445
0.000103155
4.74028e-05
2.0667e-05
2.6658e-05
0.000261583
0.000261568
0.000261509
0.000261321
0.000260772
0.000259301
0.000255698
0.000247697
0.000231704
0.000203263
0.00015915
0.000102051
4.68124e-05
2.06815e-05
2.66844e-05
0.000261558
0.000261541
0.000261476
0.000261273
0.000260688
0.000259139
0.000255392
0.000247159
0.000230861
0.000202125
0.000157888
0.000100988
4.62178e-05
2.06044e-05
2.67104e-05
0.000261532
0.000261513
0.000261443
0.000261224
0.000260601
0.000258973
0.00025508
0.000246614
0.000230012
0.000200985
0.000156625
9.99203e-05
4.56563e-05
2.06427e-05
2.67342e-05
0.000261506
0.000261485
0.000261408
0.000261172
0.000260511
0.000258803
0.000254763
0.000246066
0.000229169
0.00019987
0.000155409
9.89137e-05
4.50972e-05
2.05735e-05
2.67547e-05
0.000261481
0.000261457
0.000261373
0.00026112
0.000260418
0.000258627
0.000254438
0.000245509
0.000228316
0.00019874
0.00015417
9.78675e-05
4.45459e-05
2.05855e-05
2.67598e-05
0.000261454
0.000261428
0.000261337
0.000261065
0.000260321
0.000258447
0.000254109
0.000244954
0.00022748
0.000197655
0.000153011
9.69319e-05
4.40424e-05
2.05242e-05
2.68534e-05
0.000261428
0.0002614
0.0002613
0.000261009
0.000260223
0.000258263
0.000253772
0.000244384
0.000226618
0.000196526
0.000151779
9.58798e-05
4.34291e-05
2.03644e-05
2.66236e-05
0.000261347
0.00026131
0.000261186
0.000260834
0.000259917
0.0002577
0.000252766
0.000242725
0.000224185
0.000193453
0.000148589
9.33973e-05
4.23299e-05
2.18747e-05
3.04588e-05
0.000261208
0.000261155
0.000260979
0.000260509
0.000259343
0.000256659
0.000250947
0.000239791
0.00021994
0.000188105
0.000142952
8.87091e-05
3.92698e-05
2.0449e-05
4.92322e-05
0.000261044
0.000260968
0.000260727
0.000260115
0.000258671
0.000255499
0.000249033
0.000236889
0.000216027
0.000183577
0.00013869
8.5593e-05
3.74693e-05
2.26202e-05
5.92904e-05
0.000260876
0.000260772
0.000260456
0.000259686
0.000257944
0.000254266
0.000247041
0.000233918
0.000212033
0.000178853
0.000133876
8.12522e-05
3.44086e-05
2.66815e-05
8.1803e-05
0.000260678
0.00026054
0.000260133
0.000259181
0.000257115
0.000252917
0.000244958
0.000230966
0.000208305
0.000174799
0.00013019
7.83059e-05
3.31026e-05
3.31373e-05
9.93685e-05
0.00026047
0.000260294
0.000259788
0.000258642
0.000256242
0.000251524
0.000242853
0.000228024
0.000204572
0.000170532
0.000125691
7.3388e-05
3.05948e-05
4.4693e-05
0.000119234
0.000260227
0.000260005
0.000259384
0.000258024
0.000255268
0.000250021
0.00024066
0.000225078
0.000201017
0.000166762
0.000122048
6.99924e-05
2.99894e-05
5.85148e-05
0.000133382
0.000259968
0.000259697
0.000258954
0.000257372
0.00025426
0.0002485
0.000238489
0.000222206
0.000197522
0.000162734
0.000117248
6.40614e-05
3.18068e-05
7.49971e-05
0.000148283
0.000259666
0.00025934
0.000258462
0.00025664
0.000253154
0.000246875
0.000236228
0.000219286
0.000194056
0.000158933
0.000113108
6.01144e-05
3.57705e-05
9.37289e-05
0.000162126
0.000259345
0.00025896
0.000257941
0.000255877
0.000252025
0.000245252
0.000234018
0.000216472
0.000190676
0.000154911
0.00010748
5.42055e-05
4.36526e-05
0.00011282
0.000175901
0.000258973
0.000258524
0.000257354
0.000255034
0.000250804
0.000243533
0.000231716
0.000213571
0.000187197
0.000150594
0.000102016
5.03405e-05
5.40512e-05
0.000131412
0.000190289
0.000258578
0.000258064
0.000256739
0.000254164
0.000249569
0.000241832
0.000229481
0.000210779
0.000183801
0.000146218
9.56744e-05
4.84413e-05
6.86244e-05
0.000148859
0.000204893
0.000258127
0.000257542
0.000256055
0.000253218
0.000248251
0.00024004
0.000227147
0.000207861
0.00018011
0.000140891
8.82161e-05
4.87657e-05
8.44141e-05
0.000165559
0.00021957
0.000257652
0.000256996
0.000255346
0.000252248
0.000246925
0.000238275
0.000224886
0.000205001
0.000176294
0.000135418
8.12917e-05
5.22218e-05
0.000103385
0.000181791
0.000234435
0.000257114
0.000256384
0.000254567
0.000251208
0.000245526
0.000236427
0.000222493
0.000201875
0.000172175
0.000129237
7.50956e-05
5.92344e-05
0.000122432
0.000196162
0.000248693
0.000256556
0.000255752
0.000253768
0.000250149
0.000244119
0.000234592
0.000220134
0.000198787
0.000167652
0.000121941
7.01825e-05
6.94148e-05
0.000141503
0.000211721
0.000262969
0.000255928
0.000255048
0.000252896
0.000249021
0.000242646
0.000232683
0.000217666
0.000195532
0.000162534
0.000114417
6.74801e-05
8.29742e-05
0.000159844
0.000227362
0.000277269
0.000255285
0.000254331
0.000252013
0.000247883
0.000241165
0.000230769
0.000215174
0.000191918
0.000157083
0.000106659
6.74678e-05
9.85992e-05
0.000177863
0.000243162
0.000291702
0.000254567
0.000253536
0.000251052
0.000246671
0.00023962
0.000228781
0.000212463
0.000188203
0.000150968
9.92358e-05
7.06371e-05
0.000116527
0.000195019
0.000258878
0.000306229
0.00025384
0.000252737
0.000250092
0.000245463
0.000238065
0.000226724
0.000209603
0.000183708
0.000143664
9.28309e-05
7.73871e-05
0.000135358
0.000211964
0.000274467
0.000320804
0.000253035
0.000251856
0.000249045
0.000244166
0.000236422
0.000224593
0.000206746
0.000179112
0.000136298
8.7937e-05
8.73984e-05
0.00015446
0.000228829
0.000289964
0.000335415
0.000252227
0.000250978
0.000248013
0.00024289
0.000234786
0.000222407
0.000203448
0.000173833
0.000128564
8.55633e-05
0.000100551
0.000173268
0.000245849
0.000305403
0.000350011
0.000251341
0.000250016
0.000246883
0.000241504
0.000233036
0.000220023
0.000200043
0.000167974
0.000120968
8.59102e-05
0.000115925
0.000192129
0.000262974
0.000320974
0.000364694
0.000250452
0.000249063
0.000245785
0.000240165
0.000231274
0.000217452
0.000195819
0.000161154
0.000113815
8.96747e-05
0.000133517
0.000210307
0.00027965
0.000336458
0.000379404
0.000249495
0.00024803
0.000244577
0.000238662
0.000229307
0.000214791
0.000191769
0.00015432
0.000108015
9.68005e-05
0.000152067
0.000228382
0.000296496
0.000351965
0.000394142
0.000248531
0.000246999
0.000243397
0.000237236
0.000227471
0.000212006
0.00018677
0.000146913
0.000104056
0.000107258
0.000171097
0.000246484
0.000313251
0.00036749
0.000408923
0.000247506
0.000245899
0.000242122
0.000235644
0.000225223
0.000208682
0.000181283
0.000139586
0.000102707
0.000120461
0.000190256
0.000264571
0.000329919
0.000383002
0.000423725
0.000246472
0.000244799
0.000240859
0.000234047
0.000222971
0.000205114
0.000175186
0.000132407
0.000104249
0.000136093
0.000209429
0.000282697
0.000346587
0.000398537
0.000438561
0.000245387
0.000243633
0.000239483
0.000232284
0.0002206
0.000201257
0.000168907
0.00012636
0.000109185
0.000153546
0.000228393
0.000300694
0.000363201
0.00041407
0.000453421
0.000244286
0.000242452
0.000238132
0.000230626
0.000218035
0.000196689
0.000162036
0.000121699
0.000117362
0.0001721
0.000247463
0.000318678
0.000379827
0.000429636
0.000468321
0.000243134
0.000241235
0.000236689
0.000228522
0.000215028
0.000191694
0.000155192
0.000119391
0.000128694
0.00019123
0.000266499
0.000336473
0.000396379
0.000445204
0.000483251
0.000242002
0.000239975
0.000235122
0.00022653
0.000211903
0.000186311
0.000148437
0.000119639
0.000142565
0.000210756
0.000285637
0.00035443
0.00041295
0.000460782
0.000498202
0.000240738
0.000238647
0.000233618
0.000224422
0.000208277
0.000180599
0.00014255
0.000123074
0.000158835
0.000230377
0.000304814
0.000372249
0.000429551
0.000476412
0.000513199
0.000239608
0.000237378
0.000231893
0.000221893
0.000204068
0.000174368
0.000137875
0.000129747
0.000176671
0.000250145
0.00032381
0.000389787
0.000446034
0.000492023
0.000528217
0.000238232
0.000235855
0.000230032
0.000219468
0.000199768
0.000168142
0.000135211
0.000139591
0.000195511
0.000270017
0.000342782
0.00040751
0.000462542
0.000507645
0.000543252
0.000237049
0.00023456
0.000228376
0.000216462
0.000194966
0.000162038
0.00013495
0.00015225
0.000215143
0.000290032
0.000361736
0.000425184
0.000479059
0.00052329
0.000558316
0.00023563
0.000232914
0.000226207
0.000213113
0.000189794
0.000156638
0.00013763
0.000167473
0.000235112
0.000310081
0.000380642
0.00044281
0.000495568
0.000538949
0.000573402
0.000234337
0.000231379
0.000224216
0.000209516
0.000184294
0.000152371
0.000143493
0.000184685
0.000255462
0.000330173
0.000399525
0.000460418
0.000512085
0.000554635
0.000588521
0.000232793
0.000229757
0.000221756
0.000205664
0.000178786
0.000149932
0.000152512
0.000203254
0.000276046
0.000350224
0.000418343
0.000477983
0.000528589
0.000570328
0.000603656
0.00023141
0.000228139
0.000218964
0.000201414
0.000173479
0.000149784
0.000164492
0.000222941
0.00029691
0.000370305
0.000437145
0.000495547
0.00054511
0.000586047
0.000618819
0.000230014
0.000226306
0.000216105
0.000196867
0.000168846
0.000152462
0.000179201
0.000243248
0.000317854
0.000390302
0.000455886
0.000513053
0.000561607
0.000601775
0.000634011
0.000228675
0.000224187
0.000213019
0.000192173
0.000165388
0.000158267
0.000196111
0.000264161
0.000338968
0.000410397
0.000474725
0.000530628
0.000578146
0.000617528
0.000649199
0.000226997
0.000221991
0.000209612
0.000187518
0.000163717
0.00016722
0.000214697
0.000285497
0.000360093
0.000430341
0.000493261
0.000548096
0.000594664
0.000633295
0.0006644
0.000225055
0.00021971
0.000206023
0.000183237
0.000164346
0.000179244
0.000234618
0.000307207
0.000381264
0.000450272
0.000511895
0.00056556
0.000611176
0.000649066
0.000679604
0.000223248
0.000217238
0.000202264
0.000179746
0.000167821
0.000194109
0.000255434
0.000329121
0.000402418
0.000470163
0.000530521
0.000583015
0.000627683
0.000664839
0.00069482
0.000221434
0.000214673
0.000198561
0.000177616
0.000174424
0.000211299
0.00027707
0.000351265
0.000423628
0.000490066
0.000549134
0.00060048
0.000644205
0.00068063
0.000710056
0.000219547
0.000212002
0.000195137
0.000177413
0.000184245
0.000230382
0.000299277
0.000373483
0.000444767
0.000509876
0.000567672
0.000617903
0.000660712
0.00069642
0.000725297
0.000217699
0.000209378
0.00019238
0.0001797
0.000197228
0.000250943
0.00032199
0.000395865
0.000465981
0.000529738
0.000586242
0.000635351
0.000677238
0.000712228
0.000740555
0.000215911
0.000206935
0.000190801
0.000185013
0.000213111
0.000272703
0.000345047
0.000418245
0.000487052
0.000549417
0.000604693
0.000652738
0.000693743
0.000728033
0.000755818
0.000214389
0.000204985
0.000190964
0.000193564
0.000231399
0.000295384
0.00036837
0.000440714
0.000508249
0.000569353
0.000623241
0.000670155
0.000710255
0.000743841
0.000771083
0.000213306
0.000203898
0.000193524
0.000205545
0.000251754
0.000318868
0.000391955
0.000463238
0.000529357
0.000588964
0.000641704
0.00068756
0.000726775
0.00075966
0.000786357
0.000213033
0.000204221
0.000199038
0.00022076
0.000273733
0.000342912
0.000415653
0.000485698
0.00055034
0.000608511
0.000660073
0.000704908
0.000743268
0.000775468
0.000801626
0.000214024
0.000206598
0.000207987
0.000238942
0.000297117
0.000367465
0.000439506
0.000508197
0.000571368
0.000628188
0.000678471
0.000722253
0.000759754
0.000791271
0.000816892
0.000216884
0.00021172
0.000220586
0.000259644
0.000321561
0.000392346
0.000463398
0.000530644
0.000592326
0.000647772
0.000696828
0.000739573
0.000776223
0.000807062
0.000832149
0.0002224
0.000220321
0.00023688
0.000282559
0.000346932
0.000417572
0.00048742
0.00055315
0.000613313
0.000667358
0.000715181
0.000756885
0.000792682
0.000822846
0.000847399
0.000231338
0.000232885
0.000256616
0.000307278
0.000373
0.000442992
0.000511417
0.00057553
0.000634141
0.000686829
0.00073347
0.000774169
0.00080914
0.000838645
0.000862652
0.000244551
0.000249854
0.000279554
0.000333554
0.000399684
0.00046863
0.000535507
0.000598022
0.000655174
0.000706365
0.000751761
0.000791431
0.000825557
0.000854361
0.000877877
0.000262571
0.000271228
0.000305252
0.000361077
0.000426845
0.000494422
0.000559614
0.000620423
0.000675928
0.000725809
0.000770016
0.000808669
0.000841955
0.000870059
0.000893079
0.000285704
0.000296903
0.000333467
0.000389748
0.000454469
0.000520357
0.000583701
0.00064271
0.000696566
0.000745135
0.000788188
0.000825853
0.000858312
0.000885723
0.000908248
0.000313658
0.000326396
0.000363771
0.000419308
0.000482388
0.000546333
0.000607742
0.000664979
0.000717301
0.000764444
0.000806316
0.000842993
0.000874633
0.000901355
0.000923379
0.000345876
0.000359221
0.000395967
0.000449764
0.000510703
0.000572481
0.000631863
0.000687276
0.000737998
0.000783732
0.000824403
0.000860072
0.000890876
0.00091692
0.000938449
0.000381404
0.000394629
0.000429662
0.0004809
0.000539231
0.000598605
0.000655853
0.000709419
0.000758536
0.0008029
0.000842408
0.000877104
0.000907114
0.000932455
0.000953473
0.000419292
0.000431947
0.000464615
0.000512736
0.000568123
0.00062495
0.000680039
0.000731779
0.000779169
0.000822094
0.000860408
0.000894117
0.000923314
0.000947956
0.000968451
0.000458591
0.000470434
0.000500418
0.000545062
0.000597206
0.00065127
0.000704008
0.000753684
0.000799568
0.00084114
0.000878284
0.000911003
0.000939369
0.000963345
0.000983335
0.000498523
0.000509483
0.000536758
0.000577812
0.000626548
0.000677708
0.000728021
0.000775686
0.000819928
0.00086013
0.000896121
0.000927872
0.000955403
0.000978686
0.000998151
0.000538505
0.000548575
0.000573237
0.000610699
0.000655912
0.000704053
0.00075191
0.000797622
0.000840163
0.000878961
0.000913768
0.00094451
0.00097127
0.000993895
0.00101286
0.000578004
0.000587236
0.000609514
0.000643604
0.000685427
0.000730656
0.000776154
0.000819647
0.000860398
0.000897754
0.000931398
0.000961214
0.000987112
0.00100904
0.00102748
0.000616786
0.000625263
0.000645425
0.000676395
0.00071489
0.000757053
0.000799824
0.000841441
0.000880533
0.000916483
0.000948947
0.000977761
0.00100285
0.0010241
0.001042
0.000654586
0.000662359
0.000680601
0.000708665
0.000743952
0.000783139
0.000823441
0.000863021
0.000900423
0.00093494
0.00096618
0.000994056
0.00101837
0.00103899
0.00105638
0.000691219
0.000698363
0.000714947
0.000740483
0.000772942
0.000809496
0.0008472
0.000884565
0.000920212
0.000953326
0.000983455
0.00101029
0.00103377
0.00105374
0.0010706
0.000726686
0.000733284
0.000748434
0.000771708
0.00080146
0.00083522
0.000870696
0.000906028
0.00093996
0.000971657
0.00100061
0.00102644
0.00104906
0.00106837
0.00108469
0.000760924
0.00076699
0.000780795
0.000801952
0.000829149
0.000860335
0.000893664
0.000927059
0.0009593
0.000989547
0.00101734
0.00104226
0.00106411
0.00108279
0.00109858
0.000793725
0.000799343
0.000812039
0.000831477
0.000856618
0.000885484
0.000916525
0.000947995
0.000978624
0.00100754
0.00103407
0.00105798
0.001079
0.00109702
0.00111228
0.000825531
0.000830742
0.000842436
0.000860254
0.000883295
0.000910048
0.000938941
0.000968453
0.000997362
0.001025
0.00105044
0.00107342
0.00109365
0.00111103
0.00112576
0.000855737
0.000860541
0.000871265
0.000887576
0.000908755
0.000933799
0.000960898
0.000988731
0.00101619
0.00104231
0.0010666
0.00108862
0.00110806
0.0011248
0.001139
0.000885017
0.000889516
0.000899524
0.000914731
0.000934111
0.000957143
0.000982365
0.00100847
0.00103452
0.00105933
0.00108249
0.00110357
0.00112222
0.00113832
0.00115199
0.00091287
0.000917038
0.000926269
0.00094024
0.000958388
0.000979795
0.00100335
0.00102789
0.00105236
0.00107594
0.00109803
0.0011182
0.00113609
0.00115156
0.0011647
0.000939787
0.000943709
0.000952382
0.000964928
0.000981851
0.00100182
0.00102385
0.00104696
0.00106997
0.00109228
0.00111329
0.00113255
0.00114967
0.0011645
0.00117713
0.000965479
0.000969163
0.000976879
0.000988823
0.00100443
0.00102297
0.00104351
0.00106517
0.00108696
0.00110815
0.00112815
0.00114654
0.00116292
0.00117713
0.00118924
0.000990423
0.000993447
0.00100056
0.00101182
0.00102641
0.00104374
0.001063
0.00108317
0.00110364
0.00112367
0.00114266
0.00116018
0.00117584
0.00118943
0.00120102
0.00101304
0.00101613
0.00102321
0.00103367
0.00104721
0.00106328
0.00108138
0.00110042
0.00111975
0.00113872
0.00115676
0.00117345
0.00118839
0.00120138
0.00121246
0.00103528
0.00103844
0.00104506
0.00105486
0.00106756
0.00108267
0.00109939
0.00111721
0.00113541
0.00115334
0.00117045
0.00118633
0.00120057
0.00121296
0.00122355
0.00105696
0.00105978
0.00106588
0.00107496
0.00108672
0.00110093
0.00111665
0.0011334
0.00115054
0.00116749
0.00118371
0.0011988
0.00121236
0.00122417
0.00123426
0.00107754
0.00108015
0.00108584
0.00109432
0.00110556
0.00111861
0.0011333
0.00114902
0.00116516
0.00118116
0.00119653
0.00121085
0.00122375
0.00123499
0.00124459
0.00109717
0.00109959
0.00110488
0.00111292
0.00112326
0.0011355
0.00114928
0.00116404
0.00117924
0.00119435
0.00120889
0.00122247
0.00123473
0.00124541
0.00125452
0.00111567
0.00111796
0.00112312