/*--------------------------------*- C++ -*----------------------------------*\
  =========                 |
  \\      /  F ield         | OpenFOAM: The Open Source CFD Toolbox
   \\    /   O peration     | Website:  https://openfoam.org
    \\  /    A nd           | Version:  7
     \\/     M anipulation  |
\*---------------------------------------------------------------------------*/
FoamFile
{
    version     2.0;
    format      ascii;
    class       volScalarField;
    location    "300";
    object      p;
}
// * * * * * * * * * * * * * * * * * * * * * * * * * * * * * * * * * * * * * //

dimensions      [0 2 -2 0 0 0 0];

internalField   nonuniform List<scalar> 
32100
(
2.37895
2.37897
2.37902
2.37908
2.37915
2.37923
2.3793
2.37934
2.37931
2.37909
2.37848
2.37717
2.37133
2.34271
2.4656
2.37894
2.37896
2.379
2.37907
2.37914
2.37923
2.37931
2.37937
2.37937
2.37924
2.37876
2.37807
2.38165
2.34788
2.44455
2.37891
2.37893
2.37897
2.37904
2.37912
2.37922
2.37933
2.37943
2.37952
2.37961
2.37967
2.37881
2.38982
2.35608
2.42374
2.37885
2.37887
2.37892
2.37899
2.37909
2.37921
2.37935
2.37951
2.3797
2.37997
2.38071
2.37883
2.39262
2.36306
2.41109
2.37877
2.37879
2.37885
2.37893
2.37904
2.37918
2.37935
2.37957
2.37984
2.38015
2.38145
2.3786
2.39259
2.36744
2.40419
2.37866
2.37869
2.37875
2.37884
2.37896
2.37911
2.37931
2.37956
2.37991
2.38014
2.38184
2.37848
2.39182
2.36982
2.39956
2.37853
2.37856
2.37862
2.37872
2.37884
2.37901
2.37923
2.3795
2.3799
2.38003
2.38198
2.37841
2.39092
2.3712
2.39586
2.37837
2.37841
2.37847
2.37856
2.3787
2.37888
2.3791
2.37937
2.37982
2.37986
2.38192
2.37828
2.38992
2.37226
2.39279
2.37818
2.37822
2.37828
2.37838
2.37852
2.3787
2.37893
2.37919
2.37967
2.37962
2.38172
2.37807
2.38884
2.37316
2.39028
2.37796
2.378
2.37806
2.37816
2.3783
2.37848
2.37871
2.37896
2.37945
2.37933
2.38141
2.37782
2.38772
2.37386
2.38823
2.37771
2.37775
2.37781
2.37791
2.37805
2.37822
2.37846
2.37868
2.37918
2.379
2.38103
2.37756
2.38661
2.37436
2.38649
2.37743
2.37747
2.37753
2.37763
2.37776
2.37793
2.37816
2.37835
2.37885
2.37862
2.38058
2.37727
2.38552
2.37468
2.38498
2.37712
2.37716
2.37722
2.37731
2.37744
2.3776
2.37782
2.378
2.37848
2.37822
2.38009
2.37695
2.38446
2.37488
2.38365
2.37678
2.37682
2.37687
2.37697
2.37709
2.37724
2.37745
2.3776
2.37808
2.37779
2.37956
2.37662
2.38344
2.37496
2.38247
2.37641
2.37646
2.3765
2.37659
2.37671
2.37685
2.37705
2.37718
2.37764
2.37734
2.379
2.37626
2.38246
2.37495
2.38139
2.37602
2.37606
2.37611
2.37619
2.3763
2.37643
2.37662
2.37674
2.37717
2.37687
2.37843
2.37588
2.3815
2.37486
2.3804
2.3756
2.37564
2.37569
2.37576
2.37587
2.37599
2.37617
2.37627
2.37668
2.37638
2.37783
2.37548
2.38058
2.3747
2.37947
2.37516
2.3752
2.37524
2.37531
2.37541
2.37552
2.37569
2.37578
2.37617
2.37588
2.37723
2.37505
2.37969
2.37447
2.37859
2.3747
2.37474
2.37477
2.37484
2.37493
2.37503
2.3752
2.37527
2.37564
2.37535
2.37661
2.37461
2.37882
2.37419
2.37775
2.37421
2.37425
2.37428
2.37435
2.37443
2.37453
2.37468
2.37474
2.37509
2.37482
2.37599
2.37415
2.37797
2.37387
2.37694
2.37371
2.37375
2.37378
2.37384
2.37392
2.374
2.37415
2.3742
2.37452
2.37427
2.37536
2.37367
2.37713
2.3735
2.37616
2.37319
2.37322
2.37325
2.37331
2.37338
2.37346
2.3736
2.37364
2.37395
2.37371
2.37472
2.37317
2.37632
2.3731
2.3754
2.37265
2.37269
2.37271
2.37276
2.37283
2.3729
2.37303
2.37307
2.37336
2.37313
2.37407
2.37266
2.37551
2.37267
2.37464
2.37209
2.37213
2.37215
2.3722
2.37227
2.37233
2.37245
2.37249
2.37276
2.37254
2.37341
2.37213
2.37472
2.3722
2.3739
2.37152
2.37156
2.37158
2.37162
2.37169
2.37175
2.37186
2.37189
2.37214
2.37195
2.37275
2.37158
2.37393
2.37171
2.37317
2.37094
2.37098
2.37099
2.37104
2.37109
2.37115
2.37125
2.37129
2.37152
2.37134
2.37209
2.37103
2.37315
2.3712
2.37244
2.37034
2.37038
2.37039
2.37043
2.37049
2.37054
2.37064
2.37067
2.37089
2.37072
2.37142
2.37045
2.37238
2.37066
2.37171
2.36973
2.36977
2.36978
2.36982
2.36987
2.36992
2.37001
2.37004
2.37025
2.37009
2.37074
2.36986
2.37161
2.37011
2.37099
2.36911
2.36915
2.36916
2.3692
2.36924
2.36929
2.36938
2.36941
2.3696
2.36946
2.37005
2.36927
2.37085
2.36953
2.37027
2.36848
2.36852
2.36853
2.36856
2.36861
2.36865
2.36873
2.36876
2.36894
2.36881
2.36936
2.36865
2.37008
2.36894
2.36954
2.36784
2.36788
2.36789
2.36792
2.36796
2.368
2.36808
2.3681
2.36827
2.36816
2.36867
2.36803
2.36932
2.36833
2.36882
2.36719
2.36723
2.36723
2.36727
2.3673
2.36734
2.36742
2.36744
2.3676
2.3675
2.36797
2.3674
2.36856
2.36771
2.36809
2.36653
2.36657
2.36657
2.3666
2.36664
2.36668
2.36675
2.36677
2.36692
2.36683
2.36726
2.36675
2.3678
2.36707
2.36736
2.36587
2.3659
2.3659
2.36593
2.36597
2.366
2.36607
2.36609
2.36623
2.36615
2.36655
2.3661
2.36704
2.36643
2.36663
2.36519
2.36522
2.36523
2.36525
2.36529
2.36532
2.36538
2.3654
2.36553
2.36546
2.36584
2.36543
2.36628
2.36576
2.36589
2.36451
2.36454
2.36454
2.36457
2.3646
2.36463
2.36469
2.36471
2.36483
2.36477
2.36511
2.36476
2.36551
2.36509
2.36516
2.36382
2.36385
2.36385
2.36388
2.36391
2.36394
2.36399
2.36401
2.36413
2.36407
2.36439
2.36408
2.36475
2.36441
2.36442
2.36312
2.36315
2.36315
2.36318
2.3632
2.36323
2.36328
2.36331
2.36341
2.36336
2.36366
2.36339
2.36398
2.36372
2.36367
2.36241
2.36245
2.36245
2.36247
2.3625
2.36252
2.36257
2.36259
2.36269
2.36265
2.36292
2.36269
2.36322
2.36302
2.36292
2.3617
2.36174
2.36174
2.36176
2.36178
2.36181
2.36185
2.36188
2.36197
2.36193
2.36218
2.36199
2.36245
2.36231
2.36217
2.36099
2.36102
2.36102
2.36104
2.36106
2.36109
2.36113
2.36115
2.36124
2.36121
2.36144
2.36127
2.36168
2.36159
2.36142
2.36027
2.3603
2.3603
2.36032
2.36034
2.36036
2.3604
2.36042
2.3605
2.36048
2.36069
2.36055
2.3609
2.36087
2.36066
2.35954
2.35957
2.35957
2.35959
2.35961
2.35963
2.35967
2.35969
2.35977
2.35975
2.35994
2.35983
2.36013
2.36014
2.3599
2.35881
2.35884
2.35884
2.35886
2.35887
2.3589
2.35893
2.35895
2.35902
2.35901
2.35918
2.3591
2.35935
2.3594
2.35913
2.35807
2.35811
2.3581
2.35812
2.35814
2.35816
2.35819
2.35821
2.35827
2.35826
2.35842
2.35836
2.35857
2.35865
2.35837
2.35733
2.35736
2.35736
2.35738
2.35739
2.35741
2.35744
2.35746
2.35752
2.35752
2.35766
2.35762
2.35779
2.3579
2.3576
2.35658
2.35662
2.35661
2.35663
2.35664
2.35666
2.35669
2.35671
2.35677
2.35676
2.35689
2.35687
2.35701
2.35715
2.35682
2.35584
2.35587
2.35586
2.35588
2.35589
2.35591
2.35594
2.35595
2.35601
2.35601
2.35612
2.35612
2.35622
2.35639
2.35605
2.35508
2.35512
2.35511
2.35512
2.35514
2.35515
2.35518
2.35519
2.35524
2.35525
2.35535
2.35536
2.35543
2.35562
2.35527
2.35433
2.35436
2.35435
2.35437
2.35438
2.35439
2.35442
2.35443
2.35448
2.35449
2.35458
2.3546
2.35465
2.35485
2.35449
2.35357
2.3536
2.35359
2.3536
2.35362
2.35363
2.35365
2.35367
2.35371
2.35372
2.3538
2.35384
2.35386
2.35408
2.3537
2.3528
2.35284
2.35283
2.35284
2.35285
2.35286
2.35288
2.3529
2.35294
2.35295
2.35302
2.35307
2.35306
2.3533
2.35292
2.35204
2.35207
2.35206
2.35207
2.35208
2.35209
2.35211
2.35213
2.35216
2.35218
2.35224
2.3523
2.35227
2.35252
2.35213
2.35127
2.3513
2.35129
2.3513
2.35131
2.35132
2.35134
2.35135
2.35138
2.3514
2.35145
2.35153
2.35148
2.35174
2.35134
2.3505
2.35053
2.35052
2.35053
2.35054
2.35055
2.35056
2.35058
2.3506
2.35062
2.35067
2.35075
2.35068
2.35095
2.35055
2.34972
2.34976
2.34974
2.34975
2.34976
2.34977
2.34979
2.3498
2.34982
2.34984
2.34988
2.34997
2.34989
2.35017
2.34976
2.34895
2.34898
2.34897
2.34898
2.34898
2.34899
2.34901
2.34902
2.34904
2.34906
2.34909
2.34919
2.34909
2.34938
2.34897
2.34817
2.3482
2.34819
2.3482
2.3482
2.34821
2.34822
2.34823
2.34825
2.34828
2.3483
2.34841
2.34829
2.34858
2.34817
2.34739
2.34742
2.34741
2.34742
2.34742
2.34743
2.34744
2.34745
2.34747
2.34749
2.34751
2.34762
2.34749
2.34779
2.34738
2.34661
2.34664
2.34663
2.34663
2.34664
2.34664
2.34665
2.34666
2.34668
2.34671
2.34671
2.34683
2.34669
2.34699
2.34658
2.34582
2.34586
2.34584
2.34585
2.34585
2.34586
2.34587
2.34588
2.34589
2.34592
2.34592
2.34604
2.34589
2.3462
2.34579
2.34504
2.34507
2.34506
2.34507
2.34507
2.34507
2.34508
2.34509
2.3451
2.34513
2.34512
2.34525
2.3451
2.3454
2.34499
2.34425
2.34429
2.34427
2.34428
2.34428
2.34428
2.34429
2.3443
2.34431
2.34434
2.34433
2.34446
2.3443
2.3446
2.3442
2.34347
2.3435
2.34349
2.34349
2.34349
2.34349
2.3435
2.34351
2.34351
2.34355
2.34353
2.34367
2.3435
2.3438
2.3434
2.34268
2.34271
2.3427
2.3427
2.3427
2.3427
2.34271
2.34271
2.34272
2.34275
2.34273
2.34287
2.3427
2.343
2.34261
2.3419
2.34193
2.34191
2.34191
2.34191
2.34191
2.34191
2.34192
2.34192
2.34196
2.34194
2.34208
2.3419
2.3422
2.34181
2.34111
2.34114
2.34112
2.34113
2.34112
2.34112
2.34112
2.34112
2.34113
2.34116
2.34114
2.34129
2.3411
2.34141
2.34102
2.34032
2.34035
2.34033
2.34034
2.34033
2.34033
2.34033
2.34033
2.34033
2.34036
2.34034
2.34049
2.3403
2.34061
2.34023
2.33954
2.33957
2.33955
2.33955
2.33954
2.33953
2.33953
2.33953
2.33953
2.33956
2.33954
2.33969
2.3395
2.33981
2.33944
2.33875
2.33878
2.33876
2.33876
2.33875
2.33874
2.33873
2.33873
2.33873
2.33876
2.33873
2.33889
2.3387
2.33901
2.33866
2.33797
2.338
2.33798
2.33797
2.33796
2.33795
2.33794
2.33793
2.33792
2.33796
2.33793
2.33809
2.33791
2.33822
2.33788
2.33719
2.33722
2.33719
2.33719
2.33717
2.33716
2.33714
2.33713
2.33712
2.33715
2.33712
2.33728
2.33711
2.33742
2.33711
2.33642
2.33644
2.33642
2.3364
2.33638
2.33636
2.33634
2.33633
2.33631
2.33634
2.3363
2.33647
2.3363
2.33663
2.33635
2.33564
2.33567
2.33564
2.33563
2.3356
2.33557
2.33554
2.33552
2.3355
2.33552
2.33548
2.33566
2.3355
2.33584
2.3356
2.33488
2.3349
2.33487
2.33485
2.33482
2.33479
2.33475
2.33472
2.33468
2.3347
2.33465
2.33483
2.33468
2.33504
2.33487
2.33412
2.33414
2.33411
2.33408
2.33404
2.334
2.33395
2.33391
2.33386
2.33387
2.33381
2.33398
2.33385
2.33423
2.33416
2.33337
2.33339
2.33335
2.33332
2.33327
2.33322
2.33316
2.33311
2.33304
2.33303
2.33295
2.33312
2.333
2.33341
2.33348
2.33263
2.33265
2.33261
2.33257
2.33251
2.33245
2.33238
2.3323
2.33221
2.33218
2.33208
2.33222
2.33211
2.33256
2.33291
2.33191
2.33192
2.33188
2.33183
2.33177
2.33169
2.3316
2.3315
2.33139
2.33132
2.33119
2.33128
2.33115
2.33159
2.33219
2.3312
2.33121
2.33116
2.33111
2.33103
2.33094
2.33083
2.33071
2.33057
2.33046
2.33028
2.33029
2.33016
2.33065
2.33231
2.32916
2.32914
2.32909
2.32902
2.32891
2.32878
2.32862
2.32843
2.3282
2.32794
2.32761
2.32724
2.32669
2.32597
2.3231
2.32613
2.32611
2.32605
2.32594
2.3258
2.32562
2.32539
2.32511
2.32477
2.32437
2.32387
2.32326
2.32242
2.32224
2.32382
2.32394
2.32392
2.32386
2.32376
2.32364
2.32348
2.32329
2.32307
2.32281
2.32253
2.32224
2.32196
2.32138
2.32075
2.32202
2.32256
2.32255
2.32251
2.32245
2.32237
2.32227
2.32216
2.32203
2.32188
2.32173
2.32157
2.32148
2.32127
2.32066
2.32063
2.32165
2.32165
2.32162
2.32158
2.32152
2.32145
2.32137
2.32128
2.32117
2.32104
2.32087
2.32073
2.32062
2.3202
2.31902
2.32099
2.32099
2.32097
2.32093
2.32089
2.32083
2.32077
2.32069
2.32061
2.32051
2.32039
2.32025
2.32026
2.32027
2.31848
2.32056
2.32055
2.32054
2.32052
2.32049
2.32045
2.32041
2.32036
2.3203
2.32025
2.32018
2.32005
2.32003
2.32018
2.31813
2.32031
2.32031
2.3203
2.32029
2.32027
2.32025
2.32022
2.32019
2.32016
2.32013
2.32009
2.31998
2.31997
2.32005
2.31789
2.32017
2.32017
2.32017
2.32016
2.32015
2.32013
2.32012
2.3201
2.32009
2.32007
2.32005
2.31998
2.32
2.3199
2.31783
2.32009
2.32009
2.32008
2.32008
2.32007
2.32007
2.32006
2.32005
2.32004
2.32003
2.32002
2.31997
2.32007
2.3197
2.31783
2.32003
2.32003
2.32002
2.32002
2.32002
2.32002
2.32001
2.32001
2.32001
2.32
2.31999
2.31995
2.32009
2.31944
2.31784
2.31999
2.31998
2.31998
2.31998
2.31998
2.31998
2.31998
2.31997
2.31997
2.31997
2.31996
2.31992
2.32008
2.31919
2.31784
2.31995
2.31995
2.31995
2.31995
2.31995
2.31995
2.31994
2.31994
2.31994
2.31994
2.31992
2.31991
2.32003
2.31898
2.31783
2.31992
2.31992
2.31992
2.31992
2.31992
2.31992
2.31992
2.31992
2.31992
2.31991
2.31989
2.31991
2.31992
2.31881
2.31781
2.3199
2.3199
2.3199
2.3199
2.3199
2.31989
2.31989
2.31989
2.31989
2.31987
2.31985
2.3199
2.31975
2.31867
2.31778
2.31989
2.31988
2.31988
2.31988
2.31988
2.31988
2.31987
2.31987
2.31987
2.31985
2.31983
2.31991
2.31959
2.31858
2.31772
2.31988
2.31988
2.31988
2.31988
2.31987
2.31987
2.31987
2.31986
2.31986
2.31984
2.31982
2.31992
2.31943
2.31852
2.31768
2.31988
2.31988
2.31988
2.31988
2.31988
2.31988
2.31987
2.31987
2.31986
2.31984
2.31984
2.31991
2.3193
2.31848
2.31766
2.3199
2.3199
2.3199
2.31989
2.31989
2.31989
2.31989
2.31988
2.31988
2.31986
2.31987
2.31988
2.31919
2.31844
2.31765
2.31992
2.31992
2.31992
2.31992
2.31991
2.31991
2.31991
2.31991
2.3199
2.31988
2.31991
2.31982
2.31911
2.31841
2.31765
2.31994
2.31994
2.31994
2.31994
2.31994
2.31994
2.31994
2.31993
2.31992
2.3199
2.31996
2.31975
2.31905
2.31838
2.31764
2.31998
2.31998
2.31998
2.31998
2.31997
2.31997
2.31997
2.31997
2.31995
2.31994
2.32
2.31968
2.31902
2.31836
2.31764
2.32001
2.32001
2.32001
2.32001
2.32001
2.32001
2.32001
2.32001
2.31999
2.31999
2.32003
2.31961
2.319
2.31835
2.31766
2.32006
2.32006
2.32006
2.32006
2.32006
2.32006
2.32005
2.32005
2.32003
2.32005
2.32003
2.31956
2.31898
2.31835
2.31767
2.3201
2.3201
2.3201
2.3201
2.3201
2.3201
2.3201
2.32009
2.32008
2.32011
2.32003
2.31952
2.31897
2.31835
2.31769
2.32016
2.32016
2.32016
2.32016
2.32016
2.32015
2.32015
2.32014
2.32013
2.32017
2.32001
2.3195
2.31896
2.31835
2.31771
2.32021
2.32021
2.32021
2.32021
2.32021
2.32021
2.32021
2.3202
2.32019
2.32023
2.31998
2.31949
2.31895
2.31835
2.31773
2.32027
2.32027
2.32027
2.32027
2.32027
2.32027
2.32026
2.32025
2.32026
2.32027
2.31996
2.31948
2.31895
2.31836
2.31776
2.32032
2.32032
2.32032
2.32032
2.32032
2.32032
2.32032
2.32031
2.32033
2.3203
2.31994
2.31947
2.31895
2.31837
2.31779
2.32038
2.32038
2.32038
2.32038
2.32038
2.32038
2.32037
2.32037
2.32039
2.32031
2.31992
2.31946
2.31894
2.31838
2.31781
2.32044
2.32044
2.32044
2.32044
2.32044
2.32044
2.32043
2.32043
2.32045
2.32031
2.31991
2.31945
2.31894
2.31839
2.31783
2.3205
2.3205
2.3205
2.3205
2.3205
2.32049
2.32049
2.32049
2.32051
2.3203
2.3199
2.31944
2.31893
2.31839
2.31785
2.32055
2.32055
2.32055
2.32055
2.32055
2.32055
2.32054
2.32055
2.32054
2.32028
2.31989
2.31943
2.31893
2.3184
2.31787
2.32061
2.32061
2.32061
2.32061
2.32061
2.3206
2.3206
2.32062
2.32056
2.32027
2.31987
2.31942
2.31893
2.31841
2.31789
2.32067
2.32067
2.32067
2.32067
2.32066
2.32066
2.32066
2.32067
2.32058
2.32026
2.31986
2.31941
2.31892
2.31841
2.3179
2.32072
2.32072
2.32072
2.32072
2.32072
2.32071
2.32072
2.32073
2.32058
2.32025
2.31985
2.3194
2.31891
2.31841
2.31792
2.32078
2.32078
2.32078
2.32078
2.32078
2.32077
2.32078
2.32077
2.32058
2.32024
2.31984
2.31939
2.31891
2.31842
2.31793
2.32084
2.32084
2.32084
2.32084
2.32084
2.32083
2.32084
2.32081
2.32057
2.32023
2.31982
2.31937
2.3189
2.31842
2.31795
2.3209
2.3209
2.3209
2.3209
2.3209
2.32089
2.3209
2.32083
2.32057
2.32022
2.31981
2.31936
2.3189
2.31843
2.31796
2.32096
2.32096
2.32096
2.32096
2.32096
2.32096
2.32096
2.32085
2.32056
2.32021
2.3198
2.31935
2.31889
2.31843
2.31798
2.32103
2.32103
2.32103
2.32102
2.32102
2.32103
2.32102
2.32086
2.32056
2.3202
2.31979
2.31935
2.31889
2.31844
2.31799
2.32109
2.32109
2.32109
2.32109
2.32109
2.32109
2.32106
2.32086
2.32056
2.32019
2.31978
2.31934
2.31889
2.31845
2.31801
2.32116
2.32116
2.32116
2.32116
2.32115
2.32116
2.3211
2.32087
2.32055
2.32018
2.31977
2.31933
2.31889
2.31846
2.31803
2.32123
2.32123
2.32123
2.32123
2.32123
2.32123
2.32112
2.32087
2.32054
2.32017
2.31976
2.31933
2.31889
2.31846
2.31804
2.3213
2.3213
2.3213
2.3213
2.3213
2.32129
2.32114
2.32088
2.32054
2.32016
2.31975
2.31932
2.3189
2.31847
2.31806
2.32138
2.32138
2.32138
2.32137
2.32138
2.32134
2.32116
2.32088
2.32053
2.32015
2.31974
2.31932
2.3189
2.31848
2.31808
2.32146
2.32145
2.32145
2.32145
2.32145
2.32138
2.32118
2.32088
2.32053
2.32014
2.31973
2.31932
2.3189
2.31849
2.31809
2.32154
2.32153
2.32153
2.32153
2.32152
2.32142
2.32119
2.32088
2.32052
2.32013
2.31972
2.31931
2.3189
2.3185
2.31811
2.32162
2.32162
2.32162
2.32162
2.32159
2.32145
2.32119
2.32087
2.32051
2.32012
2.31972
2.31931
2.3189
2.31851
2.31812
2.32171
2.3217
2.3217
2.3217
2.32165
2.32147
2.3212
2.32087
2.3205
2.32011
2.31971
2.3193
2.3189
2.31851
2.31814
2.3218
2.32179
2.32179
2.32178
2.3217
2.32149
2.3212
2.32086
2.32048
2.32009
2.3197
2.3193
2.3189
2.31852
2.31815
2.32189
2.32188
2.32188
2.32185
2.32174
2.3215
2.32119
2.32084
2.32047
2.32008
2.31968
2.31929
2.3189
2.31852
2.31816
2.32199
2.32198
2.32197
2.32192
2.32177
2.32151
2.32119
2.32083
2.32045
2.32006
2.31967
2.31928
2.31889
2.31852
2.31816
2.3221
2.32208
2.32206
2.32198
2.32179
2.32151
2.32118
2.32081
2.32043
2.32004
2.31965
2.31926
2.31888
2.31852
2.31816
2.32222
2.32218
2.32215
2.32204
2.32181
2.32151
2.32116
2.32079
2.32041
2.32002
2.31963
2.31925
2.31887
2.31851
2.31816
2.32234
2.32229
2.32223
2.32208
2.32182
2.3215
2.32114
2.32077
2.32038
2.31999
2.3196
2.31922
2.31886
2.3185
2.31816
2.32247
2.32239
2.32231
2.32211
2.32182
2.32149
2.32112
2.32074
2.32035
2.31996
2.31958
2.3192
2.31884
2.31848
2.31815
2.32261
2.32249
2.32237
2.32213
2.32182
2.32146
2.32109
2.3207
2.32031
2.31993
2.31954
2.31917
2.31881
2.31846
2.31813
2.32274
2.32258
2.32242
2.32214
2.32181
2.32144
2.32105
2.32066
2.32027
2.31989
2.31951
2.31914
2.31878
2.31844
2.31811
2.32287
2.32266
2.32245
2.32215
2.32179
2.32141
2.32102
2.32062
2.32023
2.31984
2.31946
2.3191
2.31874
2.3184
2.31808
2.32298
2.32271
2.32247
2.32214
2.32176
2.32137
2.32097
2.32057
2.32018
2.31979
2.31941
2.31905
2.3187
2.31836
2.31804
2.32306
2.32274
2.32248
2.32212
2.32173
2.32132
2.32092
2.32051
2.32012
2.31973
2.31936
2.319
2.31865
2.31831
2.318
2.3231
2.32273
2.32246
2.32209
2.32168
2.32127
2.32085
2.32045
2.32005
2.31966
2.31929
2.31893
2.31859
2.31826
2.31795
2.3231
2.32269
2.32241
2.32203
2.32162
2.32119
2.32078
2.32037
2.31998
2.31959
2.31922
2.31886
2.31852
2.31819
2.31788
2.32305
2.32262
2.32234
2.32196
2.32154
2.32111
2.32069
2.32029
2.31989
2.3195
2.31913
2.31878
2.31844
2.31812
2.31781
2.32296
2.3225
2.32224
2.32186
2.32144
2.32102
2.3206
2.32019
2.31979
2.31941
2.31904
2.31869
2.31835
2.31803
2.31773
2.32283
2.32235
2.3221
2.32174
2.32132
2.3209
2.32048
2.32008
2.31968
2.3193
2.31893
2.31858
2.31825
2.31793
2.31763
2.32265
2.32216
2.32193
2.32158
2.32118
2.32076
2.32035
2.31995
2.31955
2.31917
2.31881
2.31846
2.31813
2.31782
2.31752
2.32243
2.32194
2.32173
2.3214
2.32101
2.3206
2.3202
2.3198
2.31941
2.31903
2.31868
2.31833
2.318
2.31769
2.3174
2.32218
2.32169
2.3215
2.32119
2.32082
2.32042
2.32002
2.31963
2.31925
2.31888
2.31852
2.31818
2.31786
2.31755
2.31726
2.3219
2.3214
2.32123
2.32094
2.32059
2.32021
2.31982
2.31944
2.31907
2.3187
2.31835
2.31802
2.3177
2.31739
2.3171
2.32158
2.32109
2.32093
2.32067
2.32033
2.31997
2.3196
2.31923
2.31886
2.31851
2.31816
2.31783
2.31752
2.31722
2.31693
2.32124
2.32075
2.32061
2.32037
2.32005
2.31971
2.31935
2.31899
2.31863
2.31829
2.31795
2.31763
2.31732
2.31702
2.31674
2.32087
2.32038
2.32026
2.32004
2.31974
2.31941
2.31907
2.31873
2.31838
2.31805
2.31772
2.3174
2.3171
2.31681
2.31654
2.32047
2.31999
2.31988
2.31968
2.3194
2.3191
2.31877
2.31844
2.31811
2.31778
2.31746
2.31715
2.31686
2.31658
2.31631
2.32005
2.31957
2.31948
2.31929
2.31904
2.31875
2.31844
2.31812
2.31781
2.31749
2.31718
2.31688
2.3166
2.31632
2.31606
2.3196
2.31913
2.31905
2.31888
2.31865
2.31837
2.31808
2.31778
2.31748
2.31718
2.31688
2.31659
2.31631
2.31604
2.31578
2.31914
2.31867
2.3186
2.31845
2.31823
2.31797
2.3177
2.31742
2.31713
2.31684
2.31655
2.31627
2.316
2.31574
2.31549
2.31865
2.31818
2.31813
2.31799
2.31778
2.31755
2.31729
2.31702
2.31675
2.31647
2.3162
2.31593
2.31567
2.31541
2.31517
2.31813
2.31767
2.31763
2.3175
2.31731
2.31709
2.31685
2.3166
2.31634
2.31608
2.31582
2.31556
2.31531
2.31506
2.31483
2.31759
2.31715
2.31711
2.317
2.31682
2.31662
2.31639
2.31616
2.31591
2.31566
2.31541
2.31516
2.31492
2.31469
2.31446
2.31704
2.3166
2.31657
2.31647
2.31631
2.31612
2.31591
2.31568
2.31545
2.31522
2.31498
2.31474
2.31451
2.31428
2.31407
2.31646
2.31603
2.31601
2.31591
2.31577
2.31559
2.3154
2.31519
2.31497
2.31475
2.31452
2.3143
2.31407
2.31386
2.31365
2.31587
2.31544
2.31542
2.31534
2.3152
2.31504
2.31486
2.31467
2.31446
2.31425
2.31404
2.31382
2.31361
2.31341
2.31321
2.31525
2.31483
2.31482
2.31475
2.31462
2.31447
2.3143
2.31412
2.31393
2.31373
2.31353
2.31333
2.31313
2.31293
2.31274
2.31461
2.31421
2.3142
2.31413
2.31402
2.31388
2.31372
2.31355
2.31337
2.31319
2.313
2.31281
2.31262
2.31243
2.31225
2.31396
2.31356
2.31356
2.3135
2.31339
2.31326
2.31312
2.31296
2.31279
2.31262
2.31244
2.31226
2.31208
2.31191
2.31173
2.31329
2.3129
2.3129
2.31284
2.31275
2.31263
2.31249
2.31235
2.31219
2.31203
2.31186
2.31169
2.31153
2.31136
2.31119
2.31259
2.31222
2.31222
2.31217
2.31208
2.31197
2.31185
2.31171
2.31157
2.31142
2.31126
2.3111
2.31094
2.31079
2.31063
2.31189
2.31152
2.31152
2.31148
2.3114
2.3113
2.31119
2.31106
2.31093
2.31079
2.31064
2.31049
2.31034
2.31019
2.31005
2.31116
2.3108
2.31081
2.31078
2.3107
2.31061
2.3105
2.31039
2.31026
2.31013
2.31
2.30986
2.30972
2.30958
2.30944
2.31042
2.31007
2.31009
2.31006
2.30999
2.3099
2.3098
2.3097
2.30958
2.30946
2.30933
2.3092
2.30907
2.30894
2.30881
2.30967
2.30933
2.30935
2.30932
2.30926
2.30918
2.30909
2.30899
2.30888
2.30877
2.30865
2.30853
2.30841
2.30828
2.30816
2.3089
2.30857
2.30859
2.30857
2.30851
2.30844
2.30836
2.30827
2.30817
2.30806
2.30795
2.30784
2.30773
2.30761
2.3075
2.30812
2.3078
2.30782
2.3078
2.30775
2.30768
2.30761
2.30753
2.30744
2.30734
2.30724
2.30713
2.30703
2.30692
2.30681
2.30733
2.30702
2.30704
2.30703
2.30698
2.30692
2.30685
2.30677
2.30669
2.3066
2.30651
2.30641
2.30631
2.30621
2.30611
2.30653
2.30623
2.30625
2.30624
2.3062
2.30614
2.30608
2.30601
2.30593
2.30585
2.30576
2.30567
2.30558
2.30549
2.30539
2.30572
2.30543
2.30545
2.30544
2.3054
2.30535
2.3053
2.30523
2.30516
2.30508
2.305
2.30492
2.30484
2.30475
2.30466
2.3049
2.30462
2.30464
2.30464
2.3046
2.30456
2.3045
2.30444
2.30438
2.30431
2.30424
2.30416
2.30408
2.304
2.30392
2.30407
2.30381
2.30383
2.30382
2.30379
2.30375
2.3037
2.30365
2.30359
2.30353
2.30346
2.30339
2.30331
2.30324
2.30316
2.30324
2.30298
2.30301
2.303
2.30298
2.30294
2.30289
2.30284
2.30279
2.30273
2.30267
2.3026
2.30254
2.30247
2.3024
2.30241
2.30216
2.30218
2.30218
2.30215
2.30212
2.30208
2.30204
2.30199
2.30193
2.30187
2.30181
2.30175
2.30169
2.30162
2.30157
2.30133
2.30135
2.30135
2.30133
2.3013
2.30126
2.30122
2.30118
2.30113
2.30107
2.30102
2.30096
2.3009
2.30084
2.30073
2.3005
2.30052
2.30052
2.3005
2.30047
2.30044
2.3004
2.30036
2.30032
2.30027
2.30022
2.30016
2.30011
2.30005
2.29989
2.29966
2.29969
2.29969
2.29967
2.29965
2.29962
2.29958
2.29954
2.2995
2.29946
2.29941
2.29936
2.29931
2.29925
2.29905
2.29883
2.29886
2.29886
2.29885
2.29882
2.29879
2.29876
2.29873
2.29869
2.29865
2.2986
2.29856
2.29851
2.29846
2.29821
2.29801
2.29803
2.29803
2.29802
2.298
2.29797
2.29794
2.29791
2.29788
2.29784
2.2978
2.29775
2.29771
2.29766
2.29738
2.29718
2.29721
2.29721
2.2972
2.29718
2.29716
2.29713
2.2971
2.29707
2.29703
2.29699
2.29695
2.2969
2.29686
2.29656
2.29637
2.29639
2.2964
2.29639
2.29637
2.29635
2.29632
2.29629
2.29626
2.29623
2.29619
2.29615
2.29611
2.29606
2.29575
2.29557
2.29559
2.29559
2.29558
2.29556
2.29554
2.29552
2.29549
2.29546
2.29543
2.29539
2.29535
2.29531
2.29527
2.29495
2.29477
2.2948
2.2948
2.29479
2.29477
2.29475
2.29473
2.2947
2.29467
2.29464
2.29461
2.29457
2.29453
2.29449
2.29417
2.294
2.29402
2.29402
2.29401
2.29399
2.29398
2.29395
2.29393
2.2939
2.29387
2.29383
2.29379
2.29375
2.29371
2.29341
2.29324
2.29326
2.29326
2.29325
2.29324
2.29322
2.29319
2.29317
2.29314
2.29311
2.29307
2.29303
2.29299
2.29295
2.29267
2.29251
2.29252
2.29253
2.29252
2.2925
2.29248
2.29246
2.29243
2.2924
2.29237
2.29233
2.29229
2.29225
2.2922
2.29196
2.2918
2.29182
2.29182
2.29181
2.29179
2.29177
2.29174
2.29172
2.29169
2.29165
2.29161
2.29157
2.29153
2.29148
2.29129
2.29113
2.29114
2.29114
2.29113
2.29111
2.29109
2.29106
2.29103
2.291
2.29097
2.29093
2.29088
2.29084
2.29078
2.29066
2.2905
2.29051
2.29051
2.29049
2.29047
2.29045
2.29042
2.29039
2.29035
2.29032
2.29027
2.29023
2.29017
2.29012
2.29007
2.28991
2.28993
2.28992
2.2899
2.28988
2.28985
2.28982
2.28979
2.28975
2.28971
2.28966
2.28961
2.28955
2.28949
2.28955
2.28939
2.2894
2.28939
2.28937
2.28934
2.28931
2.28928
2.28924
2.2892
2.28915
2.2891
2.28904
2.28898
2.28891
2.2891
2.28893
2.28893
2.28892
2.2889
2.28887
2.28884
2.2888
2.28875
2.2887
2.28865
2.28859
2.28853
2.28846
2.28839
2.28872
2.28855
2.28855
2.28853
2.28851
2.28847
2.28843
2.28839
2.28834
2.28828
2.28822
2.28816
2.28809
2.28801
2.28793
2.28844
2.28826
2.28825
2.28824
2.2882
2.28816
2.28812
2.28807
2.28801
2.28795
2.28788
2.28781
2.28773
2.28764
2.28754
2.28827
2.28807
2.28807
2.28804
2.288
2.28796
2.2879
2.28785
2.28778
2.28771
2.28763
2.28755
2.28746
2.28736
2.28725
2.28823
2.28801
2.288
2.28797
2.28793
2.28787
2.28781
2.28774
2.28767
2.28759
2.2875
2.2874
2.2873
2.28719
2.28707
2.28833
2.28809
2.28808
2.28804
2.28799
2.28792
2.28785
2.28777
2.28769
2.28759
2.28749
2.28738
2.28727
2.28714
2.287
2.2886
2.28834
2.28832
2.28828
2.28821
2.28814
2.28805
2.28796
2.28787
2.28776
2.28764
2.28752
2.28738
2.28724
2.28708
2.28907
2.28878
2.28875
2.28869
2.28862
2.28853
2.28844
2.28833
2.28822
2.28809
2.28796
2.28782
2.28766
2.2875
2.28733
2.28976
2.28943
2.28939
2.28933
2.28924
2.28913
2.28902
2.2889
2.28877
2.28863
2.28848
2.28831
2.28814
2.28795
2.28776
2.2907
2.29033
2.29027
2.2902
2.29009
2.28997
2.28985
2.28971
2.28955
2.28939
2.28921
2.28903
2.28883
2.28862
2.2884
2.29193
2.2915
2.29143
2.29134
2.29122
2.29108
2.29093
2.29077
2.29059
2.29041
2.2902
2.28999
2.28977
2.28953
2.28928
2.29347
2.29298
2.2929
2.29279
2.29264
2.29248
2.29231
2.29212
2.29192
2.2917
2.29147
2.29123
2.29097
2.2907
2.29042
2.29537
2.29479
2.29469
2.29457
2.2944
2.29421
2.29401
2.29379
2.29356
2.29331
2.29305
2.29277
2.29248
2.29217
2.29184
2.29765
2.29697
2.29686
2.29671
2.29651
2.29629
2.29605
2.2958
2.29553
2.29525
2.29494
2.29463
2.29429
2.29394
2.29358
2.30032
2.29952
2.29938
2.29921
2.29898
2.29872
2.29845
2.29816
2.29785
2.29752
2.29718
2.29682
2.29644
2.29605
2.29564
2.30336
2.30243
2.30227
2.30208
2.30181
2.30152
2.30121
2.30088
2.30053
2.30016
2.29977
2.29936
2.29894
2.29849
2.29803
2.30676
2.30569
2.30553
2.30531
2.30502
2.30469
2.30433
2.30396
2.30356
2.30314
2.30269
2.30223
2.30174
2.30123
2.30071
2.31038
2.30917
2.30902
2.3088
2.30847
2.3081
2.30771
2.30728
2.30683
2.30634
2.30583
2.3053
2.30474
2.30416
2.30356
2.31384
2.31252
2.31242
2.3122
2.31187
2.31147
2.31104
2.31057
2.31007
2.30953
2.30895
2.30836
2.30773
2.30709
2.30644
2.31676
2.31539
2.31536
2.31518
2.31486
2.31447
2.31403
2.31354
2.31301
2.31244
2.31183
2.3112
2.31054
2.30985
2.30917
2.31897
2.31759
2.31763
2.31752
2.31724
2.31688
2.31646
2.31599
2.31546
2.3149
2.3143
2.31366
2.313
2.31233
2.31165
2.32046
2.3191
2.31922
2.31917
2.31895
2.31864
2.31827
2.31784
2.31736
2.31684
2.31628
2.31568
2.31506
2.31442
2.31379
2.32141
2.32008
2.32026
2.32026
2.3201
2.31985
2.31954
2.31918
2.31876
2.31831
2.31781
2.31728
2.31673
2.31616
2.31559
2.32202
2.32076
2.32096
2.321
2.32088
2.32069
2.32044
2.32014
2.3198
2.31942
2.319
2.31855
2.31808
2.31759
2.3171
2.32249
2.32128
2.32149
2.32154
2.32146
2.32131
2.32112
2.32088
2.3206
2.32029
2.31995
2.31958
2.31918
2.31878
2.31836
2.32283
2.32171
2.3219
2.32196
2.32191
2.32179
2.32164
2.32145
2.32123
2.32098
2.3207
2.3204
2.32008
2.31974
2.3194
2.32312
2.32208
2.32226
2.32232
2.32228
2.32219
2.32207
2.32192
2.32175
2.32155
2.32133
2.32109
2.32083
2.32057
2.32029
2.32345
2.3225
2.32264
2.3227
2.32266
2.32259
2.3225
2.32239
2.32225
2.3221
2.32193
2.32174
2.32154
2.32133
2.32111
2.32381
2.32294
2.32306
2.32311
2.32308
2.32302
2.32295
2.32286
2.32275
2.32263
2.3225
2.32235
2.32219
2.32203
2.32186
2.32416
2.32337
2.32347
2.32351
2.32348
2.32344
2.32338
2.32331
2.32323
2.32313
2.32303
2.32291
2.32279
2.32266
2.32252
2.32449
2.3238
2.32388
2.3239
2.32388
2.32384
2.3238
2.32374
2.32367
2.3236
2.32352
2.32343
2.32334
2.32324
2.32313
2.32482
2.3242
2.32427
2.32429
2.32427
2.32423
2.3242
2.32415
2.3241
2.32404
2.32398
2.32391
2.32384
2.32377
2.32368
2.32513
2.32458
2.32463
2.32465
2.32463
2.3246
2.32457
2.32454
2.3245
2.32446
2.32441
2.32436
2.32431
2.32425
2.32419
2.32541
2.32493
2.32497
2.32498
2.32497
2.32495
2.32492
2.3249
2.32487
2.32484
2.3248
2.32477
2.32473
2.32469
2.32465
2.32566
2.32524
2.32527
2.32529
2.32527
2.32526
2.32524
2.32522
2.3252
2.32518
2.32516
2.32514
2.32511
2.32509
2.32506
2.32587
2.32551
2.32554
2.32555
2.32554
2.32553
2.32552
2.32551
2.3255
2.32549
2.32547
2.32546
2.32545
2.32543
2.32542
2.32605
2.32574
2.32577
2.32577
2.32577
2.32576
2.32576
2.32575
2.32575
2.32575
2.32574
2.32574
2.32574
2.32574
2.32573
2.32619
2.32592
2.32594
2.32595
2.32595
2.32595
2.32595
2.32595
2.32595
2.32596
2.32597
2.32597
2.32598
2.32599
2.326
2.32627
2.32605
2.32607
2.32608
2.32608
2.32608
2.32609
2.3261
2.32611
2.32612
2.32614
2.32616
2.32617
2.32619
2.32621
2.3263
2.32612
2.32613
2.32615
2.32615
2.32616
2.32617
2.32619
2.32621
2.32623
2.32626
2.32628
2.32631
2.32634
2.32638
2.32627
2.32612
2.32613
2.32615
2.32616
2.32617
2.32619
2.32622
2.32625
2.32628
2.32631
2.32635
2.32639
2.32644
2.32648
2.32616
2.32604
2.32606
2.32608
2.32609
2.32612
2.32614
2.32618
2.32621
2.32626
2.3263
2.32635
2.32641
2.32647
2.32652
2.32596
2.32588
2.3259
2.32592
2.32594
2.32597
2.32601
2.32605
2.3261
2.32616
2.32622
2.32628
2.32635
2.32642
2.3265
2.32566
2.32561
2.32563
2.32566
2.32569
2.32573
2.32577
2.32583
2.32589
2.32596
2.32604
2.32612
2.32621
2.3263
2.32639
2.32522
2.3252
2.32523
2.32526
2.3253
2.32535
2.32541
2.32548
2.32556
2.32565
2.32575
2.32585
2.32596
2.32608
2.32619
2.32461
2.32463
2.32466
2.3247
2.32475
2.32482
2.3249
2.32499
2.32509
2.3252
2.32532
2.32545
2.32559
2.32573
2.32588
2.32375
2.32381
2.32385
2.3239
2.32397
2.32406
2.32417
2.32428
2.32442
2.32456
2.32472
2.32488
2.32506
2.32524
2.32542
2.32256
2.32268
2.32273
2.32281
2.3229
2.32302
2.32316
2.32331
2.32348
2.32367
2.32387
2.32409
2.32431
2.32454
2.32478
2.32091
2.32111
2.32118
2.32128
2.32141
2.32157
2.32175
2.32196
2.32219
2.32243
2.32269
2.32297
2.32326
2.32356