/*--------------------------------*- C++ -*----------------------------------*\
  =========                 |
  \\      /  F ield         | OpenFOAM: The Open Source CFD Toolbox
   \\    /   O peration     | Website:  https://openfoam.org
    \\  /    A nd           | Version:  7
     \\/     M anipulation  |
\*---------------------------------------------------------------------------*/
FoamFile
{
    version     2.0;
    format      ascii;
    class       volScalarField;
    location    "300";
    object      p_tot;
}
// * * * * * * * * * * * * * * * * * * * * * * * * * * * * * * * * * * * * * //

dimensions      [0 2 -2 0 0 0 0];

internalField   nonuniform List<scalar> 
32100
(
3.25634
3.25636
3.2564
3.25646
3.25653
3.25661
3.25669
3.25673
3.25669
3.25647
3.25586
3.25455
3.24871
3.2201
3.34298
3.24529
3.24531
3.24535
3.24541
3.24549
3.24557
3.24566
3.24571
3.24571
3.24559
3.2451
3.24442
3.248
3.21422
3.3109
3.23421
3.23424
3.23428
3.23435
3.23443
3.23453
3.23464
3.23474
3.23483
3.23492
3.23498
3.23412
3.24512
3.21139
3.27905
3.22312
3.22315
3.22319
3.22327
3.22336
3.22348
3.22362
3.22379
3.22398
3.22425
3.22498
3.2231
3.23689
3.20733
3.25536
3.212
3.21203
3.21208
3.21216
3.21227
3.21241
3.21258
3.2128
3.21308
3.21339
3.21468
3.21184
3.22583
3.20068
3.23743
3.20086
3.20089
3.20095
3.20104
3.20116
3.20131
3.20151
3.20176
3.20211
3.20234
3.20404
3.20068
3.21402
3.19202
3.22177
3.18969
3.18973
3.18979
3.18988
3.19001
3.19018
3.19039
3.19066
3.19106
3.1912
3.19314
3.18958
3.20208
3.18236
3.20703
3.1785
3.17853
3.17859
3.17869
3.17883
3.179
3.17923
3.1795
3.17995
3.17999
3.18205
3.1784
3.19005
3.17239
3.19292
3.16727
3.16731
3.16737
3.16747
3.16761
3.16779
3.16802
3.16828
3.16876
3.16871
3.17081
3.16716
3.17793
3.16225
3.17938
3.15602
3.15605
3.15612
3.15622
3.15636
3.15654
3.15677
3.15701
3.15751
3.15739
3.15947
3.15588
3.16578
3.15192
3.16628
3.14473
3.14477
3.14483
3.14493
3.14507
3.14524
3.14547
3.14569
3.1462
3.14602
3.14805
3.14458
3.15363
3.14137
3.15351
3.13341
3.13345
3.13351
3.13361
3.13374
3.13391
3.13414
3.13434
3.13484
3.13461
3.13656
3.13325
3.1415
3.13067
3.14097
3.12207
3.12211
3.12216
3.12226
3.12239
3.12255
3.12277
3.12294
3.12343
3.12317
3.12503
3.1219
3.12941
3.11983
3.1286
3.11069
3.11073
3.11079
3.11088
3.111
3.11115
3.11136
3.11152
3.11199
3.1117
3.11347
3.11053
3.11735
3.10887
3.11638
3.09929
3.09933
3.09938
3.09947
3.09958
3.09972
3.09993
3.10006
3.10051
3.10022
3.10188
3.09913
3.10533
3.09783
3.10426
3.08786
3.0879
3.08795
3.08803
3.08814
3.08827
3.08846
3.08858
3.08901
3.08871
3.09026
3.08772
3.09334
3.0867
3.09223
3.0764
3.07645
3.07649
3.07657
3.07667
3.07679
3.07697
3.07707
3.07748
3.07718
3.07864
3.07628
3.08138
3.0755
3.08027
3.06493
3.06497
3.06501
3.06508
3.06518
3.06529
3.06546
3.06554
3.06593
3.06564
3.067
3.06482
3.06945
3.06424
3.06836
3.05343
3.05347
3.0535
3.05357
3.05366
3.05376
3.05393
3.054
3.05437
3.05408
3.05534
3.05334
3.05755
3.05292
3.05648
3.04191
3.04195
3.04198
3.04204
3.04213
3.04222
3.04237
3.04244
3.04278
3.04251
3.04368
3.04184
3.04566
3.04156
3.04464
3.03037
3.0304
3.03043
3.03049
3.03057
3.03066
3.0308
3.03086
3.03118
3.03092
3.03201
3.03033
3.03379
3.03016
3.03282
3.01881
3.01885
3.01887
3.01893
3.019
3.01908
3.01922
3.01927
3.01957
3.01933
3.02034
3.01879
3.02194
3.01872
3.02102
3.00723
3.00727
3.00729
3.00735
3.00742
3.00749
3.00761
3.00766
3.00794
3.00772
3.00865
3.00724
3.0101
3.00725
3.00923
2.99564
2.99568
2.9957
2.99575
2.99581
2.99588
2.996
2.99604
2.9963
2.99609
2.99696
2.99568
2.99827
2.99575
2.99745
2.98403
2.98407
2.98409
2.98414
2.9842
2.98426
2.98437
2.98441
2.98466
2.98446
2.98527
2.9841
2.98644
2.98423
2.98568
2.97242
2.97245
2.97247
2.97251
2.97257
2.97263
2.97273
2.97276
2.973
2.97282
2.97356
2.9725
2.97463
2.97267
2.97391
2.96078
2.96082
2.96083
2.96087
2.96093
2.96098
2.96108
2.96111
2.96133
2.96116
2.96185
2.96089
2.96282
2.9611
2.96215
2.94914
2.94917
2.94919
2.94922
2.94927
2.94933
2.94942
2.94945
2.94965
2.9495
2.95014
2.94927
2.95101
2.94951
2.95039
2.93748
2.93752
2.93753
2.93756
2.93761
2.93766
2.93774
2.93777
2.93796
2.93783
2.93842
2.93763
2.93921
2.9379
2.93863
2.92581
2.92585
2.92586
2.92589
2.92594
2.92598
2.92606
2.92609
2.92627
2.92614
2.92669
2.92598
2.92741
2.92627
2.92687
2.91414
2.91417
2.91418
2.91421
2.91425
2.9143
2.91437
2.9144
2.91457
2.91445
2.91496
2.91433
2.91562
2.91463
2.91511
2.90245
2.90249
2.90249
2.90252
2.90256
2.9026
2.90267
2.9027
2.90286
2.90275
2.90323
2.90265
2.90382
2.90297
2.90335
2.89076
2.89079
2.8908
2.89082
2.89086
2.8909
2.89097
2.89099
2.89114
2.89105
2.89148
2.89097
2.89202
2.8913
2.89158
2.87905
2.87909
2.87909
2.87912
2.87915
2.87919
2.87925
2.87928
2.87941
2.87933
2.87974
2.87928
2.88022
2.87961
2.87981
2.86734
2.86737
2.86738
2.8674
2.86744
2.86747
2.86753
2.86755
2.86768
2.86761
2.86799
2.86758
2.86843
2.86791
2.86804
2.85562
2.85565
2.85566
2.85568
2.85571
2.85574
2.8558
2.85582
2.85595
2.85588
2.85623
2.85587
2.85663
2.85621
2.85627
2.84389
2.84393
2.84393
2.84395
2.84398
2.84401
2.84407
2.84409
2.8442
2.84415
2.84447
2.84416
2.84483
2.84449
2.84449
2.83216
2.83219
2.83219
2.83222
2.83224
2.83227
2.83232
2.83235
2.83245
2.8324
2.8327
2.83243
2.83302
2.83276
2.83271
2.82042
2.82045
2.82045
2.82047
2.8205
2.82053
2.82058
2.8206
2.8207
2.82066
2.82093
2.8207
2.82122
2.82102
2.82093
2.80867
2.80871
2.80871
2.80873
2.80875
2.80878
2.80882
2.80884
2.80894
2.8089
2.80915
2.80895
2.80941
2.80928
2.80914
2.79692
2.79695
2.79695
2.79697
2.797
2.79702
2.79706
2.79708
2.79717
2.79714
2.79737
2.79721
2.79761
2.79752
2.79735
2.78516
2.7852
2.78519
2.78521
2.78523
2.78526
2.7853
2.78532
2.7854
2.78538
2.78559
2.78545
2.7858
2.78576
2.78555
2.7734
2.77343
2.77343
2.77345
2.77347
2.77349
2.77353
2.77355
2.77362
2.77361
2.7738
2.77369
2.77399
2.774
2.77376
2.76163
2.76167
2.76166
2.76168
2.7617
2.76172
2.76175
2.76177
2.76184
2.76183
2.76201
2.76192
2.76217
2.76222
2.76196
2.74986
2.74989
2.74989
2.7499
2.74992
2.74994
2.74998
2.74999
2.75006
2.75005
2.75021
2.75015
2.75036
2.75044
2.75015
2.73808
2.73811
2.73811
2.73813
2.73814
2.73816
2.73819
2.73821
2.73827
2.73827
2.73841
2.73837
2.73854
2.73865
2.73835
2.7263
2.72633
2.72633
2.72634
2.72636
2.72638
2.72641
2.72642
2.72648
2.72648
2.72661
2.72659
2.72672
2.72686
2.72654
2.71451
2.71455
2.71454
2.71456
2.71457
2.71459
2.71461
2.71463
2.71468
2.71469
2.7148
2.7148
2.7149
2.71507
2.71472
2.70272
2.70276
2.70275
2.70277
2.70278
2.70279
2.70282
2.70284
2.70288
2.70289
2.70299
2.70301
2.70308
2.70326
2.70291
2.69093
2.69096
2.69096
2.69097
2.69098
2.691
2.69102
2.69104
2.69108
2.69109
2.69118
2.69121
2.69125
2.69146
2.69109
2.67914
2.67917
2.67916
2.67917
2.67918
2.6792
2.67922
2.67924
2.67928
2.67929
2.67937
2.67941
2.67943
2.67965
2.67927
2.66734
2.66737
2.66736
2.66737
2.66738
2.6674
2.66742
2.66743
2.66747
2.66748
2.66755
2.6676
2.6676
2.66784
2.66745
2.65553
2.65557
2.65556
2.65557
2.65558
2.65559
2.65561
2.65562
2.65566
2.65567
2.65573
2.6558
2.65577
2.65602
2.65563
2.64373
2.64376
2.64375
2.64376
2.64377
2.64378
2.6438
2.64381
2.64384
2.64386
2.64391
2.64399
2.64394
2.6442
2.6438
2.63192
2.63195
2.63194
2.63195
2.63196
2.63197
2.63199
2.632
2.63203
2.63205
2.63209
2.63217
2.63211
2.63238
2.63198
2.62011
2.62014
2.62013
2.62014
2.62015
2.62016
2.62017
2.62019
2.62021
2.62023
2.62027
2.62036
2.62027
2.62055
2.62015
2.6083
2.60833
2.60832
2.60833
2.60834
2.60834
2.60836
2.60837
2.60839
2.60841
2.60844
2.60854
2.60844
2.60873
2.60832
2.59648
2.59652
2.5965
2.59651
2.59652
2.59653
2.59654
2.59655
2.59657
2.59659
2.59661
2.59672
2.59661
2.5969
2.59649
2.58467
2.5847
2.58469
2.5847
2.5847
2.58471
2.58472
2.58473
2.58475
2.58477
2.58479
2.5849
2.58477
2.58507
2.58466
2.57285
2.57288
2.57287
2.57288
2.57288
2.57289
2.5729
2.57291
2.57292
2.57295
2.57296
2.57307
2.57294
2.57324
2.57283
2.56103
2.56106
2.56105
2.56106
2.56106
2.56107
2.56107
2.56108
2.5611
2.56113
2.56113
2.56125
2.5611
2.5614
2.56099
2.54921
2.54924
2.54923
2.54924
2.54924
2.54924
2.54925
2.54926
2.54927
2.5493
2.54929
2.54942
2.54927
2.54957
2.54916
2.53739
2.53742
2.53741
2.53741
2.53741
2.53742
2.53742
2.53743
2.53744
2.53747
2.53746
2.5376
2.53743
2.53774
2.53733
2.52557
2.5256
2.52558
2.52559
2.52559
2.52559
2.5256
2.5256
2.52561
2.52564
2.52563
2.52577
2.52559
2.5259
2.5255
2.51374
2.51378
2.51376
2.51377
2.51376
2.51377
2.51377
2.51377
2.51378
2.51381
2.5138
2.51394
2.51376
2.51407
2.51367
2.50192
2.50195
2.50194
2.50194
2.50194
2.50194
2.50194
2.50194
2.50195
2.50198
2.50196
2.50211
2.50192
2.50223
2.50184
2.4901
2.49013
2.49011
2.49011
2.49011
2.49011
2.49011
2.49011
2.49012
2.49015
2.49013
2.49027
2.49009
2.4904
2.49001
2.47828
2.47831
2.47829
2.47829
2.47828
2.47828
2.47828
2.47828
2.47828
2.47832
2.47829
2.47844
2.47825
2.47856
2.47818
2.46645
2.46648
2.46646
2.46646
2.46646
2.46645
2.46645
2.46645
2.46645
2.46648
2.46645
2.46661
2.46642
2.46673
2.46636
2.45463
2.45466
2.45464
2.45464
2.45463
2.45462
2.45461
2.45461
2.45461
2.45464
2.45461
2.45477
2.45458
2.45489
2.45454
2.44281
2.44284
2.44282
2.44282
2.4428
2.44279
2.44278
2.44278
2.44277
2.4428
2.44277
2.44293
2.44275
2.44306
2.44273
2.431
2.43103
2.431
2.431
2.43098
2.43096
2.43095
2.43094
2.43093
2.43096
2.43093
2.43109
2.43091
2.43123
2.43092
2.41919
2.41921
2.41919
2.41918
2.41916
2.41914
2.41911
2.4191
2.41908
2.41911
2.41907
2.41925
2.41908
2.4194
2.41912
2.40738
2.4074
2.40738
2.40736
2.40734
2.40731
2.40728
2.40726
2.40723
2.40726
2.40722
2.40739
2.40723
2.40757
2.40733
2.39558
2.3956
2.39557
2.39555
2.39552
2.39548
2.39545
2.39542
2.39538
2.3954
2.39535
2.39553
2.39538
2.39574
2.39557
2.38378
2.3838
2.38377
2.38375
2.38371
2.38366
2.38362
2.38357
2.38353
2.38353
2.38347
2.38365
2.38352
2.3839
2.38383
2.372
2.37202
2.37198
2.37195
2.3719
2.37185
2.37179
2.37173
2.37167
2.37166
2.37158
2.37174
2.37162
2.37203
2.37211
2.36023
2.36024
2.3602
2.36016
2.36011
2.36004
2.35997
2.35989
2.3598
2.35977
2.35967
2.35981
2.3597
2.36015
2.3605
2.34846
2.34848
2.34843
2.34838
2.34832
2.34824
2.34815
2.34806
2.34794
2.34788
2.34774
2.34783
2.34771
2.34814
2.34875
2.33672
2.33673
2.33668
2.33662
2.33655
2.33646
2.33635
2.33623
2.33609
2.33598
2.3358
2.33581
2.33568
2.33617
2.33782
2.30191
2.30189
2.30184
2.30177
2.30166
2.30153
2.30137
2.30118
2.30095
2.30069
2.30036
2.29999
2.29944
2.29872
2.29585
2.24438
2.24436
2.2443
2.24419
2.24405
2.24387
2.24364
2.24336
2.24302
2.24262
2.24212
2.24151
2.24067
2.24049
2.24207
2.18769
2.18767
2.18761
2.18751
2.18739
2.18723
2.18704
2.18682
2.18656
2.18628
2.18599
2.18571
2.18513
2.1845
2.18577
2.13181
2.1318
2.13176
2.1317
2.13162
2.13152
2.13141
2.13128
2.13113
2.13098
2.13082
2.13073
2.13052
2.12991
2.12988
2.0764
2.0764
2.07637
2.07633
2.07627
2.0762
2.07612
2.07603
2.07592
2.07579
2.07562
2.07548
2.07537
2.07495
2.07377
2.02124
2.02124
2.02122
2.02118
2.02114
2.02108
2.02102
2.02094
2.02086
2.02076
2.02064
2.0205
2.02051
2.02052
2.01873
1.96631
1.9663
1.96629
1.96627
1.96624
1.9662
1.96616
1.96611
1.96605
1.966
1.96593
1.9658
1.96578
1.96593
1.96388
1.91156
1.91156
1.91155
1.91154
1.91152
1.9115
1.91147
1.91144
1.91141
1.91138
1.91134
1.91123
1.91122
1.9113
1.90914
1.85692
1.85692
1.85692
1.85691
1.8569
1.85688
1.85687
1.85685
1.85684
1.85682
1.8568
1.85673
1.85675
1.85665
1.85458
1.80234
1.80234
1.80233
1.80233
1.80232
1.80232
1.80231
1.8023
1.80229
1.80228
1.80227
1.80222
1.80232
1.80195
1.80008
1.74778
1.74778
1.74777
1.74777
1.74777
1.74777
1.74776
1.74776
1.74776
1.74775
1.74774
1.7477
1.74784
1.74719
1.74559
1.69324
1.69323
1.69323
1.69323
1.69323
1.69323
1.69323
1.69322
1.69322
1.69322
1.69321
1.69317
1.69333
1.69244
1.69109
1.6387
1.6387
1.6387
1.6387
1.6387
1.6387
1.63869
1.63869
1.63869
1.63869
1.63867
1.63866
1.63878
1.63773
1.63658
1.58417
1.58417
1.58417
1.58417
1.58417
1.58417
1.58417
1.58417
1.58417
1.58416
1.58414
1.58416
1.58417
1.58306
1.58206
1.52965
1.52965
1.52965
1.52965
1.52965
1.52964
1.52964
1.52964
1.52964
1.52962
1.5296
1.52965
1.5295
1.52842
1.52753
1.47514
1.47513
1.47513
1.47513
1.47513
1.47513
1.47512
1.47512
1.47512
1.4751
1.47508
1.47516
1.47484
1.47383
1.47297
1.42063
1.42063
1.42063
1.42063
1.42062
1.42062
1.42062
1.42061
1.42061
1.42059
1.42057
1.42067
1.42018
1.41927
1.41843
1.36613
1.36613
1.36613
1.36613
1.36613
1.36613
1.36612
1.36612
1.36611
1.36609
1.36609
1.36616
1.36555
1.36473
1.36391
1.31165
1.31165
1.31165
1.31164
1.31164
1.31164
1.31164
1.31163
1.31163
1.31161
1.31162
1.31163
1.31094
1.31019
1.3094
1.25717
1.25717
1.25717
1.25717
1.25716
1.25716
1.25716
1.25716
1.25715
1.25713
1.25716
1.25707
1.25636
1.25566
1.2549
1.20269
1.20269
1.20269
1.20269
1.20269
1.20269
1.20269
1.20268
1.20267
1.20265
1.20271
1.2025
1.2018
1.20113
1.20039
1.14823
1.14823
1.14823
1.14823
1.14822
1.14822
1.14822
1.14822
1.1482
1.14819
1.14825
1.14793
1.14727
1.14661
1.14589
1.09376
1.09376
1.09376
1.09376
1.09376
1.09376
1.09376
1.09376
1.09374
1.09374
1.09378
1.09336
1.09275
1.0921
1.09141
1.03931
1.03931
1.03931
1.03931
1.03931
1.03931
1.0393
1.0393
1.03928
1.0393
1.03928
1.03881
1.03823
1.0376
1.03692
0.984854
0.984855
0.984855
0.984855
0.984854
0.984853
0.984851
0.984843
0.98483
0.984861
0.984777
0.984272
0.983718
0.983097
0.982439
0.930405
0.930406
0.930406
0.930406
0.930406
0.930405
0.930402
0.930393
0.930384
0.930424
0.930258
0.92975
0.929207
0.928598
0.927959
0.875959
0.87596
0.87596
0.87596
0.87596
0.875959
0.875956
0.875946
0.875944
0.875979
0.875734
0.875237
0.874701
0.874104
0.873484
0.821516
0.821516
0.821516
0.821516
0.821516
0.821516
0.821512
0.821501
0.821509
0.821521
0.821209
0.820729
0.820198
0.819613
0.81901
0.767073
0.767073
0.767074
0.767074
0.767074
0.767073
0.767068
0.767059
0.767077
0.767046
0.766687
0.766222
0.765695
0.765122
0.764536
0.712631
0.712631
0.712631
0.712631
0.712632
0.712631
0.712625
0.712617
0.712644
0.712556
0.712171
0.711713
0.711193
0.710631
0.710059
0.658188
0.658188
0.658189
0.658189
0.658189
0.658187
0.65818
0.658178
0.658205
0.658055
0.657659
0.657204
0.656689
0.656138
0.655582
0.603746
0.603746
0.603746
0.603746
0.603746
0.603744
0.603737
0.603741
0.603756
0.603547
0.60315
0.602695
0.602184
0.601645
0.601102
0.549303
0.549303
0.549303
0.549303
0.549303
0.5493
0.549292
0.549304
0.549292
0.549032
0.548637
0.548184
0.547681
0.547152
0.546622
0.494859
0.494859
0.494859
0.494859
0.494858
0.494854
0.494848
0.494865
0.494813
0.494517
0.494123
0.493672
0.493175
0.492657
0.49214
0.440416
0.440416
0.440416
0.440416
0.440414
0.440409
0.440406
0.440425
0.440325
0.440006
0.439612
0.439159
0.438668
0.43816
0.437655
0.385973
0.385973
0.385973
0.385973
0.385971
0.385965
0.385967
0.385978
0.385828
0.385496
0.385099
0.384647
0.384161
0.383663
0.383169
0.331532
0.331531
0.331531
0.331531
0.331528
0.331522
0.33153
0.331522
0.331325
0.330987
0.330586
0.330136
0.329656
0.329167
0.328684
0.277091
0.27709
0.27709
0.27709
0.277086
0.277081
0.277093
0.277055
0.276821
0.276476
0.276073
0.275624
0.275151
0.274672
0.274198
0.222652
0.222651
0.222651
0.22265
0.222645
0.222643
0.222655
0.22258
0.222316
0.221966
0.22156
0.221114
0.220647
0.220176
0.219713
0.168214
0.168213
0.168213
0.168211
0.168206
0.168208
0.168213
0.168096
0.167812
0.167456
0.167048
0.166605
0.166145
0.165682
0.165228
0.113778
0.113777
0.113777
0.113775
0.11377
0.113775
0.113766
0.113607
0.11331
0.112948
0.112537
0.112096
0.111643
0.111189
0.110744
0.0593439
0.0593426
0.0593425
0.0593397
0.0593364
0.0593439
0.0593101
0.0591134
0.0588054
0.0584377
0.0580269
0.0575901
0.0571426
0.0566965
0.0562606
0.00491162
0.00491001
0.00490964
0.00490639
0.00490489
0.00491137
0.00484508
0.00461743
0.00429936
0.00392679
0.00351667
0.00308475
0.00264391
0.00220542
0.00177791
-0.0495183
-0.0495202
-0.0495209
-0.0495243
-0.0495233
-0.0495238
-0.0496272
-0.0498782
-0.050205
-0.0505818
-0.0509924
-0.0514212
-0.0518556
-0.0522861
-0.0527052
-0.103945
-0.103948
-0.103949
-0.103951
-0.103948
-0.103963
-0.104105
-0.104374
-0.104709
-0.10509
-0.105501
-0.105926
-0.106354
-0.106777
-0.107188
-0.15837
-0.158373
-0.158374
-0.158376
-0.158372
-0.158411
-0.158588
-0.158872
-0.159215
-0.159599
-0.160009
-0.16043
-0.160852
-0.161268
-0.161672
-0.212792
-0.212796
-0.212797
-0.212798
-0.212797
-0.212866
-0.213074
-0.213372
-0.213722
-0.214109
-0.214517
-0.214934
-0.21535
-0.215759
-0.216155
-0.267211
-0.267216
-0.267217
-0.267217
-0.267226
-0.26733
-0.267564
-0.267874
-0.268231
-0.268619
-0.269025
-0.269438
-0.269848
-0.270251
-0.27064
-0.321627
-0.321634
-0.321635
-0.321634
-0.32166
-0.321801
-0.322056
-0.322377
-0.32274
-0.32313
-0.323535
-0.323943
-0.324347
-0.324743
-0.325126
-0.37604
-0.376049
-0.376049
-0.376051
-0.376102
-0.376277
-0.376551
-0.376882
-0.377251
-0.377642
-0.378045
-0.378449
-0.378848
-0.379237
-0.379613
-0.43045
-0.430461
-0.43046
-0.430471
-0.430554
-0.430761
-0.431052
-0.431393
-0.431766
-0.432156
-0.432555
-0.432954
-0.433348
-0.433732
-0.434102
-0.484856
-0.484869
-0.48487
-0.484895
-0.485015
-0.48525
-0.485556
-0.485905
-0.486281
-0.486672
-0.487068
-0.487463
-0.487852
-0.488229
-0.488593
-0.539256
-0.539273
-0.539277
-0.539326
-0.539483
-0.539742
-0.540062
-0.540419
-0.540798
-0.541189
-0.541584
-0.541975
-0.542358
-0.54273
-0.543088
-0.593648
-0.593672
-0.593686
-0.593765
-0.593959
-0.59424
-0.594572
-0.594936
-0.595319
-0.59571
-0.596101
-0.596488
-0.596866
-0.597233
-0.597586
-0.648034
-0.648068
-0.648098
-0.648215
-0.648442
-0.648743
-0.649087
-0.649458
-0.649842
-0.650232
-0.650621
-0.651005
-0.651378
-0.65174
-0.652087
-0.702411
-0.702462
-0.702516
-0.702674
-0.702932
-0.703251
-0.703606
-0.703982
-0.704369
-0.704759
-0.705146
-0.705525
-0.705894
-0.706251
-0.706593
-0.75678
-0.756857
-0.756943
-0.757142
-0.757428
-0.757764
-0.75813
-0.758511
-0.758901
-0.75929
-0.759674
-0.76005
-0.760415
-0.760766
-0.761104
-0.811144
-0.811257
-0.811382
-0.81162
-0.811933
-0.812286
-0.812661
-0.813048
-0.813437
-0.813824
-0.814206
-0.814579
-0.81494
-0.815287
-0.81562
-0.865508
-0.865668
-0.865833
-0.866108
-0.866445
-0.866812
-0.867196
-0.867586
-0.867977
-0.868364
-0.868743
-0.869113
-0.86947
-0.869813
-0.870142
-0.919879
-0.920094
-0.920297
-0.920604
-0.920962
-0.921343
-0.921735
-0.92213
-0.922523
-0.92291
-0.923288
-0.923654
-0.924007
-0.924347
-0.924671
-0.974269
-0.97454
-0.974775
-0.975111
-0.975488
-0.975882
-0.976281
-0.97668
-0.977074
-0.977461
-0.977837
-0.978201
-0.978551
-0.978887
-0.979207
-1.02869
-1.02901
-1.02927
-1.02963
-1.03002
-1.03043
-1.03083
-1.03124
-1.03163
-1.03202
-1.03239
-1.03275
-1.0331
-1.03344
-1.03375
-1.08315
-1.08352
-1.08379
-1.08416
-1.08457
-1.08498
-1.0854
-1.0858
-1.0862
-1.08659
-1.08696
-1.08732
-1.08766
-1.08799
-1.0883
-1.13765
-1.13806
-1.13834
-1.13872
-1.13913
-1.13956
-1.13997
-1.14038
-1.14077
-1.14116
-1.14153
-1.14189
-1.14223
-1.14256
-1.14287
-1.1922
-1.19263
-1.19291
-1.19329
-1.19371
-1.19414
-1.19456
-1.19496
-1.19536
-1.19575
-1.19612
-1.19647
-1.19681
-1.19713
-1.19744
-1.24679
-1.24725
-1.24751
-1.24789
-1.24831
-1.24873
-1.24915
-1.24956
-1.24996
-1.25034
-1.25071
-1.25106
-1.2514
-1.25172
-1.25202
-1.30142
-1.3019
-1.30215
-1.30251
-1.30293
-1.30335
-1.30377
-1.30417
-1.30457
-1.30495
-1.30532
-1.30567
-1.306
-1.30632
-1.30662
-1.3561
-1.35659
-1.35682
-1.35717
-1.35757
-1.35799
-1.3584
-1.3588
-1.3592
-1.35958
-1.35994
-1.36029
-1.36062
-1.36093
-1.36123
-1.41082
-1.41131
-1.41152
-1.41185
-1.41224
-1.41265
-1.41305
-1.41345
-1.41384
-1.41422
-1.41457
-1.41492
-1.41525
-1.41556
-1.41585
-1.46557
-1.46606
-1.46625
-1.46656
-1.46693
-1.46733
-1.46773
-1.46812
-1.4685
-1.46887
-1.46923
-1.46957
-1.46989
-1.4702
-1.47049
-1.52035
-1.52085
-1.52102
-1.52131
-1.52166
-1.52204
-1.52243
-1.52281
-1.52318
-1.52355
-1.5239
-1.52423
-1.52455
-1.52486
-1.52515
-1.57517
-1.57566
-1.57582
-1.57608
-1.57642
-1.57678
-1.57715
-1.57752
-1.57789
-1.57824
-1.57859
-1.57892
-1.57923
-1.57953
-1.57982
-1.63001
-1.6305
-1.63064
-1.63088
-1.6312
-1.63154
-1.6319
-1.63226
-1.63262
-1.63296
-1.6333
-1.63362
-1.63393
-1.63423
-1.63451
-1.68488
-1.68537
-1.68549
-1.68571
-1.68601
-1.68634
-1.68668
-1.68702
-1.68737
-1.6877
-1.68803
-1.68835
-1.68865
-1.68894
-1.68921
-1.73978
-1.74026
-1.74037
-1.74057
-1.74085
-1.74115
-1.74148
-1.74181
-1.74214
-1.74247
-1.74279
-1.7431
-1.74339
-1.74367
-1.74394
-1.7947
-1.79518
-1.79527
-1.79546
-1.79571
-1.796
-1.79631
-1.79663
-1.79694
-1.79726
-1.79757
-1.79787
-1.79815
-1.79843
-1.79869
-1.84965
-1.85012
-1.8502
-1.85037
-1.8506
-1.85088
-1.85117
-1.85147
-1.85177
-1.85207
-1.85237
-1.85266
-1.85294
-1.85321
-1.85347
-1.90461
-1.90508
-1.90515
-1.9053
-1.90552
-1.90578
-1.90605
-1.90633
-1.90662
-1.90691
-1.9072
-1.90748
-1.90775
-1.90801
-1.90826
-1.9596
-1.96007
-1.96012
-1.96026
-1.96047
-1.9607
-1.96096
-1.96123
-1.9615
-1.96178
-1.96205
-1.96232
-1.96258
-1.96284
-1.96308
-2.01462
-2.01508
-2.01512
-2.01525
-2.01544
-2.01566
-2.0159
-2.01615
-2.01641
-2.01667
-2.01693
-2.01719
-2.01744
-2.01769
-2.01792
-2.06966
-2.0701
-2.07014
-2.07025
-2.07043
-2.07063
-2.07086
-2.07109
-2.07134
-2.07159
-2.07184
-2.07209
-2.07233
-2.07256
-2.07279
-2.12471
-2.12515
-2.12518
-2.12528
-2.12544
-2.12563
-2.12584
-2.12607
-2.1263
-2.12653
-2.12677
-2.12701
-2.12724
-2.12747
-2.12768
-2.17979
-2.18022
-2.18024
-2.18034
-2.18048
-2.18066
-2.18085
-2.18106
-2.18128
-2.1815
-2.18173
-2.18195
-2.18218
-2.18239
-2.1826
-2.23488
-2.23531
-2.23533
-2.23541
-2.23555
-2.23571
-2.23589
-2.23608
-2.23629
-2.2365
-2.23671
-2.23693
-2.23714
-2.23734
-2.23754
-2.29
-2.29042
-2.29043
-2.2905
-2.29063
-2.29078
-2.29095
-2.29113
-2.29132
-2.29152
-2.29172
-2.29192
-2.29212
-2.29232
-2.29251
-2.34514
-2.34554
-2.34555
-2.34562
-2.34573
-2.34587
-2.34603
-2.3462
-2.34638
-2.34656
-2.34675
-2.34694
-2.34713
-2.34732
-2.3475
-2.40029
-2.40069
-2.40069
-2.40075
-2.40086
-2.40099
-2.40113
-2.40129
-2.40146
-2.40163
-2.40181
-2.40199
-2.40217
-2.40234
-2.40252
-2.45546
-2.45585
-2.45585
-2.45591
-2.456
-2.45612
-2.45626
-2.4564
-2.45656
-2.45672
-2.45689
-2.45706
-2.45722
-2.45739
-2.45756
-2.51066
-2.51103
-2.51103
-2.51108
-2.51117
-2.51128
-2.5114
-2.51154
-2.51168
-2.51183
-2.51199
-2.51215
-2.51231
-2.51246
-2.51262
-2.56586
-2.56623
-2.56623
-2.56627
-2.56635
-2.56645
-2.56656
-2.56669
-2.56682
-2.56696
-2.56711
-2.56726
-2.56741
-2.56756
-2.5677
-2.62109
-2.62145
-2.62144
-2.62147
-2.62155
-2.62164
-2.62175
-2.62186
-2.62199
-2.62212
-2.62225
-2.62239
-2.62253
-2.62267
-2.62281
-2.67633
-2.67668
-2.67666
-2.67669
-2.67676
-2.67685
-2.67695
-2.67705
-2.67717
-2.67729
-2.67742
-2.67755
-2.67768
-2.67781
-2.67794
-2.73158
-2.73192
-2.7319
-2.73193
-2.73199
-2.73207
-2.73216
-2.73226
-2.73237
-2.73248
-2.7326
-2.73272
-2.73284
-2.73297
-2.73309
-2.78685
-2.78718
-2.78716
-2.78718
-2.78724
-2.78731
-2.78739
-2.78748
-2.78758
-2.78769
-2.7878
-2.78791
-2.78802
-2.78814
-2.78825
-2.84213
-2.84245
-2.84243
-2.84245
-2.8425
-2.84257
-2.84264
-2.84272
-2.84281
-2.84291
-2.84301
-2.84312
-2.84322
-2.84333
-2.84344
-2.89742
-2.89773
-2.89771
-2.89772
-2.89777
-2.89783
-2.8979
-2.89798
-2.89806
-2.89815
-2.89824
-2.89834
-2.89844
-2.89854
-2.89864
-2.95272
-2.95302
-2.953
-2.95301
-2.95305
-2.95311
-2.95317
-2.95324
-2.95332
-2.9534
-2.95349
-2.95358
-2.95367
-2.95376
-2.95386
-3.00803
-3.00832
-3.0083
-3.00831
-3.00835
-3.0084
-3.00845
-3.00852
-3.00859
-3.00867
-3.00875
-3.00883
-3.00891
-3.009
-3.00909
-3.06335
-3.06363
-3.06361
-3.06361
-3.06365
-3.06369
-3.06375
-3.06381
-3.06387
-3.06394
-3.06401
-3.06409
-3.06417
-3.06425
-3.06433
-3.11868
-3.11894
-3.11892
-3.11893
-3.11896
-3.119
-3.11905
-3.1191
-3.11916
-3.11922
-3.11929
-3.11936
-3.11944
-3.11951
-3.11959
-3.17401
-3.17427
-3.17424
-3.17425
-3.17427
-3.17431
-3.17436
-3.17441
-3.17446
-3.17452
-3.17458
-3.17465
-3.17471
-3.17478
-3.17485
-3.22934
-3.22959
-3.22957
-3.22957
-3.2296
-3.22963
-3.22967
-3.22971
-3.22976
-3.22982
-3.22988
-3.22994
-3.23
-3.23006
-3.23013
-3.28468
-3.28492
-3.2849
-3.2849
-3.28492
-3.28495
-3.28499
-3.28503
-3.28507
-3.28512
-3.28518
-3.28523
-3.28529
-3.28535
-3.28541
-3.34002
-3.34025
-3.34023
-3.34023
-3.34025
-3.34028
-3.34031
-3.34035
-3.34039
-3.34043
-3.34048
-3.34053
-3.34059
-3.34064
-3.3407
-3.39536
-3.39559
-3.39556
-3.39556
-3.39558
-3.3956
-3.39563
-3.39567
-3.39571
-3.39575
-3.39579
-3.39584
-3.39589
-3.39594
-3.396
-3.4507
-3.45092
-3.45089
-3.45089
-3.4509
-3.45093
-3.45096
-3.45099
-3.45102
-3.45106
-3.4511
-3.45115
-3.45119
-3.45124
-3.45129
-3.50604
-3.50624
-3.50622
-3.50622
-3.50623
-3.50625
-3.50628
-3.50631
-3.50634
-3.50637
-3.50641
-3.50645
-3.5065
-3.50654
-3.50659
-3.56137
-3.56157
-3.56154
-3.56154
-3.56155
-3.56157
-3.56159
-3.56162
-3.56165
-3.56168
-3.56172
-3.56176
-3.5618
-3.56185
-3.56189
-3.61669
-3.61688
-3.61686
-3.61685
-3.61686
-3.61688
-3.6169
-3.61693
-3.61696
-3.61699
-3.61702
-3.61706
-3.6171
-3.61714
-3.61719
-3.672
-3.67218
-3.67216
-3.67216
-3.67217
-3.67219
-3.67221
-3.67223
-3.67226
-3.67229
-3.67232
-3.67236
-3.6724
-3.67244
-3.67248
-3.7273
-3.72748
-3.72745
-3.72745
-3.72746
-3.72748
-3.7275
-3.72752
-3.72755
-3.72758
-3.72761
-3.72764
-3.72768
-3.72772
-3.72776
-3.78258
-3.78275
-3.78273
-3.78273
-3.78274
-3.78276
-3.78277
-3.7828
-3.78282
-3.78285
-3.78288
-3.78292
-3.78296
-3.783
-3.78304
-3.83784
-3.83801
-3.83799
-3.83799
-3.838
-3.83801
-3.83803
-3.83806
-3.83808
-3.83811
-3.83814
-3.83818
-3.83822
-3.83826
-3.8383
-3.89308
-3.89324
-3.89323
-3.89322
-3.89323
-3.89325
-3.89327
-3.89329
-3.89332
-3.89335
-3.89338
-3.89342
-3.89346
-3.8935
-3.89355
-3.94829
-3.94845
-3.94843
-3.94843
-3.94844
-3.94846
-3.94848
-3.94851
-3.94853
-3.94856
-3.9486
-3.94864
-3.94868
-3.94872
-3.94877
-4.00346
-4.00362
-4.00361
-4.00361
-4.00362
-4.00364
-4.00366
-4.00369
-4.00372
-4.00375
-4.00378
-4.00382
-4.00387
-4.00391
-4.00397
-4.05859
-4.05875
-4.05874
-4.05874
-4.05876
-4.05878
-4.0588
-4.05883
-4.05886
-4.0589
-4.05893
-4.05898
-4.05902
-4.05908
-4.05913
-4.11368
-4.11384
-4.11382
-4.11383
-4.11385
-4.11387
-4.1139
-4.11393
-4.11396
-4.114
-4.11404
-4.11409
-4.11414
-4.1142
-4.11426
-4.1687
-4.16886
-4.16885
-4.16886
-4.16888
-4.16891
-4.16894
-4.16897
-4.16901
-4.16905
-4.1691
-4.16915
-4.16921
-4.16927
-4.16934
-4.22365
-4.22382
-4.22382
-4.22383
-4.22385
-4.22388
-4.22391
-4.22395
-4.224
-4.22405
-4.2241
-4.22416
-4.22422
-4.22429
-4.22436
-4.27853
-4.2787
-4.2787
-4.27872
-4.27874
-4.27878
-4.27882
-4.27886
-4.27891
-4.27897
-4.27903
-4.27909
-4.27916
-4.27924
-4.27932
-4.33331
-4.33349
-4.3335
-4.33351
-4.33355
-4.33359
-4.33363
-4.33368
-4.33374
-4.3338
-4.33387
-4.33394
-4.33402
-4.33411
-4.33421
-4.38798
-4.38818
-4.38818
-4.38821
-4.38825
-4.38829
-4.38835
-4.3884
-4.38847
-4.38854
-4.38862
-4.3887
-4.38879
-4.38889
-4.389
-4.44252
-4.44274
-4.44275
-4.44278
-4.44282
-4.44288
-4.44294
-4.44301
-4.44308
-4.44316
-4.44325
-4.44335
-4.44345
-4.44356
-4.44368
-4.49692
-4.49716
-4.49717
-4.49721
-4.49726
-4.49733
-4.4974
-4.49748
-4.49756
-4.49766
-4.49776
-4.49787
-4.49798
-4.49811
-4.49825
-4.55115
-4.55141
-4.55143
-4.55147
-4.55154
-4.55161
-4.5517
-4.55179
-4.55188
-4.55199
-4.55211
-4.55223
-4.55237
-4.55251
-4.55267
-4.60518
-4.60547
-4.6055
-4.60556
-4.60563
-4.60572
-4.60581
-4.60592
-4.60603
-4.60616
-4.60629
-4.60643
-4.60659
-4.60675
-4.60692
-4.65899
-4.65932
-4.65936
-4.65942
-4.65951
-4.65962
-4.65973
-4.65985
-4.65998
-4.66012
-4.66027
-4.66044
-4.66061
-4.6608
-4.66099
-4.71255
-4.71292
-4.71298
-4.71305
-4.71316
-4.71328
-4.7134
-4.71354
-4.7137
-4.71386
-4.71404
-4.71422
-4.71442
-4.71463
-4.71485
-4.76582
-4.76625
-4.76632
-4.76641
-4.76653
-4.76667
-4.76682
-4.76698
-4.76716
-4.76734
-4.76755
-4.76776
-4.76798
-4.76822
-4.76847
-4.81878
-4.81927
-4.81935
-4.81946
-4.81961
-4.81977
-4.81994
-4.82013
-4.82033
-4.82055
-4.82078
-4.82102
-4.82128
-4.82155
-4.82183
-4.87138
-4.87196
-4.87206
-4.87218
-4.87235
-4.87254
-4.87274
-4.87296
-4.87319
-4.87344
-4.8737
-4.87398
-4.87427
-4.87458
-4.87491
-4.9236
-4.92428
-4.92439
-4.92454
-4.92474
-4.92496
-4.9252
-4.92545
-4.92572
-4.926
-4.92631
-4.92662
-4.92696
-4.92731
-4.92767
-4.97543
-4.97623
-4.97637
-4.97654
-4.97677
-4.97703
-4.9773
-4.97759
-4.9779
-4.97823
-4.97857
-4.97893
-4.97931
-4.9797
-4.98011
-5.02689
-5.02782
-5.02798
-5.02817
-5.02844
-5.02873
-5.02904
-5.02937
-5.02972
-5.03009
-5.03048
-5.03089
-5.03131
-5.03176
-5.03222
-5.07799
-5.07906
-5.07922
-5.07944
-5.07973
-5.08006
-5.08042
-5.08079
-5.08119
-5.08161
-5.08206
-5.08252
-5.08301
-5.08352
-5.08404
-5.12887
-5.13008
-5.13023
-5.13045
-5.13078
-5.13115
-5.13154
-5.13197
-5.13242
-5.13291
-5.13342
-5.13395
-5.13451
-5.13509
-5.13569
-5.17991
-5.18123
-5.18133
-5.18155
-5.18188
-5.18228
-5.18271
-5.18318
-5.18368
-5.18422
-5.1848
-5.18539
-5.18602
-5.18666
-5.18731
-5.23149
-5.23286
-5.23289
-5.23307
-5.23339
-5.23378
-5.23422
-5.23471
-5.23524
-5.23581
-5.23642
-5.23705
-5.23771
-5.2384
-5.23908
-5.28378
-5.28516
-5.28512
-5.28523
-5.28551
-5.28587
-5.28629
-5.28676
-5.28729
-5.28785
-5.28845
-5.28909
-5.28975
-5.29042
-5.2911
-5.33679
-5.33815
-5.33803
-5.33808
-5.3383
-5.33861
-5.33898
-5.33941
-5.33989
-5.34041
-5.34097
-5.34157
-5.34219
-5.34283
-5.34346
-5.39034
-5.39167
-5.39149
-5.39149
-5.39165
-5.3919
-5.39221
-5.39257
-5.39299
-5.39344
-5.39394
-5.39447
-5.39502
-5.39559
-5.39616
-5.44423
-5.44549
-5.44529
-5.44525
-5.44537
-5.44556
-5.44581
-5.44611
-5.44645
-5.44683
-5.44725
-5.4477
-5.44817
-5.44866
-5.44915
-5.49826
-5.49947
-5.49926
-5.49921
-5.49929
-5.49944
-5.49963
-5.49987
-5.50015
-5.50046
-5.5008
-5.50117
-5.50157
-5.50197
-5.50239
-5.55242
-5.55354
-5.55335
-5.55329
-5.55334
-5.55346
-5.55361
-5.5538
-5.55402
-5.55427
-5.55455
-5.55485
-5.55517
-5.55551
-5.55585
-5.60663
-5.60767
-5.60749
-5.60743
-5.60747
-5.60756
-5.60768
-5.60783
-5.608
-5.6082
-5.60842
-5.60866
-5.60892
-5.60918
-5.60946
-5.6608
-5.66175
-5.66161
-5.66155
-5.66159
-5.66166
-5.66175
-5.66186
-5.662
-5.66215
-5.66232
-5.66251
-5.66271
-5.66292
-5.66314
-5.71494
-5.71581
-5.71569
-5.71564
-5.71567
-5.71573
-5.7158
-5.71589
-5.716
-5.71612
-5.71625
-5.7164
-5.71656
-5.71672
-5.71689
-5.76909
-5.76988
-5.76978
-5.76974
-5.76977
-5.76981
-5.76987
-5.76994
-5.77002
-5.77012
-5.77022
-5.77034
-5.77046
-5.77059