/*--------------------------------*- C++ -*----------------------------------*\
  =========                 |
  \\      /  F ield         | OpenFOAM: The Open Source CFD Toolbox
   \\    /   O peration     | Website:  https://openfoam.org
    \\  /    A nd           | Version:  7
     \\/     M anipulation  |
\*---------------------------------------------------------------------------*/
FoamFile
{
    version     2.0;
    format      ascii;
    class       surfaceScalarField;
    location    "300";
    object      phi;
}
// * * * * * * * * * * * * * * * * * * * * * * * * * * * * * * * * * * * * * //

dimensions      [0 3 -1 0 0 0 0];

internalField   nonuniform List<scalar> 
63695
(
-7.61998e-13
1.94049e-07
-2.89778e-12
5.82146e-07
-6.25925e-12
9.70243e-07
-1.02443e-11
1.35834e-06
-1.38268e-11
1.74644e-06
-1.49601e-11
2.13453e-06
-9.45554e-12
2.52262e-06
1.16025e-11
2.9107e-06
7.16617e-11
3.29876e-06
2.39202e-10
3.68674e-06
5.87787e-10
4.07466e-06
2.02444e-09
4.46167e-06
1.80947e-08
4.83513e-06
2.54446e-08
5.23195e-06
5.65284e-06
-2.25367e-12
1.94051e-07
-8.71305e-12
5.82153e-07
-1.87092e-11
9.70253e-07
-3.0548e-11
1.35835e-06
-4.1055e-11
1.74645e-06
-4.39329e-11
2.13453e-06
-2.61822e-11
2.5226e-06
4.02912e-11
2.91063e-06
2.18802e-10
3.29858e-06
6.99938e-10
3.68626e-06
2.04796e-09
4.07331e-06
3.93505e-09
4.45978e-06
1.40185e-08
4.82505e-06
2.67606e-08
5.2192e-06
5.6796e-06
-3.80829e-12
1.94055e-07
-1.47937e-11
5.82164e-07
-3.18847e-11
9.7027e-07
-5.25178e-11
1.35837e-06
-7.19052e-11
1.74647e-06
-8.08002e-11
2.13454e-06
-6.09373e-11
2.52258e-06
2.57135e-11
2.91055e-06
2.53292e-10
3.29835e-06
7.59711e-10
3.68576e-06
2.20805e-09
4.07186e-06
3.72767e-09
4.45826e-06
8.48315e-09
4.82029e-06
1.90328e-08
5.20865e-06
5.69863e-06
-5.47141e-12
1.9406e-07
-2.1364e-11
5.82179e-07
-4.63673e-11
9.70295e-07
-7.74672e-11
1.3584e-06
-1.0917e-10
1.7465e-06
-1.31331e-10
2.13456e-06
-1.25486e-10
2.52258e-06
-5.64818e-11
2.91048e-06
1.42894e-10
3.29815e-06
5.01107e-10
3.6854e-06
1.63248e-09
4.07073e-06
3.01903e-09
4.45687e-06
4.12337e-09
4.81919e-06
1.1327e-08
5.20145e-06
5.70996e-06
-7.26848e-12
1.94068e-07
-2.85442e-11
5.82201e-07
-6.2467e-11
9.70329e-07
-1.06021e-10
1.35845e-06
-1.53919e-10
1.74655e-06
-1.96886e-10
2.13461e-06
-2.19418e-10
2.5226e-06
-1.96394e-10
2.91045e-06
-6.66427e-11
3.29802e-06
1.32969e-10
3.6852e-06
8.59104e-10
4.07001e-06
2.08903e-09
4.45564e-06
1.03344e-09
4.82024e-06
4.77679e-09
5.19771e-06
5.71473e-06
-9.20736e-12
1.94077e-07
-3.63477e-11
5.82228e-07
-8.01836e-11
9.70373e-07
-1.38043e-10
1.3585e-06
-2.05458e-10
1.74661e-06
-2.74975e-10
2.13468e-06
-3.34628e-10
2.52266e-06
-3.70366e-10
2.91049e-06
-3.26954e-10
3.29798e-06
-2.57512e-10
3.68513e-06
7.93859e-11
4.06967e-06
1.01823e-09
4.45471e-06
-1.00137e-09
4.82226e-06
-5.46889e-10
5.19725e-06
5.71419e-06
-1.12771e-11
1.94088e-07
-4.4707e-11
5.82261e-07
-9.92961e-11
9.70428e-07
-1.72925e-10
1.35858e-06
-2.62221e-10
1.7467e-06
-3.61908e-10
2.13478e-06
-4.63156e-10
2.52276e-06
-5.61329e-10
2.91059e-06
-6.12108e-10
3.29803e-06
-6.56112e-10
3.68517e-06
-6.3914e-10
4.06965e-06
-2.61609e-11
4.45409e-06
-2.32532e-09
4.82456e-06
-4.62019e-09
5.19955e-06
5.70957e-06
-1.34513e-11
1.94102e-07
-5.35038e-11
5.82301e-07
-1.19471e-10
9.70494e-07
-2.09883e-10
1.35867e-06
-3.22529e-10
1.74681e-06
-4.54354e-10
2.13491e-06
-5.99314e-10
2.5229e-06
-7.59408e-10
2.91075e-06
-9.04625e-10
3.29817e-06
-1.05008e-09
3.68532e-06
-1.2649e-09
4.06987e-06
-9.47849e-10
4.45378e-06
-3.31957e-09
4.82693e-06
-7.5096e-09
5.20374e-06
5.70206e-06
-1.56968e-11
1.94117e-07
-6.25938e-11
5.82348e-07
-1.40333e-10
9.70572e-07
-2.48114e-10
1.35878e-06
-3.84827e-10
1.74695e-06
-5.49452e-10
2.13507e-06
-7.38448e-10
2.52309e-06
-9.57319e-10
2.91097e-06
-1.18989e-09
3.29841e-06
-1.42454e-09
3.68555e-06
-1.80095e-09
4.07024e-06
-1.74115e-09
4.45372e-06
-4.13839e-09
4.82933e-06
-9.51682e-09
5.20912e-06
5.69254e-06
-1.79784e-11
1.94135e-07
-7.18282e-11
5.82402e-07
-1.61506e-10
9.70661e-07
-2.86844e-10
1.3589e-06
-4.47698e-10
1.74711e-06
-6.44709e-10
2.13527e-06
-8.76489e-10
2.52332e-06
-1.14948e-09
2.91124e-06
-1.45883e-09
3.29872e-06
-1.77141e-09
3.68587e-06
-2.26277e-09
4.07073e-06
-2.42415e-09
4.45388e-06
-4.82447e-09
4.83173e-06
-1.09396e-08
5.21523e-06
5.6816e-06
-2.02626e-11
1.94155e-07
-8.10633e-11
5.82463e-07
-1.8264e-10
9.70763e-07
-3.25378e-10
1.35904e-06
-5.09921e-10
1.7473e-06
-7.38123e-10
2.1355e-06
-1.01035e-09
2.5236e-06
-1.33237e-09
2.91156e-06
-1.70774e-09
3.29909e-06
-2.08845e-09
3.68625e-06
-2.66354e-09
4.07131e-06
-3.01455e-09
4.45423e-06
-5.40228e-09
4.83412e-06
-1.19641e-08
5.22179e-06
5.66964e-06
-2.25183e-11
1.94178e-07
-9.01728e-11
5.82531e-07
-2.03434e-10
9.70876e-07
-3.63135e-10
1.3592e-06
-5.70533e-10
1.7475e-06
-8.28262e-10
2.13575e-06
-1.13806e-09
2.52391e-06
-1.50417e-09
2.91193e-06
-1.93578e-09
3.29952e-06
-2.37602e-09
3.68669e-06
-3.01315e-09
4.07195e-06
-3.5273e-09
4.45474e-06
-5.89567e-09
4.83649e-06
-1.27009e-08
5.2286e-06
5.65694e-06
-2.47203e-11
1.94203e-07
-9.90504e-11
5.82605e-07
-2.23641e-10
9.71001e-07
-3.99669e-10
1.35938e-06
-6.28834e-10
1.74773e-06
-9.14193e-10
2.13604e-06
-1.25847e-09
2.52425e-06
-1.66405e-09
2.91233e-06
-2.14337e-09
3.3e-06
-2.63577e-09
3.68718e-06
-3.32025e-09
4.07263e-06
-3.97535e-09
4.4554e-06
-6.32451e-09
4.83884e-06
-1.32275e-08
5.2355e-06
5.64371e-06
-2.68475e-11
1.9423e-07
-1.07615e-10
5.82686e-07
-2.43082e-10
9.71136e-07
-4.34662e-10
1.35957e-06
-6.84355e-10
1.74798e-06
-9.9536e-10
2.13635e-06
-1.37103e-09
2.52463e-06
-1.81187e-09
2.91277e-06
-2.33167e-09
3.30052e-06
-2.87012e-09
3.68772e-06
-3.59255e-09
4.07335e-06
-4.36965e-09
4.45617e-06
-6.70287e-09
4.84117e-06
-1.36024e-08
5.2424e-06
5.63011e-06
-2.88858e-11
1.94258e-07
-1.15807e-10
5.82773e-07
-2.61626e-10
9.71282e-07
-4.67904e-10
1.35978e-06
-7.36813e-10
1.74825e-06
-1.07149e-09
2.13669e-06
-1.47561e-09
2.52503e-06
-1.94794e-09
2.91325e-06
-2.50227e-09
3.30108e-06
-3.08175e-09
3.6883e-06
-3.83639e-09
4.07411e-06
-4.7192e-09
4.45706e-06
-7.0405e-09
4.84349e-06
-1.38681e-08
5.24923e-06
5.61624e-06
-3.08243e-11
1.94289e-07
-1.23588e-10
5.82865e-07
-2.79195e-10
9.71438e-07
-4.99278e-10
1.36e-06
-7.86077e-10
1.74854e-06
-1.14252e-09
2.13704e-06
-1.57236e-09
2.52546e-06
-2.07291e-09
2.91375e-06
-2.65698e-09
3.30166e-06
-3.27333e-09
3.68891e-06
-4.05683e-09
4.07489e-06
-5.03137e-09
4.45803e-06
-7.34448e-09
4.8458e-06
-1.40542e-08
5.25594e-06
5.60218e-06
-3.26581e-11
1.94322e-07
-1.30937e-10
5.82964e-07
-2.9575e-10
9.71602e-07
-5.28739e-10
1.36023e-06
-8.32131e-10
1.74884e-06
-1.20856e-09
2.13742e-06
-1.66166e-09
2.52591e-06
-2.18758e-09
2.91427e-06
-2.79758e-09
3.30227e-06
-3.44735e-09
3.68956e-06
-4.25779e-09
4.0757e-06
-5.31212e-09
4.45909e-06
-7.62023e-09
4.84811e-06
-1.41817e-08
5.2625e-06
5.588e-06
-3.43841e-11
1.94356e-07
-1.37847e-10
5.83067e-07
-3.11285e-10
9.71776e-07
-5.563e-10
1.36048e-06
-8.75048e-10
1.74916e-06
-1.26983e-09
2.13781e-06
-1.74397e-09
2.52639e-06
-2.29281e-09
2.91482e-06
-2.92572e-09
3.3029e-06
-3.60605e-09
3.69024e-06
-4.44242e-09
4.07654e-06
-5.56636e-09
4.46021e-06
-7.87201e-09
4.85042e-06
-1.42659e-08
5.26889e-06
5.57374e-06
-3.60038e-11
1.94392e-07
-1.44321e-10
5.83175e-07
-3.25817e-10
9.71957e-07
-5.82016e-10
1.36073e-06
-9.14957e-10
1.74949e-06
-1.32658e-09
2.13822e-06
-1.81983e-09
2.52688e-06
-2.38947e-09
2.91539e-06
-3.04294e-09
3.30356e-06
-3.75143e-09
3.69095e-06
-4.61318e-09
4.0774e-06
-5.79807e-09
4.46139e-06
-8.10324e-09
4.85272e-06
-1.43178e-08
5.27511e-06
5.55942e-06
-3.75191e-11
1.9443e-07
-1.50374e-10
5.83288e-07
-3.39382e-10
9.72146e-07
-6.05968e-10
1.361e-06
-9.52026e-10
1.74984e-06
-1.37914e-09
2.13865e-06
-1.8898e-09
2.52739e-06
-2.47841e-09
2.91598e-06
-3.1506e-09
3.30423e-06
-3.88525e-09
3.69169e-06
-4.77208e-09
4.07829e-06
-6.01052e-09
4.46263e-06
-8.31662e-09
4.85503e-06
-1.43453e-08
5.28114e-06
5.54507e-06
-3.8935e-11
1.94469e-07
-1.56023e-10
5.83405e-07
-3.52027e-10
9.72342e-07
-6.28259e-10
1.36128e-06
-9.86444e-10
1.7502e-06
-1.42783e-09
2.13909e-06
-1.9544e-09
2.52792e-06
-2.56043e-09
2.91659e-06
-3.24989e-09
3.30492e-06
-4.00902e-09
3.69245e-06
-4.9207e-09
4.0792e-06
-6.20637e-09
4.46392e-06
-8.51436e-09
4.85734e-06
-1.43545e-08
5.28698e-06
5.53072e-06
-4.0256e-11
1.94509e-07
-1.61292e-10
5.83526e-07
-3.63807e-10
9.72545e-07
-6.48998e-10
1.36156e-06
-1.01841e-09
1.75057e-06
-1.47297e-09
2.13955e-06
-2.01416e-09
2.52846e-06
-2.63626e-09
2.91721e-06
-3.34185e-09
3.30562e-06
-4.12401e-09
3.69323e-06
-5.0603e-09
4.08013e-06
-6.38782e-09
4.46525e-06
-8.69825e-09
4.85965e-06
-1.43494e-08
5.29263e-06
5.51637e-06
-4.14886e-11
1.9455e-07
-1.66203e-10
5.83651e-07
-3.74782e-10
9.72753e-07
-6.68299e-10
1.36185e-06
-1.04811e-09
1.75095e-06
-1.51488e-09
2.14001e-06
-2.06955e-09
2.52901e-06
-2.70656e-09
2.91785e-06
-3.42737e-09
3.30634e-06
-4.23134e-09
3.69403e-06
-5.19193e-09
4.0811e-06
-6.55668e-09
4.46661e-06
-8.8698e-09
4.86196e-06
-1.43333e-08
5.29809e-06
5.50204e-06
-4.26383e-11
1.94593e-07
-1.70784e-10
5.83779e-07
-3.85012e-10
9.72968e-07
-6.86276e-10
1.36216e-06
-1.07575e-09
1.75134e-06
-1.55384e-09
2.14049e-06
-2.12102e-09
2.52958e-06
-2.77193e-09
2.9185e-06
-3.50723e-09
3.30708e-06
-4.33192e-09
3.69486e-06
-5.31642e-09
4.08208e-06
-6.71443e-09
4.46801e-06
-9.03024e-09
4.86428e-06
-1.43084e-08
5.30337e-06
5.48773e-06
-4.37118e-11
1.94637e-07
-1.75058e-10
5.83911e-07
-3.94554e-10
9.73187e-07
-7.03037e-10
1.36246e-06
-1.10151e-09
1.75174e-06
-1.59014e-09
2.14098e-06
-2.16896e-09
2.53016e-06
-2.83289e-09
2.91916e-06
-3.58208e-09
3.30783e-06
-4.42655e-09
3.6957e-06
-5.43448e-09
4.08309e-06
-6.86231e-09
4.46944e-06
-9.18063e-09
4.86659e-06
-1.42763e-08
5.30847e-06
5.47345e-06
-4.47144e-11
1.94682e-07
-1.79051e-10
5.84045e-07
-4.03465e-10
9.73412e-07
-7.18687e-10
1.36278e-06
-1.12555e-09
1.75214e-06
-1.62402e-09
2.14148e-06
-2.21372e-09
2.53075e-06
-2.88991e-09
2.91984e-06
-3.65248e-09
3.30859e-06
-4.51588e-09
3.69657e-06
-5.54668e-09
4.08412e-06
-7.00136e-09
4.47089e-06
-9.32184e-09
4.86891e-06
-1.42383e-08
5.31338e-06
5.45921e-06
-4.56525e-11
1.94727e-07
-1.82784e-10
5.84182e-07
-4.11797e-10
9.73641e-07
-7.33321e-10
1.3631e-06
-1.14803e-09
1.75256e-06
-1.6557e-09
2.14199e-06
-2.25562e-09
2.53135e-06
-2.94339e-09
2.92052e-06
-3.71891e-09
3.30937e-06
-4.60045e-09
3.69745e-06
-5.6535e-09
4.08517e-06
-7.13244e-09
4.47237e-06
-9.45462e-09
4.87124e-06
-1.41953e-08
5.31812e-06
5.44502e-06
-4.65307e-11
1.94774e-07
-1.86281e-10
5.84322e-07
-4.19601e-10
9.73874e-07
-7.47027e-10
1.36343e-06
-1.16908e-09
1.75298e-06
-1.6854e-09
2.1425e-06
-2.29493e-09
2.53196e-06
-2.99369e-09
2.92122e-06
-3.78176e-09
3.31015e-06
-4.68075e-09
3.69835e-06
-5.75534e-09
4.08625e-06
-7.25627e-09
4.47387e-06
-9.5796e-09
4.87356e-06
-1.41478e-08
5.32269e-06
5.43087e-06
-4.73548e-11
1.94821e-07
-1.8956e-10
5.84464e-07
-4.2692e-10
9.74111e-07
-7.59885e-10
1.36376e-06
-1.18884e-09
1.75341e-06
-1.71328e-09
2.14303e-06
-2.33189e-09
2.53258e-06
-3.04111e-09
2.92193e-06
-3.84137e-09
3.31096e-06
-4.75714e-09
3.69926e-06
-5.85255e-09
4.08734e-06
-7.37345e-09
4.47539e-06
-9.69733e-09
4.87588e-06
-1.40964e-08
5.32709e-06
5.41677e-06
-4.81282e-11
1.94869e-07
-1.9264e-10
5.84609e-07
-4.33795e-10
9.74352e-07
-7.71967e-10
1.3641e-06
-1.20741e-09
1.75384e-06
-1.7395e-09
2.14356e-06
-2.36673e-09
2.5332e-06
-3.08593e-09
2.92265e-06
-3.89803e-09
3.31177e-06
-4.82996e-09
3.70019e-06
-5.94541e-09
4.08846e-06
-7.48451e-09
4.47693e-06
-9.80826e-09
4.87821e-06
-1.40413e-08
5.33132e-06
5.40273e-06
-4.8856e-11
1.94918e-07
-1.95536e-10
5.84755e-07
-4.40262e-10
9.74597e-07
-7.83336e-10
1.36444e-06
-1.22489e-09
1.75428e-06
-1.76422e-09
2.1441e-06
-2.39961e-09
2.53384e-06
-3.12836e-09
2.92338e-06
-3.95199e-09
3.31259e-06
-4.89947e-09
3.70114e-06
-6.03417e-09
4.08959e-06
-7.58987e-09
4.47849e-06
-9.91281e-09
4.88053e-06
-1.39829e-08
5.33539e-06
5.38875e-06
-4.95409e-11
1.94968e-07
-1.98264e-10
5.84904e-07
-4.46355e-10
9.74845e-07
-7.94051e-10
1.36479e-06
-1.24138e-09
1.75473e-06
-1.78754e-09
2.14465e-06
-2.43071e-09
2.53448e-06
-3.1686e-09
2.92412e-06
-4.00344e-09
3.31343e-06
-4.96591e-09
3.7021e-06
-6.11904e-09
4.09075e-06
-7.68991e-09
4.48006e-06
-1.00113e-08
4.88285e-06
-1.39212e-08
5.3393e-06
5.37483e-06
-5.01871e-11
1.95018e-07
-2.00836e-10
5.85055e-07
-4.52102e-10
9.75096e-07
-8.0416e-10
1.36514e-06
-1.25695e-09
1.75518e-06
-1.80958e-09
2.1452e-06
-2.46016e-09
2.53513e-06
-3.20683e-09
2.92486e-06
-4.05257e-09
3.31427e-06
-5.02946e-09
3.70308e-06
-6.20021e-09
4.09192e-06
-7.78494e-09
4.48164e-06
-1.0104e-08
4.88517e-06
-1.38564e-08
5.34306e-06
5.36097e-06
-5.07966e-11
1.95069e-07
-2.03265e-10
5.85207e-07
-4.57528e-10
9.75351e-07
-8.1371e-10
1.3655e-06
-1.27166e-09
1.75564e-06
-1.83043e-09
2.14576e-06
-2.48808e-09
2.53579e-06
-3.24318e-09
2.92562e-06
-4.09952e-09
3.31513e-06
-5.09028e-09
3.70407e-06
-6.27783e-09
4.0931e-06
-7.87524e-09
4.48324e-06
-1.01913e-08
4.88749e-06
-1.37887e-08
5.34665e-06
5.34718e-06
-5.13729e-11
1.9512e-07
-2.05559e-10
5.85361e-07
-4.62656e-10
9.75608e-07
-8.22739e-10
1.36586e-06
-1.28558e-09
1.75611e-06
-1.85018e-09
2.14632e-06
-2.51458e-09
2.53646e-06
-3.27779e-09
2.92638e-06
-4.14441e-09
3.31599e-06
-5.14851e-09
3.70507e-06
-6.35205e-09
4.09431e-06
-7.96105e-09
4.48485e-06
-1.02733e-08
4.8898e-06
-1.3718e-08
5.3501e-06
5.33346e-06
-5.19173e-11
1.95172e-07
-2.07729e-10
5.85517e-07
-4.67507e-10
9.75868e-07
-8.31282e-10
1.36622e-06
-1.29875e-09
1.75657e-06
-1.86889e-09
2.14689e-06
-2.53974e-09
2.53713e-06
-3.31076e-09
2.92715e-06
-4.18734e-09
3.31687e-06
-5.20426e-09
3.70609e-06
-6.42299e-09
4.09553e-06
-8.04257e-09
4.48647e-06
-1.03502e-08
4.89211e-06
-1.36444e-08
5.35339e-06
5.31982e-06
-5.24327e-11
1.95224e-07
-2.09781e-10
5.85674e-07
-4.72097e-10
9.7613e-07
-8.39368e-10
1.36659e-06
-1.31123e-09
1.75704e-06
-1.88663e-09
2.14747e-06
-2.56365e-09
2.5378e-06
-3.34218e-09
2.92793e-06
-4.22841e-09
3.31776e-06
-5.25763e-09
3.70712e-06
-6.49076e-09
4.09676e-06
-8.11998e-09
4.4881e-06
-1.04223e-08
4.89441e-06
-1.35679e-08
5.35654e-06
5.30625e-06
-5.29201e-11
1.95277e-07
-2.11724e-10
5.85833e-07
-4.76442e-10
9.76395e-07
-8.47026e-10
1.36696e-06
-1.32306e-09
1.75752e-06
-1.90345e-09
2.14805e-06
-2.58637e-09
2.53849e-06
-3.37213e-09
2.92872e-06
-4.2677e-09
3.31865e-06
-5.30869e-09
3.70816e-06
-6.55546e-09
4.09801e-06
-8.19344e-09
4.48974e-06
-1.04896e-08
4.89671e-06
-1.34887e-08
5.35954e-06
5.29276e-06
-5.33817e-11
1.95331e-07
-2.13563e-10
5.85993e-07
-4.80556e-10
9.76662e-07
-8.54276e-10
1.36733e-06
-1.33426e-09
1.758e-06
-1.91941e-09
2.14863e-06
-2.60797e-09
2.53918e-06
-3.40068e-09
2.92951e-06
-4.30526e-09
3.31956e-06
-5.35753e-09
3.70921e-06
-6.61717e-09
4.09927e-06
-8.26309e-09
4.49138e-06
-1.05524e-08
4.89899e-06
-1.34068e-08
5.36239e-06
5.27936e-06
-5.38183e-11
1.95384e-07
-2.15304e-10
5.86155e-07
-4.8445e-10
9.76931e-07
-8.61142e-10
1.36771e-06
-1.34487e-09
1.75848e-06
-1.93453e-09
2.14922e-06
-2.6285e-09
2.53987e-06
-3.42789e-09
2.93031e-06
-4.34116e-09
3.32047e-06
-5.40421e-09
3.71028e-06
-6.67598e-09
4.10054e-06
-8.32907e-09
4.49304e-06
-1.06107e-08
4.90128e-06
-1.33221e-08
5.3651e-06
5.26604e-06
-5.42318e-11
1.95439e-07
-2.16951e-10
5.86318e-07
-4.88135e-10
9.77202e-07
-8.67641e-10
1.36809e-06
-1.35492e-09
1.75897e-06
-1.94888e-09
2.14982e-06
-2.64799e-09
2.54057e-06
-3.45381e-09
2.93112e-06
-4.37544e-09
3.32139e-06
-5.44877e-09
3.71135e-06
-6.73196e-09
4.10182e-06
-8.39148e-09
4.49469e-06
-1.06647e-08
4.90355e-06
-1.32348e-08
5.36767e-06
5.2528e-06
-5.46224e-11
1.95493e-07
-2.18509e-10
5.86481e-07
-4.91622e-10
9.77475e-07
-8.73788e-10
1.36847e-06
-1.36443e-09
1.75946e-06
-1.96246e-09
2.15041e-06
-2.6665e-09
2.54127e-06
-3.47849e-09
2.93193e-06
-4.40815e-09
3.32232e-06
-5.49128e-09
3.71243e-06
-6.78519e-09
4.10311e-06
-8.45043e-09
4.49636e-06
-1.07144e-08
4.90581e-06
-1.31449e-08
5.3701e-06
5.23966e-06
-5.49921e-11
1.95548e-07
-2.19982e-10
5.86646e-07
-4.94916e-10
9.7775e-07
-8.796e-10
1.36886e-06
-1.37343e-09
1.75996e-06
-1.97532e-09
2.15102e-06
-2.68406e-09
2.54198e-06
-3.50196e-09
2.93275e-06
-4.43934e-09
3.32326e-06
-5.53178e-09
3.71353e-06
-6.83574e-09
4.10442e-06
-8.50602e-09
4.49803e-06
-1.07601e-08
4.90807e-06
-1.30525e-08
5.37239e-06
5.2266e-06
-5.53408e-11
1.95604e-07
-2.21373e-10
5.86813e-07
-4.98028e-10
9.78027e-07
-8.85089e-10
1.36924e-06
-1.38193e-09
1.76045e-06
-1.98749e-09
2.15162e-06
-2.70071e-09
2.54269e-06
-3.52427e-09
2.93357e-06
-4.46903e-09
3.3242e-06
-5.57032e-09
3.71463e-06
-6.88365e-09
4.10573e-06
-8.55835e-09
4.4997e-06
-1.08017e-08
4.91031e-06
-1.29575e-08
5.37455e-06
5.21365e-06
-5.567e-11
1.95659e-07
-2.22684e-10
5.8698e-07
-5.00963e-10
9.78305e-07
-8.90266e-10
1.36963e-06
-1.38995e-09
1.76095e-06
-1.99898e-09
2.15223e-06
-2.71647e-09
2.54341e-06
-3.54544e-09
2.9344e-06
-4.49725e-09
3.32516e-06
-5.60692e-09
3.71574e-06
-6.929e-09
4.10705e-06
-8.60749e-09
4.50138e-06
-1.08395e-08
4.91254e-06
-1.28602e-08
5.37657e-06
5.20079e-06
-5.59799e-11
1.95715e-07
-2.23921e-10
5.87147e-07
-5.03729e-10
9.78585e-07
-8.95144e-10
1.37002e-06
-1.3975e-09
1.76146e-06
-2.00982e-09
2.15284e-06
-2.73136e-09
2.54413e-06
-3.56551e-09
2.93523e-06
-4.52406e-09
3.32611e-06
-5.64164e-09
3.71685e-06
-6.97185e-09
4.10838e-06
-8.65354e-09
4.50306e-06
-1.08734e-08
4.91476e-06
-1.27606e-08
5.37846e-06
5.18802e-06
-5.62716e-11
1.95772e-07
-2.25083e-10
5.87316e-07
-5.06329e-10
9.78866e-07
-8.99731e-10
1.37042e-06
-1.40462e-09
1.76196e-06
-2.02003e-09
2.15346e-06
-2.74543e-09
2.54486e-06
-3.58451e-09
2.93607e-06
-4.54946e-09
3.32708e-06
-5.67452e-09
3.71798e-06
-7.01225e-09
4.10972e-06
-8.69657e-09
4.50475e-06
-1.09036e-08
4.91697e-06
-1.26587e-08
5.38021e-06
5.17537e-06
-5.65454e-11
1.95828e-07
-2.26175e-10
5.87486e-07
-5.08771e-10
9.79149e-07
-9.04038e-10
1.37081e-06
-1.4113e-09
1.76247e-06
-2.02964e-09
2.15408e-06
-2.75869e-09
2.54559e-06
-3.60246e-09
2.93692e-06
-4.5735e-09
3.32805e-06
-5.70559e-09
3.71911e-06
-7.05027e-09
4.11107e-06
-8.73665e-09
4.50644e-06
-1.09302e-08
4.91916e-06
-1.25547e-08
5.38184e-06
5.16281e-06
-5.68021e-11
1.95885e-07
-2.27197e-10
5.87656e-07
-5.11059e-10
9.79432e-07
-9.08074e-10
1.37121e-06
-1.41756e-09
1.76298e-06
-2.03865e-09
2.1547e-06
-2.77116e-09
2.54632e-06
-3.61939e-09
2.93776e-06
-4.5962e-09
3.32903e-06
-5.73489e-09
3.72025e-06
-7.08595e-09
4.11242e-06
-8.77388e-09
4.50812e-06
-1.09532e-08
4.92134e-06
-1.24486e-08
5.38333e-06
5.15036e-06
-5.70419e-11
1.95942e-07
-2.28154e-10
5.87827e-07
-5.13198e-10
9.79717e-07
-9.11846e-10
1.37161e-06
-1.42341e-09
1.76349e-06
-2.04709e-09
2.15532e-06
-2.78287e-09
2.54706e-06
-3.63533e-09
2.93862e-06
-4.61759e-09
3.33001e-06
-5.76246e-09
3.7214e-06
-7.11937e-09
4.11377e-06
-8.80831e-09
4.50981e-06
-1.09728e-08
4.92351e-06
-1.23405e-08
5.3847e-06
5.13802e-06
-5.72657e-11
1.95999e-07
-2.29045e-10
5.87999e-07
-5.15191e-10
9.80004e-07
-9.15364e-10
1.37201e-06
-1.42888e-09
1.764e-06
-2.05498e-09
2.15595e-06
-2.79384e-09
2.5478e-06
-3.6503e-09
2.93947e-06
-4.63771e-09
3.331e-06
-5.78835e-09
3.72255e-06
-7.15057e-09
4.11514e-06
-8.84004e-09
4.5115e-06
-1.0989e-08
4.92566e-06
-1.22306e-08
5.38594e-06
5.12579e-06
-5.74736e-11
1.96057e-07
-2.29874e-10
5.88172e-07
-5.17046e-10
9.80291e-07
-9.18634e-10
1.37241e-06
-1.43396e-09
1.76452e-06
-2.06233e-09
2.15658e-06
-2.80409e-09
2.54854e-06
-3.66433e-09
2.94033e-06
-4.65659e-09
3.33199e-06
-5.81259e-09
3.7237e-06
-7.17963e-09
4.1165e-06
-8.86913e-09
4.51319e-06
-1.10019e-08
4.92779e-06
-1.21189e-08
5.38706e-06
5.11367e-06
-5.76663e-11
1.96114e-07
-2.30642e-10
5.88345e-07
-5.18762e-10
9.80579e-07
-9.21665e-10
1.37281e-06
-1.43867e-09
1.76503e-06
-2.06916e-09
2.15721e-06
-2.81364e-09
2.54928e-06
-3.67744e-09
2.9412e-06
-4.67425e-09
3.33299e-06
-5.83523e-09
3.72486e-06
-7.2066e-09
4.11787e-06
-8.89567e-09
4.51488e-06
-1.10117e-08
4.9299e-06
-1.20056e-08
5.38805e-06
5.10167e-06
-5.7844e-11
1.96172e-07
-2.31351e-10
5.88518e-07
-5.20347e-10
9.80868e-07
-9.24462e-10
1.37322e-06
-1.44303e-09
1.76555e-06
-2.07549e-09
2.15784e-06
-2.82252e-09
2.55003e-06
-3.68967e-09
2.94206e-06
-4.69074e-09
3.33399e-06
-5.85631e-09
3.72603e-06
-7.23155e-09
4.11925e-06
-8.91973e-09
4.51657e-06
-1.10183e-08
4.932e-06
-1.18908e-08
5.38893e-06
5.08978e-06
-5.80071e-11
1.9623e-07
-2.32001e-10
5.88692e-07
-5.21802e-10
9.81158e-07
-9.27032e-10
1.37362e-06
-1.44704e-09
1.76607e-06
-2.08133e-09
2.15847e-06
-2.83075e-09
2.55078e-06
-3.70104e-09
2.94293e-06
-4.70608e-09
3.33499e-06
-5.8759e-09
3.7272e-06
-7.25454e-09
4.12063e-06
-8.9414e-09
4.51826e-06
-1.1022e-08
4.93408e-06
-1.17745e-08
5.38968e-06
5.078e-06
-5.8156e-11
1.96288e-07
-2.32595e-10
5.88867e-07
-5.23132e-10
9.81448e-07
-9.29382e-10
1.37403e-06
-1.45071e-09
1.76659e-06
-2.08669e-09
2.15911e-06
-2.83834e-09
2.55153e-06
-3.71158e-09
2.94381e-06
-4.72033e-09
3.336e-06
-5.89403e-09
3.72837e-06
-7.27566e-09
4.12201e-06
-8.96077e-09
4.51994e-06
-1.10227e-08
4.93615e-06
-1.16569e-08
5.39031e-06
5.06634e-06
-5.82907e-11
1.96347e-07
-2.33133e-10
5.89041e-07
-5.24336e-10
9.81739e-07
-9.31516e-10
1.37444e-06
-1.45406e-09
1.76712e-06
-2.0916e-09
2.15975e-06
-2.84533e-09
2.55228e-06
-3.72131e-09
2.94468e-06
-4.73352e-09
3.33701e-06
-5.91077e-09
3.72955e-06
-7.29497e-09
4.12339e-06
-8.97793e-09
4.52162e-06
-1.10208e-08
4.93819e-06
-1.15382e-08
5.39083e-06
5.05481e-06
-5.84114e-11
1.96405e-07
-2.33616e-10
5.89217e-07
-5.2542e-10
9.82031e-07
-9.33438e-10
1.37484e-06
-1.45708e-09
1.76764e-06
-2.09606e-09
2.16039e-06
-2.85172e-09
2.55304e-06
-3.73027e-09
2.94556e-06
-4.74569e-09
3.33803e-06
-5.92618e-09
3.73073e-06
-7.31257e-09
4.12478e-06
-8.99297e-09
4.5233e-06
-1.10161e-08
4.94021e-06
-1.14185e-08
5.39123e-06
5.04339e-06
-5.8518e-11
1.96464e-07
-2.34043e-10
5.89392e-07
-5.2638e-10
9.82324e-07
-9.35149e-10
1.37525e-06
-1.45979e-09
1.76816e-06
-2.10009e-09
2.16103e-06
-2.85754e-09
2.5538e-06
-3.73849e-09
2.94644e-06
-4.75689e-09
3.33905e-06
-5.94033e-09
3.73191e-06
-7.32854e-09
4.12617e-06
-9.00602e-09
4.52498e-06
-1.10089e-08
4.94221e-06
-1.1298e-08
5.39152e-06
5.03209e-06
-5.86105e-11
1.96522e-07
-2.34414e-10
5.89568e-07
-5.27219e-10
9.82616e-07
-9.36651e-10
1.37566e-06
-1.46218e-09
1.76869e-06
-2.10369e-09
2.16167e-06
-2.86281e-09
2.55456e-06
-3.746e-09
2.94733e-06
-4.76716e-09
3.34007e-06
-5.95328e-09
3.7331e-06
-7.34298e-09
4.12756e-06
-9.01719e-09
4.52666e-06
-1.09993e-08
4.9442e-06
-1.11767e-08
5.3917e-06
5.02091e-06
-5.86882e-11
1.96581e-07
-2.34728e-10
5.89744e-07
-5.27932e-10
9.8291e-07
-9.37941e-10
1.37607e-06
-1.46427e-09
1.76922e-06
-2.10687e-09
2.16231e-06
-2.86753e-09
2.55532e-06
-3.75283e-09
2.94821e-06
-4.77657e-09
3.34109e-06
-5.96512e-09
3.73429e-06
-7.35601e-09
4.12895e-06
-9.02662e-09
4.52833e-06
-1.09876e-08
4.94616e-06
-1.1055e-08
5.39177e-06
5.00986e-06
-5.87507e-11
1.9664e-07
-2.34982e-10
5.8992e-07
-5.28516e-10
9.83203e-07
-9.39013e-10
1.37648e-06
-1.46603e-09
1.76974e-06
-2.10963e-09
2.16295e-06
-2.87173e-09
2.55608e-06
-3.759e-09
2.9491e-06
-4.78516e-09
3.34212e-06
-5.97593e-09
3.73548e-06
-7.36775e-09
4.13034e-06
-9.03446e-09
4.52999e-06
-1.09738e-08
4.9481e-06
-1.0933e-08
5.39173e-06
4.99893e-06
-5.87965e-11
1.96698e-07
-2.35172e-10
5.90097e-07
-5.28962e-10
9.83497e-07
-9.39855e-10
1.37689e-06
-1.46747e-09
1.77027e-06
-2.11196e-09
2.1636e-06
-2.8754e-09
2.55684e-06
-3.76455e-09
2.94999e-06
-4.79299e-09
3.34315e-06
-5.98582e-09
3.73667e-06
-7.37834e-09
4.13173e-06
-9.04092e-09
4.53166e-06
-1.09582e-08
4.95001e-06
-1.0811e-08
5.39158e-06
4.98811e-06
-5.88246e-11
1.96757e-07
-2.35293e-10
5.90273e-07
-5.2926e-10
9.83791e-07
-9.40451e-10
1.37731e-06
-1.46855e-09
1.7708e-06
-2.11384e-09
2.16424e-06
-2.87854e-09
2.55761e-06
-3.76947e-09
2.95088e-06
-4.80011e-09
3.34418e-06
-5.99488e-09
3.73787e-06
-7.38796e-09
4.13313e-06
-9.04619e-09
4.53331e-06
-1.0941e-08
4.95191e-06
-1.06894e-08
5.39133e-06
4.97742e-06
-5.88324e-11
1.96816e-07
-2.35336e-10
5.9045e-07
-5.29391e-10
9.84085e-07
-9.40775e-10
1.37772e-06
-1.46926e-09
1.77133e-06
-2.11525e-09
2.16489e-06
-2.88112e-09
2.55837e-06
-3.77379e-09
2.95177e-06
-4.80657e-09
3.34521e-06
-6.00324e-09
3.73906e-06
-7.39679e-09
4.13452e-06
-9.05055e-09
4.53497e-06
-1.09226e-08
4.95378e-06
-1.05685e-08
5.39097e-06
4.96686e-06
-5.88176e-11
1.96875e-07
-2.35291e-10
5.90626e-07
-5.29337e-10
9.84379e-07
-9.40794e-10
1.37813e-06
-1.46954e-09
1.77186e-06
-2.11613e-09
2.16554e-06
-2.88311e-09
2.55914e-06
-3.77749e-09
2.95267e-06
-4.81242e-09
3.34624e-06
-6.01102e-09
3.74026e-06
-7.40507e-09
4.13591e-06
-9.05431e-09
4.53662e-06
-1.09034e-08
4.95563e-06
-1.04488e-08
5.39052e-06
4.95641e-06
-5.87762e-11
1.96934e-07
-2.35145e-10
5.90802e-07
-5.29065e-10
9.84673e-07
-9.40458e-10
1.37854e-06
-1.46933e-09
1.77239e-06
-2.1164e-09
2.16618e-06
-2.88444e-09
2.55991e-06
-3.78053e-09
2.95356e-06
-4.81769e-09
3.34728e-06
-6.01835e-09
3.74146e-06
-7.41304e-09
4.13731e-06
-9.05789e-09
4.53826e-06
-1.0884e-08
4.95746e-06
-1.0331e-08
5.38997e-06
4.94608e-06
-5.87041e-11
1.96992e-07
-2.34878e-10
5.90979e-07
-5.28539e-10
9.84967e-07
-9.39707e-10
1.37895e-06
-1.46854e-09
1.77291e-06
-2.11597e-09
2.16683e-06
-2.885e-09
2.56068e-06
-3.78283e-09
2.95446e-06
-4.82236e-09
3.34832e-06
-6.02535e-09
3.74267e-06
-7.42102e-09
4.1387e-06
-9.06178e-09
4.5399e-06
-1.08648e-08
4.95926e-06
-1.02161e-08
5.38932e-06
4.93586e-06
-5.85951e-11
1.97051e-07
-2.34471e-10
5.91154e-07
-5.2771e-10
9.8526e-07
-9.3846e-10
1.37936e-06
-1.46706e-09
1.77344e-06
-2.1147e-09
2.16748e-06
-2.88464e-09
2.56145e-06
-3.78428e-09
2.95536e-06
-4.82641e-09
3.34936e-06
-6.03214e-09
3.74387e-06
-7.42936e-09
4.1401e-06
-9.06659e-09
4.54154e-06
-1.0847e-08
4.96104e-06
-1.01052e-08
5.38858e-06
4.92576e-06
-5.84427e-11
1.97109e-07
-2.33894e-10
5.9133e-07
-5.26519e-10
9.85552e-07
-9.36613e-10
1.37977e-06
-1.46474e-09
1.77397e-06
-2.11238e-09
2.16813e-06
-2.88315e-09
2.56222e-06
-3.78467e-09
2.95626e-06
-4.82972e-09
3.35041e-06
-6.0388e-09
3.74508e-06
-7.43843e-09
4.1415e-06
-9.07312e-09
4.54317e-06
-1.08316e-08
4.9628e-06
-1.00002e-08
5.38774e-06
4.91575e-06
-5.82383e-11
1.97168e-07
-2.33115e-10
5.91505e-07
-5.24893e-10
9.85844e-07
-9.34041e-10
1.38018e-06
-1.46139e-09
1.7745e-06
-2.10877e-09
2.16877e-06
-2.88022e-09
2.56299e-06
-3.78369e-09
2.95716e-06
-4.83206e-09
3.35146e-06
-6.04533e-09
3.74629e-06
-7.44865e-09
4.14291e-06
-9.08234e-09
4.54481e-06
-1.08203e-08
4.96454e-06
-9.9035e-09
5.38683e-06
4.90585e-06
-5.79723e-11
1.97226e-07
-2.32096e-10
5.91679e-07
-5.22745e-10
9.86135e-07
-9.3059e-10
1.38059e-06
-1.45676e-09
1.77502e-06
-2.10354e-09
2.16942e-06
-2.87544e-09
2.56376e-06
-3.78091e-09
2.95807e-06
-4.83306e-09
3.35251e-06
-6.0516e-09
3.74751e-06
-7.46039e-09
4.14431e-06
-9.09544e-09
4.54644e-06
-1.08151e-08
4.96626e-06
-9.81895e-09
5.38583e-06
4.89603e-06
-5.76335e-11
1.97283e-07
-2.30792e-10
5.91852e-07
-5.19972e-10
9.86424e-07
-9.26075e-10
1.38099e-06
-1.45059e-09
1.77555e-06
-2.09627e-09
2.17007e-06
-2.86827e-09
2.56453e-06
-3.77569e-09
2.95898e-06
-4.83211e-09
3.35357e-06
-6.05725e-09
3.74874e-06
-7.47392e-09
4.14573e-06
-9.11383e-09
4.54808e-06
-1.08193e-08
4.96796e-06
-9.75154e-09
5.38476e-06
4.88628e-06
-5.72086e-11
1.9734e-07
-2.29151e-10
5.92024e-07
-5.16459e-10
9.86711e-07
-9.20285e-10
1.3814e-06
-1.44251e-09
1.77607e-06
-2.08646e-09
2.17071e-06
-2.85802e-09
2.5653e-06
-3.76715e-09
2.95989e-06
-4.82826e-09
3.35463e-06
-6.06154e-09
3.74997e-06
-7.48927e-09
4.14716e-06
-9.13914e-09
4.54973e-06
-1.08366e-08
4.96966e-06
-9.71018e-09
5.38364e-06
4.87657e-06
-5.66838e-11
1.97397e-07
-2.27119e-10
5.92194e-07
-5.12077e-10
9.86996e-07
-9.1298e-10
1.3818e-06
-1.43212e-09
1.77659e-06
-2.07348e-09
2.17135e-06
-2.84381e-09
2.56607e-06
-3.75413e-09
2.9608e-06
-4.82013e-09
3.35569e-06
-6.06316e-09
3.75121e-06
-7.50585e-09
4.1486e-06
-9.17284e-09
4.5514e-06
-1.08721e-08
4.97136e-06
-9.707e-09
5.38247e-06
4.86686e-06
-5.60418e-11
1.97453e-07
-2.24637e-10
5.92363e-07
-5.06688e-10
9.87278e-07
-9.03898e-10
1.3822e-06
-1.41899e-09
1.77711e-06
-2.05663e-09
2.17199e-06
-2.82454e-09
2.56684e-06
-3.7351e-09
2.96171e-06
-4.80568e-09
3.35676e-06
-6.05989e-09
3.75247e-06
-7.52217e-09
4.15006e-06
-9.21689e-09
4.55309e-06
-1.0936e-08
4.97308e-06
-9.76388e-09
5.3813e-06
4.8571e-06
-5.52652e-11
1.97508e-07
-2.21646e-10
5.92529e-07
-5.00151e-10
9.87557e-07
-8.92771e-10
1.38259e-06
-1.40264e-09
1.77762e-06
-2.03511e-09
2.17262e-06
-2.79896e-09
2.56761e-06
-3.70815e-09
2.96262e-06
-4.78216e-09
3.35784e-06
-6.04821e-09
3.75373e-06
-7.53411e-09
4.15155e-06
-9.26792e-09
4.55483e-06
-1.10228e-08
4.97483e-06
-9.89914e-09
5.38018e-06
4.8472e-06
-5.43235e-11
1.97563e-07
-2.18089e-10
5.92693e-07
-4.92324e-10
9.87831e-07
-8.79334e-10
1.38298e-06
-1.38258e-09
1.77812e-06
-2.00811e-09
2.17325e-06
-2.76569e-09
2.56836e-06
-3.67105e-09
2.96352e-06
-4.74604e-09
3.35891e-06
-6.02361e-09
3.75501e-06
-7.53749e-09
4.15306e-06
-9.33626e-09
4.55663e-06
-1.11978e-08
4.97669e-06
-1.02351e-08
5.37921e-06
4.83697e-06
-5.31801e-11
1.97616e-07
-2.13924e-10
5.92854e-07
-4.83053e-10
9.881e-07
-8.633e-10
1.38336e-06
-1.35826e-09
1.77861e-06
-1.97464e-09
2.17386e-06
-2.72295e-09
2.56911e-06
-3.62088e-09
2.96442e-06
-4.69171e-09
3.35998e-06
-5.97668e-09
3.7563e-06
-7.51087e-09
4.1546e-06
-9.37116e-09
4.55849e-06
-1.12748e-08
4.9786e-06
-1.06542e-08
5.37859e-06
4.82631e-06
-5.1788e-11
1.97668e-07
-2.09109e-10
5.93011e-07
-4.72413e-10
9.88364e-07
-8.44776e-10
1.38373e-06
-1.32981e-09
1.7791e-06
-1.93478e-09
2.17447e-06
-2.67071e-09
2.56985e-06
-3.55735e-09
2.96531e-06
-4.61916e-09
3.36104e-06
-5.91022e-09
3.75759e-06
-7.47318e-09
4.15616e-06
-9.49182e-09
4.56051e-06
-1.19044e-08
4.98101e-06
-1.19797e-08
5.37867e-06
4.81433e-06
-2.33599e-10
1.97901e-07
-9.40392e-10
5.93718e-07
-2.12702e-09
9.8955e-07
-3.80224e-09
1.3854e-06
-5.98366e-09
1.78128e-06
-8.70122e-09
2.17719e-06
-1.20044e-08
2.57315e-06
-1.59698e-08
2.96927e-06
-2.07101e-08
3.36579e-06
-2.63719e-08
3.76325e-06
-3.31695e-08
4.16296e-06
-4.1294e-08
4.56863e-06
-4.91637e-08
4.98888e-06
-2.15862e-08
5.35109e-06
4.62167e-06
1.71081e-07
-1.8454e-10
1.98086e-07
-7.36362e-10
5.9427e-07
-1.65652e-09
9.9047e-07
-2.94471e-09
1.38669e-06
-4.60097e-09
1.78294e-06
-6.62872e-09
2.17921e-06
-9.03591e-09
2.57556e-06
-1.18366e-08
2.97207e-06
-1.50443e-08
3.36899e-06
-1.8664e-08