/*--------------------------------*- C++ -*----------------------------------*\
  =========                 |
  \\      /  F ield         | OpenFOAM: The Open Source CFD Toolbox
   \\    /   O peration     | Website:  https://openfoam.org
    \\  /    A nd           | Version:  7
     \\/     M anipulation  |
\*---------------------------------------------------------------------------*/
FoamFile
{
    version     2.0;
    format      ascii;
    class       volVectorField;
    location    "300";
    object      U;
}
// * * * * * * * * * * * * * * * * * * * * * * * * * * * * * * * * * * * * * //

dimensions      [0 1 -1 0 0 0 0];

internalField   nonuniform List<vector> 
32100
(
(-3.11848e-06 -1.33587e-17 1.6)
(-7.06849e-06 1.08326e-15 1.6)
(-1.09083e-05 6.97485e-16 1.6)
(-1.41953e-05 4.78789e-16 1.6)
(-1.6176e-05 2.07866e-17 1.6)
(-1.58437e-05 -4.46792e-18 1.6)
(-1.13357e-05 -4.67674e-17 1.6)
(1.08879e-06 -2.13793e-16 1.6)
(3.02297e-05 1.37906e-16 1.59999)
(9.49031e-05 3.83168e-19 1.59999)
(0.000237622 1.07251e-16 1.59998)
(0.000895761 1.64454e-17 1.59993)
(0.00345331 -8.55284e-17 1.59832)
(-0.00877672 -1.14348e-16 1.5995)
(0.068534 1.67268e-18 1.60054)
(-9.10571e-06 -8.8592e-17 1.60001)
(-2.13305e-05 -3.62023e-16 1.60001)
(-3.30168e-05 8.52141e-16 1.60001)
(-4.31362e-05 2.17408e-16 1.60001)
(-4.94607e-05 7.55907e-18 1.60001)
(-4.91685e-05 -3.65185e-20 1.6)
(-3.69946e-05 -2.08302e-15 1.59999)
(-2.90392e-06 5.51544e-17 1.59998)
(7.55036e-05 4.72521e-16 1.59994)
(0.00025628 7.85278e-18 1.59985)
(0.000584948 -3.47828e-17 1.59967)
(0.00109571 1.06826e-15 1.59924)
(0.00867923 2.42366e-16 1.59336)
(-0.0204856 3.82766e-16 1.59631)
(0.0818804 -4.19617e-17 1.60944)
(-1.51966e-05 1.81791e-16 1.60004)
(-3.62473e-05 9.66468e-16 1.60004)
(-5.62715e-05 4.24081e-15 1.60003)
(-7.4093e-05 -3.18392e-15 1.60003)
(-8.61917e-05 2.80424e-17 1.60002)
(-8.8594e-05 2.23943e-17 1.60001)
(-7.39813e-05 2.16341e-16 1.59998)
(-2.93054e-05 1.74844e-15 1.59993)
(6.79449e-05 1.15493e-16 1.59984)
(0.00028452 1.92004e-16 1.59963)
(0.000771335 -7.54817e-16 1.59909)
(-5.23395e-05 -1.18612e-16 1.59849)
(0.0117451 2.73821e-16 1.59004)
(-0.0260669 2.41655e-16 1.59236)
(0.0716043 -1.38691e-16 1.61813)
(-2.16597e-05 4.34923e-16 1.60008)
(-5.22962e-05 1.83147e-15 1.60007)
(-8.15301e-05 -8.03702e-17 1.60007)
(-0.000108514 1.16076e-15 1.60006)
(-0.00012878 1.13006e-16 1.60004)
(-0.000138162 2.93215e-17 1.60002)
(-0.000129268 2.86599e-17 1.59997)
(-8.91788e-05 -1.41163e-16 1.59988)
(-2.58688e-06 8.40111e-17 1.59972)
(0.000147512 1.45565e-15 1.59941)
(0.000890635 6.44168e-16 1.59852)
(-0.00157573 -1.47676e-16 1.59794)
(0.0129571 1.23186e-15 1.58907)
(-0.0278668 -3.21165e-16 1.58925)
(0.059635 -3.36805e-16 1.62303)
(-2.8611e-05 5.00202e-16 1.60013)
(-6.97202e-05 1.84084e-15 1.60012)
(-0.000109258 1.11384e-15 1.60012)
(-0.000147128 1.04456e-15 1.6001)
(-0.000178251 1.6344e-16 1.60008)
(-0.000199038 3.51795e-17 1.60004)
(-0.000203521 -2.08079e-15 1.59997)
(-0.000180997 -1.85982e-16 1.59985)
(-0.000113269 4.9799e-16 1.59964)
(-0.000107016 -2.14594e-16 1.59928)
(0.000976506 2.67657e-16 1.59813)
(-0.00290345 1.54171e-16 1.59752)
(0.0129784 6.7083e-16 1.58938)
(-0.0279437 1.68328e-16 1.58751)
(0.0495488 -1.17377e-15 1.62486)
(-3.60805e-05 3.26679e-16 1.6002)
(-8.85497e-05 8.02547e-15 1.60019)
(-0.00013948 1.59976e-15 1.60018)
(-0.000189849 -2.49931e-15 1.60016)
(-0.000234171 1.90003e-16 1.60013)
(-0.000269799 5.16467e-17 1.60008)
(-0.000292515 3.49921e-16 1.6)
(-0.000296954 -1.96375e-15 1.59985)
(-0.00024001 2.03048e-15 1.59959)
(-0.000418703 -1.93216e-16 1.59922)
(0.00100145 -1.5403e-16 1.59793)
(-0.00391666 1.49178e-16 1.59714)
(0.0124065 -4.51607e-16 1.59007)
(-0.0272553 3.16953e-16 1.58686)
(0.0413329 1.05719e-16 1.62517)
(-4.40316e-05 1.91909e-16 1.60028)
(-0.00010865 -1.28243e-16 1.60027)
(-0.000171893 2.04955e-15 1.60026)
(-0.00023605 1.66095e-15 1.60024)
(-0.000295289 2.30482e-16 1.6002)
(-0.00034804 2.739e-17 1.60014)
(-0.000390994 -4.93922e-16 1.60005)
(-0.000429458 -7.8627e-17 1.59989)
(-0.000372222 1.67301e-15 1.59959)
(-0.000744707 -6.12672e-17 1.59922)
(0.000952171 3.20123e-17 1.59787)
(-0.00465584 -5.86982e-16 1.59686)
(0.0116022 9.01363e-16 1.59083)
(-0.026145 -5.76851e-16 1.58729)
(0.0345437 9.27462e-16 1.62427)
(-5.2369e-05 5.6243e-16 1.60038)
(-0.000129763 -3.94971e-15 1.60037)
(-0.000206009 5.30774e-15 1.60036)
(-0.000284859 4.49862e-16 1.60033)
(-0.000360083 2.25765e-16 1.60029)
(-0.000431393 8.48264e-18 1.60023)
(-0.000494586 -3.71374e-16 1.60012)
(-0.000571926 1.61007e-15 1.59996)
(-0.000506737 7.63086e-16 1.59964)
(-0.00105857 3.32179e-18 1.59927)
(0.000844306 1.15528e-15 1.59792)
(-0.0051754 -6.53077e-16 1.59668)
(0.0106973 -3.08198e-16 1.5916)
(-0.0247977 -1.7915e-15 1.58839)
(0.0288883 1.21809e-17 1.62248)
(-6.09676e-05 4.62278e-16 1.6005)
(-0.000151569 3.37033e-15 1.60049)
(-0.00024125 4.22478e-16 1.60048)
(-0.000335325 3.91399e-16 1.60045)
(-0.000427017 2.48681e-16 1.60041)
(-0.000517672 -4.98622e-17 1.60034)
(-0.000599871 1.14831e-15 1.60023)
(-0.000718133 -4.29213e-16 1.60007)
(-0.000641202 9.42984e-16 1.59973)
(-0.00134581 5.17224e-17 1.59935)
(0.00069839 -2.33257e-16 1.59804)
(-0.00552169 -1.23386e-15 1.59662)
(0.00973901 -8.43422e-16 1.59239)
(-0.0233473 -1.55398e-16 1.5899)
(0.0241543 6.54125e-16 1.62001)
(-6.9693e-05 2.31303e-16 1.60064)
(-0.000173726 2.71139e-18 1.60063)
(-0.000277023 6.5111e-15 1.60062)
(-0.000386518 1.16993e-15 1.60059)
(-0.000494637 2.89356e-16 1.60054)
(-0.000604847 -8.71078e-17 1.60048)
(-0.000704175 -1.10085e-15 1.60036)
(-0.000862722 -2.22468e-15 1.6002)
(-0.000773186 1.04839e-15 1.59987)
(-0.00160055 1.13397e-16 1.59947)
(0.000527819 9.62227e-17 1.59821)
(-0.00573247 1.37526e-16 1.59664)
(0.00876158 -7.30049e-16 1.59318)
(-0.0218883 1.69964e-16 1.59167)
(0.0201659 -1.07806e-15 1.61707)
(-7.84186e-05 3.50423e-16 1.6008)
(-0.000195904 8.73681e-17 1.60079)
(-0.000312761 1.59742e-15 1.60077)
(-0.00043758 4.65194e-16 1.60075)
(-0.000561673 2.86677e-16 1.6007)
(-0.000691139 -8.26647e-17 1.60063)
(-0.000805554 -4.34498e-16 1.60052)
(-0.00100187 2.94854e-17 1.60037)
(-0.000900981 1.27599e-15 1.60003)
(-0.00182191 1.78275e-16 1.59962)
(0.000340808 -4.87935e-17 1.59843)
(-0.00584004 -3.46874e-16 1.59674)
(0.00779556 -4.88726e-16 1.59397)
(-0.020476 -4.74264e-16 1.59362)
(0.0167815 -3.38482e-16 1.61378)
(-8.70285e-05 7.05042e-16 1.60097)
(-0.000217808 2.79024e-15 1.60096)
(-0.000347967 5.35675e-15 1.60095)
(-0.000487778 1.94875e-15 1.60092)
(-0.000627106 3.4243e-16 1.60088)
(-0.000775138 -6.97198e-17 1.60082)
(-0.000902743 -1.35338e-16 1.60071)
(-0.00113324 -7.4695e-17 1.60056)
(-0.00102367 1.3817e-15 1.60023)
(-0.00201141 2.48154e-16 1.5998)
(0.000143819 1.26002e-15 1.59867)
(-0.00587199 -3.45054e-16 1.5969)
(0.00686246 -5.31426e-16 1.59476)
(-0.019139 -4.45339e-16 1.59568)
(0.0138912 -6.37502e-17 1.61025)
(-9.5427e-05 9.73015e-16 1.60117)
(-0.000239188 3.96164e-15 1.60116)
(-0.000382229 1.2301e-15 1.60115)
(-0.000536528 2.04423e-15 1.60112)
(-0.000690186 3.80145e-16 1.60108)
(-0.000855819 -9.95304e-17 1.60102)
(-0.000994994 1.12251e-15 1.60092)
(-0.00125554 -3.66684e-16 1.60077)
(-0.0011408 2.22324e-15 1.60045)
(-0.00217186 3.36203e-16 1.6)
(-5.7711e-05 -1.34994e-16 1.59893)
(-0.00585062 -7.97482e-16 1.59711)
(0.00597421 -1.82392e-15 1.59554)
(-0.0178909 -1.78073e-16 1.59778)
(0.0114093 -5.449e-16 1.60656)
(-0.000103536 6.33164e-16 1.60138)
(-0.000259848 8.25755e-15 1.60137)
(-0.000415235 9.36843e-16 1.60136)
(-0.000583392 1.61825e-15 1.60134)
(-0.000750402 4.05916e-16 1.6013)
(-0.000932495 -1.15605e-16 1.60125)
(-0.00108192 -8.39263e-16 1.60115)
(-0.00136823 2.34466e-16 1.601)
(-0.00125215 3.29433e-15 1.6007)
(-0.00230671 3.89965e-16 1.60023)
(-0.00025953 3.56859e-16 1.5992)
(-0.00579307 -9.22739e-16 1.59737)
(0.00513677 -4.90185e-16 1.59631)
(-0.0167374 -1.96512e-16 1.5999)
(0.0092675 -1.01311e-15 1.60273)
(-0.000111302 6.73521e-16 1.60161)
(-0.000279645 -3.37147e-17 1.6016)
(-0.000446761 -4.3373e-17 1.60159)
(-0.000628066 1.53023e-15 1.60157)
(-0.000807439 4.50257e-16 1.60154)
(-0.00100475 -1.49139e-16 1.60149)
(-0.00116342 -1.26059e-15 1.60139)
(-0.00147127 4.19253e-16 1.60125)
(-0.0013577 1.05491e-15 1.60096)
(-0.00241963 3.86426e-16 1.60047)
(-0.000458546 3.62177e-16 1.5995)
(-0.00571212 -5.66797e-16 1.59767)
(0.00435275 -6.18066e-16 1.59708)
(-0.0156789 -3.76401e-16 1.602)
(0.00741054 -4.86109e-16 1.59882)
(-0.000118685 1.15415e-15 1.60186)
(-0.000298479 -2.26725e-15 1.60185)
(-0.000476668 -1.30182e-15 1.60184)
(-0.000670362 -5.42035e-16 1.60182)
(-0.000861139 5.59285e-16 1.60179)
(-0.0010724 -1.45088e-16 1.60175)
(-0.00123955 -1.42046e-15 1.60166)
(-0.00156503 -7.58039e-16 1.60152)
(-0.00145753 1.14093e-15 1.60123)
(-0.00251414 3.98827e-16 1.60073)
(-0.000652573 2.52037e-16 1.5998)
(-0.0056172 -2.33161e-16 1.598)
(0.00362261 -8.20338e-16 1.59784)
(-0.0147125 -2.0973e-16 1.60407)
(0.00579386 -2.80978e-16 1.59484)
(-0.000125666 1.21801e-15 1.60212)
(-0.000316296 4.62676e-15 1.60211)
(-0.000504878 4.39418e-15 1.60211)
(-0.00071019 3.14232e-15 1.60209)
(-0.000911474 6.33318e-16 1.60207)
(-0.00113543 -7.7247e-17 1.60202)
(-0.00131052 -1.59422e-16 1.60194)
(-0.00165007 -5.56067e-16 1.60181)
(-0.0015518 1.55204e-15 1.60152)
(-0.00259342 6.0603e-16 1.60101)
(-0.000840106 3.2531e-16 1.60011)
(-0.00551519 -6.69238e-16 1.59836)
(0.00294524 -1.53967e-15 1.5986)
(-0.0138328 -2.92054e-16 1.6061)
(0.00438123 -2.77027e-16 1.59083)
(-0.000132236 1.25489e-15 1.6024)
(-0.000333072 2.60304e-15 1.60239)
(-0.000531377 3.07084e-15 1.60239)
(-0.000747535 2.60358e-15 1.60237)
(-0.000958502 6.689e-16 1.60235)
(-0.00119395 -4.8835e-17 1.60231)
(-0.0013766 -2.4795e-16 1.60223)
(-0.00172712 -1.1989e-16 1.6021)
(-0.00164071 1.60583e-15 1.60183)
(-0.00266024 1.89346e-15 1.6013)
(-0.00102016 1.93407e-16 1.60043)
(-0.00541099 -7.22447e-16 1.59876)
(0.00231848 6.52382e-16 1.59936)
(-0.013034 -4.09996e-16 1.60807)
(0.00314292 -3.26248e-16 1.58678)
(-0.0001384 1.59817e-15 1.60269)
(-0.000348815 5.52823e-15 1.60268)
(-0.000556186 -1.37084e-15 1.60268)
(-0.000782444 5.16555e-15 1.60267)
(-0.00100235 6.56974e-16 1.60265)
(-0.00124815 -4.32048e-17 1.60261)
(-0.00143811 -8.6872e-16 1.60254)
(-0.00179693 -1.1248e-16 1.60241)
(-0.00172453 1.31772e-15 1.60214)
(-0.00271696 2.50192e-16 1.6016)
(-0.00119217 3.17044e-16 1.60077)
(-0.00530803 -3.94008e-16 1.59917)
(0.00173956 -7.72568e-16 1.60012)
(-0.0123096 -3.30798e-16 1.61)
(0.0020544 -9.16742e-16 1.58271)
(-0.000144165 1.63465e-15 1.60299)
(-0.000363546 5.76174e-15 1.60299)
(-0.000579364 4.11479e-15 1.60298)
(-0.000815004 1.42333e-15 1.60298)
(-0.00104318 6.86097e-16 1.60296)
(-0.0012983 2.38413e-17 1.60293)
(-0.00149538 1.51749e-17 1.60286)
(-0.00186026 2.06914e-16 1.60273)
(-0.00180351 2.73286e-15 1.60246)
(-0.00276557 3.17985e-16 1.60191)
(-0.00135587 3.72315e-16 1.60111)
(-0.00520862 -5.41092e-16 1.5996)
(0.00120541 7.13144e-16 1.60088)
(-0.0116533 9.33227e-16 1.61187)
(0.00109526 -1.63297e-15 1.57864)
(-0.000149552 1.38571e-15 1.60331)
(-0.000377311 1.08326e-14 1.6033)
(-0.000600986 8.9325e-15 1.6033)
(-0.000845334 6.10031e-15 1.6033)
(-0.00108119 7.5773e-16 1.60328)
(-0.00134467 1.03516e-16 1.60325)
(-0.00154873 4.34332e-16 1.60319)
(-0.00191783 1.40221e-16 1.60306)
(-0.00187793 -3.68992e-16 1.60279)
(-0.00280773 4.98926e-16 1.60223)
(-0.00151124 8.69866e-16 1.60146)
(-0.00511424 -6.54346e-16 1.60006)
(0.000712828 -6.18546e-16 1.60164)
(-0.011059 -1.0057e-15 1.61368)
(0.000248463 -9.32378e-17 1.57455)
(-0.000154578 1.00337e-15 1.60363)
(-0.000390154 2.35747e-15 1.60363)
(-0.000621145 3.24401e-15 1.60363)
(-0.000873566 2.0503e-15 1.60363)
(-0.00111657 7.64503e-16 1.60362)
(-0.00138756 1.12277e-16 1.60359)
(-0.00159849 1.71333e-15 1.60353)
(-0.00197032 2.49211e-16 1.60339)
(-0.00194807 1.48838e-15 1.60313)
(-0.00284476 5.94003e-16 1.60257)
(-0.00165838 8.90919e-16 1.60183)
(-0.00502579 -2.2955e-16 1.60053)
(0.000258688 -1.22428e-15 1.6024)
(-0.0105209 -9.90586e-16 1.61544)
(-0.000500347 -1.92143e-15 1.57047)
(-0.000159267 1.24272e-15 1.60397)
(-0.000402136 3.58033e-15 1.60397)
(-0.000639936 6.81445e-15 1.60397)
(-0.000899846 4.57816e-15 1.60397)
(-0.00114954 7.3523e-16 1.60396)
(-0.00142727 8.86731e-17 1.60394)
(-0.00164496 -5.6741e-16 1.60387)
(-0.00201834 1.16724e-15 1.60374)
(-0.0020142 1.59985e-15 1.60347)
(-0.00287775 6.45928e-16 1.60291)
(-0.00179755 5.43088e-16 1.6022)
(-0.00494372 -2.24077e-16 1.60101)
(-0.000160071 -1.39322e-15 1.60317)
(-0.0100336 -9.59031e-16 1.61713)
(-0.00116328 -9.29518e-16 1.56639)
(-0.000163642 1.48114e-15 1.60432)
(-0.000413312 4.63264e-15 1.60432)
(-0.000657462 2.63541e-15 1.60432)
(-0.000924318 1.35942e-15 1.60432)
(-0.00118028 7.84985e-16 1.60431)
(-0.00146408 5.07895e-17 1.60429)
(-0.00168842 1.24008e-15 1.60423)
(-0.00206244 -7.02481e-16 1.60409)
(-0.0020766 1.13573e-15 1.60383)
(-0.00290758 6.53736e-16 1.60327)
(-0.00192904 3.63227e-16 1.60258)
(-0.0048682 -5.45174e-17 1.60151)
(-0.000546327 -1.86566e-15 1.60393)
(-0.00959236 -1.92979e-15 1.61877)
(-0.00175069 -3.80265e-16 1.56232)
(-0.000167727 1.43546e-15 1.60467)
(-0.000423745 3.26493e-15 1.60467)
(-0.000673817 8.40498e-15 1.60468)
(-0.000947126 3.12671e-15 1.60468)
(-0.00120898 9.0086e-16 1.60467)
(-0.00149826 8.96788e-18 1.60465)
(-0.00172912 -9.7698e-16 1.60459)
(-0.0021031 1.91889e-16 1.60446)
(-0.0021355 2.06512e-15 1.60419)
(-0.00293491 7.37214e-16 1.60363)
(-0.00205323 3.25746e-16 1.60297)
(-0.00479916 1.82744e-16 1.60201)
(-0.000902792 -5.37069e-16 1.60469)
(-0.0091925 -2.59621e-16 1.62036)
(-0.00227135 -2.97417e-16 1.55826)
(-0.000171543 1.82216e-15 1.60504)
(-0.000433488 -9.85729e-16 1.60504)
(-0.000689101 2.70998e-15 1.60504)
(-0.000968408 5.91988e-15 1.60505)
(-0.00123581 9.18183e-16 1.60504)
(-0.00153007 -1.66984e-17 1.60502)
(-0.00176731 -9.11802e-16 1.60496)
(-0.00214075 -4.97201e-16 1.60482)
(-0.00219117 3.31117e-15 1.60455)
(-0.00296029 8.11044e-16 1.604)
(-0.00217047 5.04551e-16 1.60337)
(-0.0047364 6.70255e-16 1.60253)
(-0.00123196 -8.03243e-16 1.60546)
(-0.00883 -1.70373e-16 1.62189)
(-0.00273288 -5.12221e-16 1.5542)
(-0.000175115 1.74008e-15 1.60541)
(-0.000442601 6.07653e-15 1.60541)
(-0.000703398 7.71059e-15 1.60542)
(-0.000988292 2.10282e-15 1.60542)
(-0.00126095 9.15721e-16 1.60542)
(-0.00155972 -1.81055e-17 1.6054)
(-0.00180319 -7.34969e-16 1.60534)
(-0.00217574 -5.14959e-16 1.6052)
(-0.00224382 5.06119e-16 1.60493)
(-0.00298413 7.07111e-16 1.60438)
(-0.00228117 4.61754e-16 1.60378)
(-0.00467963 -7.82438e-16 1.60305)
(-0.00153614 -7.41006e-16 1.60623)
(-0.00850116 4.29293e-16 1.62336)
(-0.00314179 -3.81494e-16 1.55016)
(-0.000178459 1.52417e-15 1.60579)
(-0.000451131 3.85144e-15 1.60579)
(-0.000716795 2.62974e-15 1.6058)
(-0.0010069 2.37079e-15 1.6058)
(-0.00128453 9.56428e-16 1.6058)
(-0.00158742 -4.60738e-18 1.60578)
(-0.00183696 -6.68738e-16 1.60573)
(-0.00220839 -6.1516e-16 1.60558)
(-0.00229366 8.42478e-16 1.60531)
(-0.00300675 -7.50696e-16 1.60476)
(-0.00238568 4.39578e-16 1.6042)
(-0.0046285 -4.24509e-16 1.60359)
(-0.00181742 -6.32708e-16 1.60699)
(-0.00820264 -1.17982e-15 1.62478)
(-0.00350376 -7.54221e-16 1.54613)
(-0.000181598 1.36575e-15 1.60618)
(-0.00045913 3.43341e-15 1.60618)
(-0.000729363 1.89853e-15 1.60619)
(-0.00102434 2.49581e-15 1.60619)
(-0.00130668 1.00648e-15 1.60619)
(-0.00161336 2.0808e-17 1.60617)
(-0.00186879 -5.8029e-16 1.60612)
(-0.00223897 -5.85099e-16 1.60597)
(-0.00234089 1.9322e-15 1.60569)
(-0.00302839 -4.29674e-16 1.60516)
(-0.00248439 4.40958e-16 1.60463)
(-0.00458262 -3.65835e-16 1.60413)
(-0.00207775 -6.20265e-16 1.60776)
(-0.00793142 -7.05704e-16 1.62615)
(-0.00382371 -1.79204e-15 1.54212)
(-0.000184545 1.22845e-15 1.60657)
(-0.000466639 3.04077e-15 1.60657)
(-0.000741175 1.07305e-15 1.60658)
(-0.0010407 2.34172e-15 1.60659)
(-0.00132753 1.04098e-15 1.60659)
(-0.0016377 5.8986e-17 1.60657)
(-0.00189883 -4.55112e-16 1.60651)
(-0.00226771 5.69492e-17 1.60636)
(-0.00238568 6.87155e-16 1.60608)
(-0.00304923 2.06369e-15 1.60556)
(-0.00257764 4.29706e-16 1.60506)
(-0.0045416 2.80606e-16 1.60468)
(-0.00231884 -5.6927e-16 1.60852)
(-0.00768481 -6.6837e-16 1.62747)
(-0.00410596 3.31607e-16 1.53812)
(-0.000187319 1.11975e-15 1.60697)
(-0.000473699 2.74887e-15 1.60697)
(-0.000752289 1.39603e-15 1.60698)
(-0.00105609 2.27267e-15 1.60699)
(-0.00134718 1.07023e-15 1.60699)
(-0.00166058 1.04499e-16 1.60697)
(-0.00192721 -3.31742e-16 1.60691)
(-0.00229479 2.07225e-16 1.60676)
(-0.0024282 -5.24283e-17 1.60648)
(-0.0030694 -4.53566e-16 1.60597)
(-0.00266576 4.1617e-16 1.6055)
(-0.00450505 8.23011e-16 1.60523)
(-0.0025423 -5.52059e-16 1.60929)
(-0.00746036 -6.8532e-16 1.62874)
(-0.00435428 1.34159e-15 1.53413)
(-0.000189931 1.0243e-15 1.60738)
(-0.000480344 2.50849e-15 1.60738)
(-0.000762764 6.14582e-15 1.60739)
(-0.00107058 2.19262e-15 1.6074)
(-0.00136571 1.09306e-15 1.6074)
(-0.00168212 1.54189e-16 1.60738)
(-0.00195407 -2.21983e-16 1.60732)
(-0.00232039 3.03515e-16 1.60716)
(-0.00246859 -1.07376e-16 1.60688)
(-0.00308899 1.14888e-15 1.60638)
(-0.00274906 4.44358e-16 1.60595)
(-0.00447258 -1.55492e-15 1.6058)
(-0.00274955 -5.44042e-16 1.61006)
(-0.00725589 -6.71585e-16 1.62996)
(-0.00457202 -1.17077e-15 1.53016)
(-0.000192395 9.18157e-16 1.60779)
(-0.00048661 2.12025e-15 1.60779)
(-0.000772645 7.50646e-16 1.6078)
(-0.00108424 2.07861e-15 1.60781)
(-0.00138323 1.11117e-15 1.60781)
(-0.00170245 2.03591e-16 1.60779)
(-0.00197949 -1.24217e-16 1.60773)
(-0.00234463 3.92122e-16 1.60757)
(-0.00250697 2.08123e-16 1.60729)
(-0.00310806 1.36717e-15 1.6068)
(-0.00282782 4.88443e-16 1.60641)
(-0.00444381 2.56691e-16 1.60636)
(-0.00294188 -5.21839e-16 1.61082)
(-0.00706941 -6.7575e-16 1.63113)
(-0.00476208 5.99603e-17 1.52622)
(-0.00019472 8.51486e-16 1.6082)
(-0.00049252 1.1288e-15 1.60821)
(-0.00078198 4.91935e-15 1.60822)
(-0.00109713 2.18563e-15 1.60823)
(-0.00139979 1.13776e-15 1.60823)
(-0.00172164 2.51195e-16 1.60821)
(-0.00200359 -3.42186e-17 1.60814)
(-0.00236764 5.3125e-16 1.60798)
(-0.00254348 8.25646e-16 1.6077)
(-0.00312666 4.35736e-16 1.60723)
(-0.00290232 5.4804e-16 1.60687)
(-0.0044184 4.63359e-16 1.60693)
(-0.00312047 -4.9007e-16 1.61159)
(-0.00689916 -6.68215e-16 1.63225)
(-0.0049271 2.23854e-16 1.52229)
(-0.000196919 1.241e-15 1.60863)
(-0.000498104 4.2157e-15 1.60863)
(-0.000790801 -3.85103e-15 1.60864)
(-0.00110931 1.86091e-15 1.60865)
(-0.00141546 1.11863e-15 1.60865)
(-0.00173978 2.90519e-16 1.60863)
(-0.00202643 1.02801e-17 1.60856)
(-0.0023895 2.01725e-15 1.6084)
(-0.00257822 1.57385e-16 1.60812)
(-0.0031448 4.33631e-16 1.60766)
(-0.0029728 5.801e-16 1.60734)
(-0.00439602 3.68521e-16 1.60751)
(-0.00328639 -5.06551e-16 1.61235)
(-0.00674353 -6.49224e-16 1.63332)
(-0.00506936 3.08124e-16 1.51837)
(-0.000198997 1.10463e-15 1.60905)
(-0.00050338 4.14424e-15 1.60906)
(-0.000799149 4.68083e-15 1.60907)
(-0.00112082 1.75581e-15 1.60907)
(-0.00143029 1.08235e-15 1.60908)
(-0.00175696 3.22226e-16 1.60905)
(-0.00204811 5.08995e-17 1.60898)
(-0.00241031 5.49147e-18 1.60882)
(-0.00261128 -7.59729e-16 1.60854)
(-0.00316249 1.65651e-15 1.6081)
(-0.00303948 5.76367e-16 1.60782)
(-0.00437635 9.8408e-18 1.60808)
(-0.00344059 -4.78272e-16 1.61311)
(-0.00660108 -8.28252e-16 1.63435)
(-0.00519096 -8.34586e-17 1.51448)
(-0.000200964 8.86144e-16 1.60948)
(-0.000508373 1.95942e-15 1.60949)
(-0.000807047 -1.33328e-15 1.6095)
(-0.00113171 1.41206e-15 1.6095)
(-0.00144435 1.06478e-15 1.60951)
(-0.00177322 3.34577e-16 1.60948)
(-0.00206867 -1.82862e-16 1.60941)
(-0.00243012 1.04891e-16 1.60925)
(-0.00264276 9.44196e-16 1.60897)
(-0.00317974 2.33739e-15 1.60855)
(-0.00310258 5.26585e-16 1.6083)
(-0.0043591 -2.23709e-17 1.60867)
(-0.00358394 -5.45285e-16 1.61387)
(-0.00647052 -1.05706e-15 1.63533)
(-0.00529372 -9.16304e-17 1.51062)
(-0.000202825 7.79384e-16 1.60992)
(-0.000513094 1.9039e-15 1.60992)
(-0.000814528 -2.08542e-15 1.60993)
(-0.00114202 1.90606e-15 1.60994)
(-0.00145766 1.09078e-15 1.60994)
(-0.00178862 3.46101e-16 1.60992)
(-0.00208819 -1.91219e-16 1.60984)
(-0.00244899 8.60809e-17 1.60968)
(-0.00267272 1.02682e-15 1.6094)
(-0.00319653 6.02246e-16 1.60899)
(-0.00316228 4.9795e-16 1.60878)
(-0.00434401 -1.57704e-16 1.60925)
(-0.00371723 -5.94073e-16 1.61463)
(-0.00635068 -1.06189e-15 1.63627)
(-0.00537932 -1.7194e-16 1.50677)
(-0.000204588 8.01451e-16 1.61035)
(-0.000517564 2.805e-15 1.61036)
(-0.000821608 2.29203e-15 1.61037)
(-0.00115178 -9.25648e-16 1.61038)
(-0.00147028 1.11617e-15 1.61038)
(-0.00180322 3.67531e-16 1.61035)
(-0.00210671 -9.84631e-17 1.61028)
(-0.00246697 -1.67509e-15 1.61011)
(-0.00270123 6.89362e-16 1.60984)
(-0.00321285 1.15311e-15 1.60945)
(-0.00321877 1.92384e-15 1.60928)
(-0.00433083 7.28077e-17 1.60984)
(-0.00384119 -6.75844e-16 1.61539)
(-0.00624051 -7.04502e-16 1.63717)
(-0.00544922 -1.44894e-15 1.50295)
(-0.000206256 8.66499e-16 1.6108)
(-0.000521792 2.72779e-15 1.6108)
(-0.000828315 -4.06143e-15 1.61081)
(-0.00116101 2.05011e-15 1.61082)
(-0.00148223 1.09193e-15 1.61082)
(-0.00181705 3.80655e-16 1.61079)
(-0.00212428 2.23785e-16 1.61072)
(-0.0024841 4.28593e-16 1.61055)
(-0.00272837 1.19774e-15 1.61028)
(-0.00322869 1.45342e-15 1.60991)
(-0.0032722 5.44826e-16 1.60977)
(-0.00431935 2.79742e-16 1.61043)
(-0.00395645 -8.09239e-16 1.61614)
(-0.00613904 1.19302e-16 1.63802)
(-0.00550479 -1.70934e-16 1.49915)
(-0.000207835 9.33867e-16 1.61124)
(-0.000525794 2.69474e-15 1.61125)
(-0.000834659 2.02927e-15 1.61126)
(-0.00116975 1.1677e-15 1.61126)
(-0.00149354 1.07069e-15 1.61126)
(-0.00183015 1.69686e-16 1.61124)
(-0.00214095 -6.80353e-16 1.61116)
(-0.00250042 3.98321e-16 1.61099)
(-0.00275419 1.09146e-15 1.61073)
(-0.00324403 2.26083e-15 1.61037)
(-0.00332272 5.23271e-16 1.61027)
(-0.00430934 1.78306e-16 1.61103)
(-0.00406361 -8.56871e-16 1.61689)
(-0.00604544 -1.23009e-15 1.63882)
(-0.00554723 -1.99854e-16 1.49537)
(-0.000209327 9.33317e-16 1.61169)
(-0.000529577 2.50581e-15 1.6117)
(-0.000840664 1.53888e-15 1.61171)
(-0.00117801 2.01644e-15 1.61171)
(-0.00150425 1.13372e-15 1.61171)
(-0.00184255 -1.83868e-15 1.61168)
(-0.00215674 -7.62925e-16 1.6116)
(-0.00251596 2.64235e-16 1.61143)
(-0.00277873 6.06178e-16 1.61117)
(-0.00325885 -4.34313e-16 1.61084)
(-0.00337048 5.85307e-16 1.61078)
(-0.00430062 -7.70108e-17 1.61162)
(-0.00416321 -1.42067e-15 1.61764)
(-0.00595891 -9.29598e-16 1.63959)
(-0.00557767 1.48003e-17 1.49162)
(-0.000210739 9.03272e-16 1.61214)
(-0.000533154 2.37431e-15 1.61215)
(-0.000846337 1.55018e-15 1.61216)
(-0.00118582 1.87424e-15 1.61217)
(-0.00151437 1.20358e-15 1.61216)
(-0.00185428 9.34411e-16 1.61213)
(-0.0021717 -1.01367e-16 1.61205)
(-0.00253073 3.02661e-16 1.61188)
(-0.00280205 -3.86214e-16 1.61163)
(-0.00327314 1.61645e-15 1.61131)
(-0.0034156 5.86423e-16 1.61129)
(-0.00429303 4.6911e-16 1.61222)
(-0.00425575 -1.17602e-16 1.61838)
(-0.00587876 -1e-15 1.64031)
(-0.00559708 -7.03601e-16 1.4879)
(-0.000212072 8.72217e-16 1.6126)
(-0.000536529 2.39277e-15 1.6126)
(-0.000851699 -1.27071e-15 1.61261)
(-0.0011932 1.98618e-15 1.61262)
(-0.00152393 1.24214e-15 1.61262)
(-0.00186536 8.12905e-16 1.61259)
(-0.00218585 -2.30713e-17 1.6125)
(-0.00254476 3.36119e-16 1.61233)
(-0.00282419 -1.67816e-16 1.61208)
(-0.00328688 2.14646e-15 1.61179)
(-0.00345819 5.35754e-16 1.6118)
(-0.0042864 -7.02349e-16 1.61282)
(-0.00434167 -5.29861e-16 1.61913)
(-0.00580435 -9.49504e-16 1.64099)
(-0.0056064 -2.66201e-16 1.4842)
(-0.000213329 8.04471e-16 1.61306)
(-0.000539715 2.29909e-15 1.61306)
(-0.000856753 4.27274e-15 1.61307)
(-0.00120016 2.00199e-15 1.61308)
(-0.00153295 1.2511e-15 1.61307)
(-0.00187583 6.78141e-16 1.61304)
(-0.00219922 2.91468e-17 1.61296)
(-0.00255808 3.07614e-16 1.61279)
(-0.00284519 3.79174e-16 1.61254)
(-0.00330006 1.39833e-15 1.61227)
(-0.00349838 5.93907e-16 1.61232)
(-0.00428058 5.23641e-16 1.61342)
(-0.00442139 -4.1606e-16 1.61986)
(-0.00573513 -9.31637e-16 1.64162)
(-0.00560644 2.84365e-16 1.48053)
(-0.000214513 6.92228e-16 1.61352)
(-0.000542715 1.81871e-15 1.61352)
(-0.000861518 6.09383e-15 1.61353)
(-0.00120671 1.77206e-15 1.61354)
(-0.00154145 1.23725e-15 1.61353)
(-0.00188569 6.89909e-16 1.6135)
(-0.00221185 8.67088e-17 1.61341)
(-0.0025707 2.81594e-16 1.61324)
(-0.00286508 1.24365e-16 1.61301)
(-0.00331266 2.66417e-15 1.61275)
(-0.00353626 6.6184e-16 1.61284)
(-0.00427547 -4.94041e-16 1.61402)
(-0.00449528 -4.18732e-16 1.6206)
(-0.00567054 -9.11786e-16 1.64222)
(-0.00559801 -1.27313e-16 1.47688)
(-0.000215628 5.71822e-16 1.61398)
(-0.000545538 1.34069e-15 1.61398)
(-0.000865997 -5.17421e-15 1.61399)
(-0.00121287 1.60442e-15 1.614)
(-0.00154944 1.21083e-15 1.61399)
(-0.00189497 6.71617e-16 1.61396)
(-0.00222375 1.26025e-16 1.61387)
(-0.00258263 2.71518e-16 1.6137)
(-0.00288391 3.22898e-16 1.61347)
(-0.00332467 1.10769e-15 1.61324)
(-0.00357194 7.67264e-16 1.61337)
(-0.00427093 2.51507e-15 1.61463)
(-0.00456369 -3.96492e-16 1.62133)
(-0.00561016 -8.88598e-16 1.64278)
(-0.00558176 -7.04455e-16 1.47327)
(-0.000216673 4.55133e-16 1.61444)
(-0.000548187 2.73615e-16 1.61445)
(-0.000870206 4.45632e-16 1.61446)
(-0.00121865 1.41169e-15 1.61446)
(-0.00155695 1.16097e-15 1.61446)
(-0.0019037 5.31189e-16 1.61442)
(-0.00223496 1.46367e-16 1.61433)
(-0.0025939 2.30682e-16 1.61417)
(-0.0029017 1.55529e-15 1.61394)
(-0.00333609 1.10629e-15 1.61373)
(-0.0036055 9.22699e-16 1.61389)
(-0.00426687 2.6486e-15 1.61523)
(-0.00462695 -3.68669e-16 1.62205)
(-0.00555352 -8.52865e-16 1.64329)
(-0.00555838 1.47819e-15 1.46969)
(-0.000217654 8.40516e-16 1.61491)
(-0.000550671 -3.64953e-15 1.61492)
(-0.000874147 4.82193e-15 1.61492)
(-0.00122407 -2.01538e-15 1.61493)
(-0.00156399 1.14138e-15 1.61492)
(-0.00191187 -1.81944e-15 1.61489)
(-0.00224548 1.71786e-16 1.6148)
(-0.00260452 1.80089e-16 1.61463)
(-0.00291848 -1.28559e-17 1.61442)
(-0.00334691 8.58368e-16 1.61422)
(-0.00363703 2.87062e-16 1.61442)
(-0.00426319 1.74733e-15 1.61584)
(-0.00468536 -3.78357e-16 1.62278)
(-0.00550028 3.72042e-16 1.64377)
(-0.00552843 -1.16492e-15 1.46613)
(-0.00021857 8.28162e-16 1.61538)
(-0.000552992 3.66258e-15 1.61538)
(-0.000877834 -3.85481e-15 1.61539)
(-0.00122914 1.75326e-15 1.6154)
(-0.00157056 1.15612e-15 1.61539)
(-0.00191952 8.32331e-16 1.61535)
(-0.00225535 2.04458e-16 1.61526)
(-0.0026145 1.27972e-16 1.6151)
(-0.0029343 1.13256e-15 1.61489)
(-0.00335712 1.37693e-15 1.61472)
(-0.00366661 3.02111e-16 1.61495)
(-0.00425981 9.97482e-16 1.61644)
(-0.00473918 -4.00579e-16 1.62349)
(-0.00545005 -9.69793e-16 1.64421)
(-0.00549251 -7.00197e-16 1.46261)
(-0.000219424 6.51202e-16 1.61585)
(-0.000555158 1.52671e-15 1.61586)
(-0.000881269 -1.0302e-15 1.61586)
(-0.00123386 1.66522e-15 1.61587)
(-0.0015767 1.14121e-15 1.61586)
(-0.00192666 7.3142e-16 1.61582)
(-0.00226458 2.19396e-16 1.61573)
(-0.00262386 1.01877e-16 1.61557)
(-0.00294917 -4.92854e-16 1.61537)
(-0.00336673 7.88477e-16 1.61521)
(-0.00369432 6.79842e-16 1.61549)
(-0.00425666 1.42654e-15 1.61705)
(-0.00478868 -4.05175e-16 1.6242)
(-0.00540256 -9.3749e-16 1.6446)
(-0.00545106 -5.72965e-16 1.45911)
(-0.000220218 5.49882e-16 1.61632)
(-0.00055717 1.15279e-15 1.61633)
(-0.000884466 -6.26654e-16 1.61634)
(-0.00123825 1.5293e-15 1.61634)
(-0.0015824 1.05942e-15 1.61633)
(-0.00193331 6.06437e-16 1.61629)
(-0.0022732 2.19826e-16 1.6162)
(-0.00263261 9.3125e-17 1.61604)
(-0.00296313 1.14231e-15 1.61585)
(-0.00337573 -1.42554e-16 1.61571)
(-0.00372025 6.97355e-16 1.61602)
(-0.00425368 4.05967e-16 1.61765)
(-0.0048341 -4.05833e-16 1.62491)
(-0.00535749 -9.26566e-16 1.64496)
(-0.00540463 2.50814e-15 1.45565)
(-0.000220953 3.11821e-16 1.6168)
(-0.000559036 1.0742e-15 1.6168)
(-0.000887425 2.79716e-15 1.61681)
(-0.00124231 1.51068e-15 1.61682)
(-0.00158769 9.33498e-16 1.61681)
(-0.00193947 6.12373e-16 1.61676)
(-0.00228122 2.53636e-16 1.61667)
(-0.00264077 8.46782e-17 1.61651)
(-0.0029762 -5.53493e-16 1.61633)
(-0.00338414 2.20301e-15 1.61622)
(-0.00374446 7.82786e-16 1.61656)
(-0.0042508 3.68912e-16 1.61826)
(-0.00487566 -2.6737e-16 1.62561)
(-0.00531463 -9.11107e-16 1.64529)
(-0.00535359 3.95412e-16 1.45222)
(-0.000221631 3.14553e-16 1.61728)
(-0.000560755 7.96182e-15 1.61728)
(-0.000890158 3.42019e-16 1.61729)
(-0.00124607 1.37843e-15 1.61729)
(-0.00159258 -1.1931e-15 1.61728)
(-0.00194516 6.11138e-16 1.61724)
(-0.00228867 2.07847e-15 1.61714)
(-0.00264836 6.82086e-17 1.61699)
(-0.00298843 -1.7876e-16 1.61682)
(-0.00339196 2.41283e-16 1.61672)
(-0.00376702 8.01334e-16 1.6171)
(-0.00424799 2.12758e-16 1.61886)
(-0.00491356 -2.80236e-16 1.62631)
(-0.00527369 -8.83032e-16 1.64557)
(-0.00529842 1.88203e-15 1.44883)
(-0.000222253 5.5295e-16 1.61775)
(-0.000562336 7.26123e-16 1.61776)
(-0.000892665 -5.8908e-15 1.61776)
(-0.00124951 1.15497e-15 1.61777)
(-0.00159707 1.47676e-15 1.61776)
(-0.00195041 5.7041e-16 1.61771)
(-0.00229556 -1.82597e-17 1.61762)
(-0.00265539 4.81353e-17 1.61747)
(-0.00299983 9.90316e-16 1.6173)
(-0.00339919 -9.2926e-17 1.61723)
(-0.00378801 7.94107e-16 1.61764)
(-0.00424521 -1.27959e-16 1.61947)
(-0.00494802 -5.03548e-16 1.62699)
(-0.00523454 -8.69891e-16 1.64582)
(-0.00523943 5.45286e-16 1.44546)
(-0.00022282 1.81273e-16 1.61823)
(-0.000563776 1.54046e-16 1.61824)
(-0.000894957 -6.85798e-16 1.61824)
(-0.00125266 9.5365e-16 1.61825)
(-0.00160118 7.81374e-16 1.61823)
(-0.00195521 5.0996e-16 1.61819)
(-0.00230191 -2.96296e-17 1.61809)
(-0.00266188 4.78531e-17 1.61795)
(-0.00301044 -4.95886e-16 1.61779)
(-0.00340586 2.26134e-15 1.61774)
(-0.0038075 8.77887e-16 1.61818)
(-0.00424242 -7.03346e-16 1.62007)
(-0.00497922 -4.93802e-16 1.62768)
(-0.00519692 -8.64656e-16 1.64603)
(-0.00517706 8.55708e-16 1.44213)
(-0.000223333 -1.85339e-16 1.61871)
(-0.000565082 1.25291e-16 1.61872)
(-0.000897031 -3.96474e-15 1.61872)
(-0.00125551 9.08416e-16 1.61872)
(-0.00160492 1.26301e-15 1.61871)
(-0.00195958 4.90714e-16 1.61866)
(-0.00230774 4.83518e-17 1.61857)
(-0.00266784 5.4076e-17 1.61843)
(-0.00302029 1.33676e-15 1.61828)
(-0.00341197 1.72516e-15 1.61825)
(-0.00382555 9.70182e-16 1.61873)
(-0.00423961 2.68822e-15 1.62068)
(-0.00500735 -4.80515e-16 1.62835)
(-0.00516076 -8.37381e-16 1.64621)
(-0.00511155 3.24809e-16 1.43883)
(-0.000223791 -1.35497e-16 1.61919)
(-0.000566252 1.53873e-16 1.6192)