/*--------------------------------*- C++ -*----------------------------------*\
  =========                 |
  \\      /  F ield         | OpenFOAM: The Open Source CFD Toolbox
   \\    /   O peration     | Website:  https://openfoam.org
    \\  /    A nd           | Version:  7
     \\/     M anipulation  |
\*---------------------------------------------------------------------------*/
FoamFile
{
    version     2.0;
    format      ascii;
    class       volScalarField;
    location    "300";
    object      k;
}
// * * * * * * * * * * * * * * * * * * * * * * * * * * * * * * * * * * * * * //

dimensions      [0 2 -2 0 0 0 0];

internalField   nonuniform List<scalar> 
32100
(
9.74475e+07
9.7216e+07
9.67648e+07
9.60356e+07
9.50979e+07
9.40009e+07
9.28052e+07
9.15863e+07
9.04369e+07
8.94491e+07
8.87196e+07
8.83319e+07
8.8331e+07
8.86066e+07
8.85404e+07
9.55274e+07
9.53589e+07
9.49835e+07
9.44054e+07
9.36597e+07
9.27855e+07
9.18281e+07
9.08477e+07
8.99163e+07
8.91062e+07
8.8487e+07
8.81156e+07
8.80016e+07
8.8055e+07
8.79983e+07
9.40523e+07
9.39224e+07
9.36244e+07
9.31692e+07
9.25853e+07
9.18958e+07
9.1132e+07
9.03377e+07
8.95668e+07
8.88764e+07
8.83246e+07
8.79479e+07
8.77616e+07
8.77146e+07
8.76588e+07
9.29657e+07
9.28613e+07
9.26232e+07
9.22878e+07
9.18425e+07
9.1304e+07
9.06912e+07
9.00348e+07
8.93761e+07
8.8764e+07
8.82435e+07
8.78588e+07
8.76239e+07
8.75216e+07
8.74666e+07
9.21939e+07
9.21152e+07
9.19449e+07
9.17024e+07
9.13771e+07
9.09668e+07
9.04757e+07
8.99234e+07
8.93428e+07
8.87707e+07
8.82642e+07
8.78597e+07
8.75782e+07
8.74373e+07
8.73828e+07
9.16844e+07
9.16158e+07
9.14741e+07
9.13572e+07
9.11503e+07
9.08567e+07
9.04674e+07
8.99934e+07
8.94608e+07
8.89128e+07
8.83905e+07
8.79436e+07
8.76124e+07
8.74348e+07
8.73805e+07
9.14048e+07
9.13439e+07
9.12799e+07
9.12279e+07
9.11325e+07
9.0954e+07
9.06555e+07
9.02442e+07
8.97486e+07
8.91916e+07
8.86282e+07
8.81094e+07
8.77139e+07
8.74925e+07
8.74382e+07
9.13363e+07
9.12602e+07
9.12265e+07
9.12684e+07
9.12988e+07
9.12502e+07
9.10367e+07
9.06701e+07
9.02016e+07
8.96257e+07
8.89781e+07
8.83565e+07
8.78798e+07
8.75867e+07
8.75347e+07
9.14699e+07
9.12996e+07
9.12718e+07
9.14308e+07
9.16288e+07
9.17492e+07
9.16187e+07
9.12823e+07
9.08271e+07
9.02406e+07
8.94836e+07
8.87015e+07
8.81046e+07
8.77207e+07
8.76737e+07
9.1969e+07
9.14674e+07
9.13493e+07
9.1709e+07
9.209e+07
9.24739e+07
9.24191e+07
9.20884e+07
9.16624e+07
9.10678e+07
9.02038e+07
8.92527e+07
8.84816e+07
8.79219e+07
8.78784e+07
9.35753e+07
9.21007e+07
9.15781e+07
9.2185e+07
9.27789e+07
9.34626e+07
9.33557e+07
9.30737e+07
9.27581e+07
9.22158e+07
9.1314e+07
8.99308e+07
8.95154e+07
8.8999e+07
8.89571e+07
9.52605e+07
9.59289e+07
1.01189e+08
9.93072e+07
9.41303e+07
9.51087e+07
9.48345e+07
9.44169e+07
9.44323e+07
9.47201e+07
9.44845e+07
9.09606e+07
9.15435e+07
9.22698e+07
9.22302e+07
9.66007e+07
1.09968e+08
1.62041e+08
1.1611e+08
1.0137e+08
9.9776e+07
1.00121e+08
9.74367e+07
9.83432e+07
1.10623e+08
1.52411e+08
1.49375e+08
1.05939e+08
1.23861e+08
1.23832e+08
1.65606e+08
3.07222e+08
3.60027e+08
3.33191e+08
2.77412e+08
1.43631e+08
1.65593e+08
1.28862e+08
1.22347e+08
1.63566e+08
2.6289e+08
2.66559e+08
1.37692e+08
2.37779e+08
2.37736e+08
4.6586e+08
4.94592e+08
4.92348e+08
4.8556e+08
4.41579e+08
4.0237e+08
3.70287e+08
3.56302e+08
3.5721e+08
3.16071e+08
3.5456e+08
3.67963e+08
3.4197e+08
3.17304e+08
3.17257e+08
5.77984e+08
6.19142e+08
6.16138e+08
5.99043e+08
5.64697e+08
5.08171e+08
4.81556e+08
4.63006e+08
4.5017e+08
4.06114e+08
4.03762e+08
4.06809e+08
4.02757e+08
3.76214e+08
3.7616e+08
6.42801e+08
6.62608e+08
6.51593e+08
6.35759e+08
5.96157e+08
5.55775e+08
5.2736e+08
5.17056e+08
4.95188e+08
4.56963e+08
4.37066e+08
4.39345e+08
4.35313e+08
4.15377e+08
4.1532e+08
6.91268e+08
6.981e+08
6.85038e+08
6.68598e+08
6.30595e+08
5.91572e+08
5.5369e+08
5.35908e+08
5.21071e+08
4.93768e+08
4.63547e+08
4.62446e+08
4.61706e+08
4.46655e+08
4.46596e+08
7.35565e+08
7.36768e+08
7.34075e+08
7.1527e+08
6.77732e+08
6.36465e+08
5.95408e+08
5.57146e+08
5.45298e+08
5.22049e+08
4.92349e+08
4.91393e+08
4.90717e+08
4.82046e+08
4.81981e+08
7.84657e+08
7.84517e+08
7.99835e+08
7.89087e+08
7.39826e+08
6.96875e+08
6.56748e+08
6.13318e+08
5.8691e+08
5.58594e+08
5.28082e+08
5.33105e+08
5.32063e+08
5.19211e+08
5.19143e+08
8.54355e+08
8.59869e+08
8.94214e+08
8.82299e+08
8.23364e+08
7.79728e+08
7.49839e+08
7.05755e+08
6.57822e+08
6.16566e+08
5.7014e+08
5.64082e+08
5.64629e+08
5.60416e+08
5.60343e+08
9.48168e+08
9.63447e+08
1.00278e+09
9.90235e+08
9.31079e+08
8.76532e+08
8.80193e+08
8.4646e+08
7.67358e+08
7.05413e+08
6.31958e+08
6.13526e+08
6.1625e+08
6.11207e+08
6.11128e+08
1.07567e+09
1.09802e+09
1.1392e+09
1.13054e+09
1.06862e+09
1.00029e+09
1.03607e+09
1.01071e+09
9.15598e+08
8.33308e+08
7.23566e+08
6.95715e+08
6.99288e+08
6.77672e+08
6.77585e+08
1.23801e+09
1.2648e+09
1.2974e+09
1.30172e+09
1.24468e+09
1.17544e+09
1.20613e+09
1.19815e+09
1.09562e+09
9.89951e+08
8.53357e+08
8.11148e+08
8.13138e+08
7.65153e+08
7.65056e+08
1.44002e+09
1.45495e+09
1.47938e+09
1.50212e+09
1.449e+09
1.37246e+09
1.38565e+09
1.38883e+09
1.30328e+09
1.16713e+09
1.00594e+09
9.61449e+08
9.52703e+08
8.78448e+08
8.78339e+08
1.69247e+09
1.69284e+09
1.71713e+09
1.75087e+09
1.68893e+09
1.59048e+09
1.57135e+09
1.56117e+09
1.51816e+09
1.36956e+09
1.17526e+09
1.14083e+09
1.11237e+09
1.02014e+09
1.02001e+09
1.9744e+09
1.96866e+09
1.99198e+09
2.02713e+09
1.95842e+09
1.83349e+09
1.78378e+09
1.74721e+09
1.73278e+09
1.58554e+09
1.34707e+09
1.30956e+09
1.28536e+09
1.19339e+09
1.19324e+09
2.27717e+09
2.25783e+09
2.27353e+09
2.29536e+09
2.25176e+09
2.11188e+09
2.035e+09
1.96174e+09
1.93795e+09
1.8438e+09
1.53216e+09
1.48438e+09
1.47026e+09
1.41734e+09
1.41716e+09
2.639e+09
2.55883e+09
2.5485e+09
2.56367e+09
2.5682e+09
2.44507e+09
2.34083e+09
2.216e+09
2.17436e+09
2.11419e+09
1.78867e+09
1.72326e+09
1.71083e+09
1.72689e+09
1.72667e+09
3.15562e+09
2.98982e+09
2.90539e+09
2.91873e+09
2.97862e+09
2.8839e+09
2.75883e+09
2.56677e+09
2.52679e+09
2.50608e+09
2.13914e+09
2.00308e+09
1.99978e+09
2.13263e+09
2.13235e+09
3.9746e+09
3.77183e+09
3.56391e+09
3.42281e+09
3.49137e+09
3.42356e+09
3.28711e+09
3.07867e+09
3.03657e+09
3.04113e+09
2.61911e+09
2.32986e+09
2.35653e+09
2.66228e+09
2.66192e+09
5.13491e+09
5.0739e+09
5.04501e+09
4.10538e+09
4.16495e+09
4.08139e+09
3.89968e+09
3.83469e+09
3.81506e+09
3.71842e+09
3.25069e+09
2.82991e+09
2.93909e+09
3.37094e+09
3.37049e+09
6.40629e+09
6.42232e+09
6.46008e+09
5.19534e+09
5.08563e+09
4.86712e+09
4.58073e+09
4.68825e+09
4.70616e+09
4.52337e+09
4.05501e+09
3.74816e+09
3.86004e+09
4.26129e+09
4.2607e+09
7.68735e+09
7.28636e+09
7.27111e+09
6.81231e+09
6.25468e+09
5.78951e+09
5.31676e+09
5.74606e+09
5.78598e+09
5.54243e+09
5.09308e+09
4.95614e+09
5.00144e+09
5.32815e+09
5.3274e+09
9.21558e+09
8.5796e+09
8.40268e+09
8.74788e+09
7.74665e+09
6.89148e+09
6.273e+09
7.01907e+09
7.01274e+09
6.80985e+09
6.39308e+09
6.3076e+09
6.30937e+09
6.57242e+09
6.57148e+09
1.10204e+10
1.0792e+10
1.07828e+10
1.0939e+10
9.64916e+09
8.30216e+09
7.9744e+09
8.33875e+09
8.32133e+09
8.20218e+09
7.96199e+09
7.81479e+09
7.78099e+09
8.00132e+09
8.00014e+09
1.27959e+10
1.28023e+10
1.27848e+10
1.24045e+10
1.16655e+10
1.02325e+10
9.74487e+09
9.75147e+09
9.89486e+09
9.77638e+09
9.73448e+09
9.43086e+09
9.40996e+09
9.63257e+09
9.63111e+09
1.44093e+10
1.46076e+10
1.4669e+10
1.36595e+10
1.34271e+10
1.29908e+10
1.17972e+10
1.13319e+10
1.20697e+10
1.19176e+10
1.20053e+10
1.1307e+10
1.13007e+10
1.15021e+10
1.15003e+10
1.57917e+10
1.53971e+10
1.53786e+10
1.50383e+10
1.597e+10
1.7736e+10
1.55042e+10
1.33648e+10
1.54803e+10
1.54605e+10
1.53545e+10
1.37546e+10
1.3614e+10
1.362e+10
1.36179e+10
1.77965e+10
1.64676e+10
1.62247e+10
1.67034e+10
2.23684e+10
2.48741e+10
2.25324e+10
1.67322e+10
2.01203e+10
2.0335e+10
1.95957e+10
1.70269e+10
1.62799e+10
1.58845e+10
1.58819e+10
2.23652e+10
1.97862e+10
1.9058e+10
2.20906e+10
3.20844e+10
3.48062e+10
3.21969e+10
2.42291e+10
2.52458e+10
2.5708e+10
2.47819e+10
2.14055e+10
1.89294e+10
1.79901e+10
1.7987e+10
3.1606e+10
2.82541e+10
2.59769e+10
3.38226e+10
4.36965e+10
4.68047e+10
4.45816e+10
3.23803e+10
2.88778e+10
3.08813e+10
3.18272e+10
2.82242e+10
2.05006e+10
1.93848e+10
1.93816e+10
4.49484e+10
4.23884e+10
4.0982e+10
4.95391e+10
5.65393e+10
6.06521e+10
5.97071e+10
5.36164e+10
3.19593e+10
3.69693e+10
4.2278e+10
3.90022e+10
2.35235e+10
2.04908e+10
2.04876e+10
6.02708e+10
5.93498e+10
5.96379e+10
6.44406e+10
7.03554e+10
7.54494e+10
7.52903e+10
7.11234e+10
6.32674e+10
4.49422e+10
4.60034e+10
4.60661e+10
3.02394e+10
2.16495e+10
2.16463e+10
7.56935e+10
7.58389e+10
7.59949e+10
7.85768e+10
8.38131e+10
8.97823e+10
9.12808e+10
9.54433e+10
8.44286e+10
7.77301e+10
5.03506e+10
6.08138e+10
5.72126e+10
2.24337e+10
2.24309e+10
8.76712e+10
8.87689e+10
9.05471e+10
9.1806e+10
9.59787e+10
1.01792e+11
1.04537e+11
1.1142e+11
1.10082e+11
1.03892e+11
1.00388e+11
9.4837e+10
8.9665e+10
7.86786e+10
7.86665e+10
9.71932e+10
9.88555e+10
9.95656e+10
1.01092e+11
1.0642e+11
1.10996e+11
1.13847e+11
1.2165e+11
1.29126e+11
1.28805e+11
1.21322e+11
1.18907e+11
1.15243e+11
1.10009e+11
1.09991e+11
1.05838e+11
1.07441e+11
1.07706e+11
1.09348e+11
1.16405e+11
1.20711e+11
1.22792e+11
1.28618e+11
1.33292e+11
1.36214e+11
1.3169e+11
1.29748e+11
1.28335e+11
1.26797e+11
1.26775e+11
1.13826e+11
1.16279e+11
1.18842e+11
1.19689e+11
1.28568e+11
1.33503e+11
1.33406e+11
1.33764e+11
1.36922e+11
1.37397e+11
1.37148e+11
1.35193e+11
1.34258e+11
1.34026e+11
1.33994e+11
1.21487e+11
1.24822e+11
1.27268e+11
1.28783e+11
1.40977e+11
1.45455e+11
1.44224e+11
1.38359e+11
1.38633e+11
1.39029e+11
1.38446e+11
1.3754e+11
1.36884e+11
1.36837e+11
1.36782e+11
1.28173e+11
1.30702e+11
1.31198e+11
1.34858e+11
1.51565e+11
1.54506e+11
1.49848e+11
1.40091e+11
1.39058e+11
1.39066e+11
1.39036e+11
1.38595e+11
1.38097e+11
1.38068e+11
1.37961e+11
1.35338e+11
1.35804e+11
1.34365e+11
1.48819e+11
1.61812e+11
1.63589e+11
1.55796e+11
1.43503e+11
1.39262e+11
1.39154e+11
1.39128e+11
1.38987e+11
1.38732e+11
1.38707e+11
1.38405e+11
1.45581e+11
1.47397e+11
1.48417e+11
1.62219e+11
1.71974e+11
1.70004e+11
1.61085e+11
1.47322e+11
1.40093e+11
1.39394e+11
1.3937e+11
1.39365e+11
1.3927e+11
1.39246e+11
1.38245e+11
1.55515e+11
1.5718e+11
1.59566e+11
1.7325e+11
1.76609e+11
1.77149e+11
1.73046e+11
1.51643e+11
1.41736e+11
1.40249e+11
1.40224e+11
1.40284e+11
1.40034e+11
1.40012e+11
1.37614e+11
1.63283e+11
1.64727e+11
1.68354e+11
1.78108e+11
1.81755e+11
1.8535e+11
1.90917e+11
1.66114e+11
1.48439e+11
1.41575e+11
1.41552e+11
1.4264e+11
1.4159e+11
1.42255e+11
1.43115e+11
1.70747e+11
1.73377e+11
1.77661e+11
1.85379e+11
1.91734e+11
1.93202e+11
1.93831e+11
1.91507e+11
1.80988e+11
1.42462e+11
1.50877e+11
1.53673e+11
1.45719e+11
3.52942e+11
3.53218e+11
1.78626e+11
1.82179e+11
1.87425e+11
1.94613e+11
2.03373e+11
2.04288e+11
1.981e+11
2.16712e+11
2.29668e+11
2.2936e+11
2.20409e+11
2.05028e+11
2.22457e+11
5.73726e+11
5.73404e+11
1.86872e+11
1.91402e+11
1.98999e+11
2.07245e+11
2.22365e+11
2.23661e+11
2.29119e+11
2.62301e+11
2.93487e+11
2.93792e+11
3.33697e+11
3.69282e+11
4.91102e+11
8.00974e+11
7.99315e+11
1.9825e+11
2.0256e+11
2.11926e+11
2.24235e+11
2.47445e+11
2.48828e+11
2.64557e+11
3.25324e+11
3.80013e+11
3.83374e+11
4.64785e+11
5.22182e+11
5.36637e+11
1.01989e+12
1.01647e+12
2.17013e+11
2.1817e+11
2.28615e+11
2.44537e+11
2.75445e+11
2.76664e+11
3.03553e+11
4.03951e+11
4.98473e+11
6.72879e+11
6.62911e+11
6.7594e+11
7.00143e+11
1.20279e+12
1.19809e+12
2.49079e+11
2.42771e+11
2.48798e+11
2.66656e+11
3.0244e+11
3.03361e+11
3.41197e+11
4.83632e+11
6.19565e+11
7.31367e+11
7.31468e+11
7.37133e+11
8.64648e+11
1.36666e+12
1.36343e+12
2.97836e+11
2.83271e+11
2.71997e+11
2.90667e+11
3.2535e+11
3.26027e+11
3.73794e+11
5.5088e+11
7.31014e+11
7.31566e+11
7.31667e+11
7.32028e+11
8.55203e+11
1.59939e+12
1.59738e+12
3.61454e+11
3.4465e+11
3.08997e+11
3.1772e+11
3.43203e+11
3.43777e+11
3.96958e+11
5.61464e+11
7.11787e+11
7.31664e+11
7.32068e+11
7.36335e+11
1.05178e+12
1.90197e+12
1.90011e+12
4.34218e+11
4.21003e+11
3.6867e+11
3.48316e+11
3.56033e+11
3.56495e+11
4.10865e+11
5.58142e+11
6.97219e+11
7.03099e+11
7.3597e+11
8.55387e+11
1.80446e+12
2.28075e+12
2.27858e+12
5.12059e+11
5.0493e+11
4.66316e+11
3.85907e+11
3.63336e+11
3.6029e+11
4.12593e+11
5.60721e+11
6.94056e+11
6.95814e+11
8.86136e+11
1.74169e+12
2.43584e+12
2.68004e+12
2.67757e+12
5.91808e+11
5.90588e+11
5.92165e+11
4.59145e+11
4.06769e+11
3.63114e+11
4.19615e+11
5.73004e+11
6.78838e+11
8.5875e+11
2.18583e+12
2.82002e+12
2.97333e+12
3.03373e+12
3.03111e+12
6.6741e+11
6.64641e+11
6.60332e+11
6.23173e+11
5.58079e+11
4.19757e+11
5.30491e+11
5.96101e+11
7.56169e+11
2.44716e+12
3.25538e+12
3.40966e+12
3.4081e+12
3.32967e+12
3.32677e+12
7.48588e+11
7.43089e+11
7.28073e+11
7.22516e+11
7.15943e+11
7.09954e+11
8.66577e+11
1.06699e+12
2.13254e+12
3.45232e+12
3.71252e+12
3.79568e+12
3.76812e+12
3.61143e+12
3.60826e+12
8.49636e+11
8.42349e+11
8.34727e+11
8.3986e+11
8.75151e+11
9.41578e+11
1.1696e+12
1.72054e+12
3.22748e+12
3.66676e+12
3.8994e+12
4.04889e+12
4.10471e+12
3.97955e+12
3.97723e+12
9.63387e+11
9.49748e+11
9.44994e+11
9.62633e+11
1.02712e+12
1.13938e+12
1.54418e+12
2.80226e+12
3.28279e+12
3.62133e+12
3.91722e+12
4.20814e+12
4.47766e+12
4.62081e+12
4.60139e+12
1.07911e+12
1.05937e+12
1.04814e+12
1.08399e+12
1.16798e+12
1.36621e+12
2.36142e+12
2.74233e+12
3.07424e+12
3.42158e+12
3.80434e+12
4.26006e+12
4.83075e+12
5.49201e+12
5.39959e+12
1.1942e+12
1.17459e+12
1.15609e+12
1.19786e+12
1.31591e+12
1.92217e+12
2.20258e+12
2.42921e+12
2.7137e+12
3.09308e+12
3.55422e+12
4.15107e+12
4.98599e+12
5.99109e+12
5.881e+12
1.29901e+12
1.29079e+12
1.28507e+12
1.31353e+12
1.61601e+12
1.76991e+12
1.90055e+12
2.06268e+12
2.30385e+12
2.66737e+12
3.14922e+12
3.80362e+12
4.76894e+12
6.12612e+12
6.0658e+12
1.369e+12
1.36975e+12
1.38162e+12
1.4302e+12
1.53692e+12
1.60208e+12
1.67102e+12
1.78013e+12
1.9561e+12
2.24283e+12
2.66864e+12
3.27613e+12
4.17513e+12
5.49946e+12
5.51335e+12
1.40127e+12
1.40363e+12
1.41609e+12
1.45067e+12
1.51031e+12
1.55601e+12
1.61011e+12
1.68748e+12
1.81475e+12
2.04085e+12
2.42744e+12
2.98969e+12
3.7677e+12
4.89039e+12
4.86064e+12
1.41977e+12
1.42271e+12
1.43413e+12
1.46075e+12
1.50083e+12
1.54213e+12
1.5924e+12
1.66374e+12
1.78277e+12
2.00454e+12
2.40248e+12
3.06032e+12
3.9148e+12
5.02407e+12
4.99636e+12
1.42869e+12
1.43163e+12
1.44102e+12
1.46231e+12
1.49577e+12
1.53504e+12
1.5843e+12
1.6574e+12
1.78846e+12
2.04191e+12
2.49884e+12
3.28716e+12
4.36666e+12
5.8828e+12
5.83917e+12
1.43205e+12
1.43486e+12
1.44315e+12
1.46142e+12
1.49173e+12
1.53026e+12
1.58014e+12
1.65817e+12
1.81095e+12
2.12216e+12
2.68637e+12
3.70833e+12
5.36123e+12
7.65684e+12
7.62844e+12
1.43268e+12
1.43526e+12
1.44276e+12
1.459e+12
1.48702e+12
1.52516e+12
1.57663e+12
1.66269e+12
1.85022e+12
2.2572e+12
2.99974e+12
4.33134e+12
6.52993e+12
9.32457e+12
9.31344e+12
1.43098e+12
1.43328e+12
1.44001e+12
1.45448e+12
1.48026e+12
1.51803e+12
1.57154e+12
1.66793e+12
1.90519e+12
2.44813e+12
3.40782e+12
5.05245e+12
7.84922e+12
1.14649e+13
1.2357e+13
1.41869e+12
1.41991e+12
1.42409e+12
1.43371e+12
1.45292e+12
1.48674e+12
1.54282e+12
1.66245e+12
2.08051e+12
3.18591e+12
5.06736e+12
7.8876e+12
1.24892e+13
1.65767e+13
1.87956e+13
1.34639e+12
1.34571e+12
1.34569e+12
1.34634e+12
1.34808e+12
1.35161e+12
1.35929e+12
1.38098e+12
1.4989e+12
2.82977e+12
5.61133e+12
8.45936e+12
1.19001e+13
1.56955e+13
1.87262e+13
1.34365e+12
1.34276e+12
1.3429e+12
1.34384e+12
1.34565e+12
1.34853e+12
1.35315e+12
1.36137e+12
1.37892e+12
1.42131e+12
1.51502e+12
1.91911e+12
6.72143e+12
8.38502e+12
9.23387e+12
1.3425e+12
1.34213e+12
1.34262e+12
1.34389e+12
1.346e+12
1.34923e+12
1.35433e+12
1.36278e+12
1.37885e+12
1.41524e+12
1.49884e+12
1.64637e+12
1.8828e+12
3.00752e+12
3.86556e+12
1.33899e+12
1.33943e+12
1.3409e+12
1.34304e+12
1.34581e+12
1.34954e+12
1.35514e+12
1.36447e+12
1.3817e+12
1.4175e+12
1.50071e+12
1.68836e+12
2.06883e+12
2.85499e+12
3.59684e+12
1.32624e+12
1.3273e+12
1.32987e+12
1.33383e+12
1.33933e+12
1.3472e+12
1.35942e+12
1.3799e+12
1.41904e+12
1.50807e+12
1.73767e+12
2.27526e+12
2.89668e+12
3.33129e+12
3.62627e+12
1.28229e+12
1.2843e+12
1.28906e+12
1.29683e+12
1.30852e+12
1.32641e+12
1.35411e+12
1.39338e+12
1.45256e+12
1.55595e+12
1.78611e+12
2.43748e+12
3.36766e+12
3.9332e+12
4.31618e+12
1.13564e+12
1.13729e+12
1.14172e+12
1.14993e+12
1.16482e+12
1.19289e+12
1.24438e+12
1.31615e+12
1.407e+12
1.55182e+12
1.91395e+12
3.29439e+12
4.85386e+12
6.15463e+12
7.15982e+12
1.01152e+12
1.01184e+12
1.01287e+12
1.01535e+12
1.02045e+12
1.02993e+12
1.04683e+12
1.07809e+12
1.14491e+12
1.42677e+12
2.73969e+12
5.12888e+12
7.6742e+12
9.23888e+12
1.04775e+13
8.76048e+11
8.73324e+11
8.69318e+11
8.66218e+11
8.66125e+11
8.70054e+11
8.78887e+11
9.05724e+11
1.01828e+12
1.79827e+12
3.0881e+12
4.62899e+12
5.86188e+12
6.80511e+12
7.49908e+12
6.96743e+11
6.95602e+11
6.95858e+11
6.99243e+11
7.0136e+11
7.03089e+11
7.06295e+11
7.13953e+11
7.3618e+11
8.26442e+11
1.69732e+12
2.53768e+12
3.17056e+12
3.65058e+12
4.01985e+12
5.56583e+11
5.56404e+11
5.56693e+11
5.58514e+11
5.56927e+11
5.50514e+11
5.46244e+11
5.42838e+11
5.45265e+11
6.03907e+11
7.70424e+11
1.01146e+12
1.24945e+12
1.46326e+12
1.64399e+12
3.39674e+11
3.42228e+11
3.37088e+11
3.12353e+11
2.9133e+11
2.74102e+11
2.5802e+11
2.43215e+11
2.3725e+11
2.52482e+11
2.93105e+11
3.55582e+11
4.32413e+11
5.15496e+11
5.92049e+11
1.64819e+11
1.63042e+11
1.58217e+11
1.51142e+11
1.42553e+11
1.33309e+11
1.23455e+11
1.13561e+11
1.04524e+11
9.83997e+10
9.8592e+10
1.09165e+11
1.30991e+11
1.599e+11
1.89097e+11
9.7971e+10
9.67532e+10
9.43268e+10
9.11266e+10
8.74394e+10
8.36014e+10
7.98201e+10
7.63065e+10
7.31545e+10
7.02988e+10
6.74983e+10
6.49688e+10
6.32834e+10
6.30637e+10
6.44272e+10
6.96166e+10
6.89388e+10
6.77378e+10
6.61305e+10
6.43006e+10
6.23042e+10
6.0419e+10
5.86563e+10
5.68459e+10
5.47947e+10
5.26531e+10
5.06847e+10
4.86545e+10
4.62967e+10
4.39273e+10
5.36896e+10
5.33659e+10
5.26945e+10
5.17718e+10
5.06678e+10
4.94407e+10
4.81623e+10
4.67999e+10
4.54034e+10
4.40095e+10
4.25896e+10
4.10309e+10
3.9309e+10
3.76955e+10
3.66731e+10
4.26066e+10
4.24995e+10
4.22615e+10
4.18619e+10
4.1198e+10
4.03698e+10
3.94529e+10
3.85525e+10
3.7712e+10
3.68556e+10
3.59431e+10
3.49578e+10
3.39242e+10
3.29761e+10
3.242e+10
3.55738e+10
3.5492e+10
3.53243e+10
3.50934e+10
3.47864e+10
3.44223e+10
3.40248e+10
3.36112e+10
3.31319e+10
3.2581e+10
3.20097e+10
3.14264e+10
3.0855e+10
3.0383e+10
3.00812e+10
3.10768e+10
3.1052e+10
3.10022e+10
3.09389e+10
3.08707e+10
3.07977e+10
3.06888e+10
3.0507e+10
3.02425e+10
2.9941e+10
2.96269e+10
2.92972e+10
2.89546e+10
2.86296e+10
2.83908e+10
2.79347e+10
2.79318e+10
2.79276e+10
2.7921e+10
2.79055e+10
2.78912e+10
2.7895e+10
2.79142e+10
2.79116e+10
2.7847e+10
2.77003e+10
2.75021e+10
2.72716e+10
2.7051e+10
2.68838e+10
2.5219e+10
2.52252e+10
2.52391e+10
2.52569e+10
2.5274e+10
2.52831e+10
2.53028e+10
2.5355e+10
2.546e+10
2.56257e+10
2.5718e+10
2.56901e+10
2.56027e+10
2.54978e+10
2.54027e+10
2.26324e+10
2.26362e+10
2.26457e+10
2.26583e+10
2.26756e+10
2.26912e+10
2.2701e+10
2.27187e+10
2.27693e+10
2.29201e+10
2.32853e+10
2.36519e+10
2.37775e+10
2.3764e+10
2.36692e+10
2.0459e+10
2.04593e+10
2.04604e+10
2.04573e+10
2.04451e+10
2.04232e+10
2.03876e+10
2.03375e+10
2.02811e+10
2.02329e+10
2.02344e+10
2.03889e+10
2.07144e+10
2.11204e+10
2.14428e+10
1.86461e+10
1.8636e+10
1.86124e+10
1.85687e+10
1.84991e+10
1.84093e+10
1.83008e+10
1.81716e+10
1.80234e+10
1.78501e+10
1.76531e+10
1.74542e+10
1.72921e+10
1.71864e+10
1.71666e+10
1.65224e+10
1.65119e+10
1.64867e+10
1.64354e+10
1.63619e+10
1.62846e+10
1.62024e+10
1.61062e+10
1.59683e+10
1.57675e+10
1.54973e+10
1.51899e+10
1.48941e+10
1.46201e+10
1.43614e+10
1.44569e+10
1.44455e+10
1.44205e+10
1.43884e+10
1.4362e+10
1.43413e+10
1.43195e+10
1.42724e+10
1.41229e+10
1.38114e+10
1.34281e+10
1.3061e+10
1.27164e+10
1.23707e+10
1.20094e+10
1.24184e+10
1.24121e+10
1.2404e+10
1.24019e+10
1.24056e+10
1.23993e+10
1.23586e+10
1.2235e+10
1.19702e+10
1.16089e+10
1.12558e+10
1.09269e+10
1.06e+10
1.02595e+10
9.89722e+09
1.05119e+10
1.05105e+10
1.05122e+10
1.0517e+10
1.05186e+10
1.0498e+10
1.04339e+10
1.03013e+10
1.00844e+10
9.77509e+09
9.44876e+09
9.13716e+09
8.83484e+09
8.52189e+09
8.1842e+09
8.86466e+09
8.85369e+09
8.83779e+09
8.82094e+09
8.80062e+09
8.77016e+09
8.71662e+09
8.61061e+09
8.39136e+09
8.10504e+09
7.84923e+09
7.61308e+09
7.365e+09
7.09127e+09
6.79406e+09
7.44174e+09
7.43967e+09
7.43609e+09
7.42643e+09
7.40533e+09
7.36523e+09
7.29879e+09
7.19739e+09
7.02746e+09
6.79205e+09
6.56226e+09
6.32329e+09
6.07407e+09
5.82747e+09
5.59707e+09
6.41254e+09
6.41478e+09
6.41767e+09
6.41645e+09
6.40689e+09
6.3821e+09
6.33257e+09
6.25073e+09
6.11302e+09
5.88331e+09
5.62388e+09
5.37963e+09
5.17021e+09
4.99258e+09
4.84273e+09
5.66055e+09
5.66254e+09
5.6663e+09
5.66912e+09
5.66642e+09
5.64886e+09
5.59972e+09
5.50551e+09
5.34478e+09
5.11089e+09
4.87943e+09
4.67717e+09
4.49945e+09
4.34447e+09
4.2146e+09
4.98572e+09
4.98545e+09
4.98618e+09
4.98762e+09
4.98534e+09
4.96653e+09
4.89425e+09
4.72917e+09
4.51332e+09
4.31202e+09
4.12747e+09
3.94853e+09
3.77706e+09
3.63407e+09
3.52342e+09
4.29257e+09
4.28886e+09
4.28252e+09
4.27234e+09
4.25319e+09
4.21131e+09
4.11975e+09
3.96565e+09
3.77356e+09
3.5879e+09
3.41959e+09
3.26569e+09
3.13448e+09
3.02877e+09
2.94475e+09
3.73867e+09
3.73608e+09
3.73023e+09
3.71982e+09
3.7013e+09
3.66507e+09
3.58732e+09
3.43513e+09
3.23082e+09
3.04904e+09
2.88722e+09
2.75055e+09
2.64709e+09
2.56862e+09
2.50838e+09
3.33257e+09
3.33149e+09
3.32771e+09
3.31963e+09
3.30354e+09
3.26836e+09
3.1794e+09
2.99931e+09
2.7995e+09
2.62953e+09
2.48415e+09
2.37417e+09
2.29734e+09
2.24072e+09
2.19636e+09
2.97944e+09
2.9775e+09
2.97292e+09
2.9642e+09
2.94757e+09
2.91082e+09
2.81039e+09
2.62166e+09
2.44631e+09
2.29098e+09
2.16405e+09
2.07315e+09
2.00807e+09
1.95676e+09
1.9133e+09
2.6821e+09
2.67939e+09
2.6735e+09
2.66349e+09
2.64664e+09
2.61448e+09
2.53245e+09
2.32904e+09
2.13344e+09
1.96807e+09
1.83999e+09
1.75528e+09
1.69638e+09
1.64931e+09
1.60926e+09
2.43099e+09
2.42769e+09
2.4198e+09
2.40574e+09
2.38063e+09
2.32768e+09
2.19799e+09
2.00134e+09
1.81509e+09
1.65524e+09
1.54864e+09
1.48288e+09
1.43545e+09
1.39692e+09
1.36437e+09
2.14077e+09
2.13529e+09
2.12231e+09
2.09936e+09
2.06007e+09
1.9859e+09
1.84211e+09
1.66595e+09
1.51533e+09
1.39572e+09
1.31404e+09
1.25891e+09
1.21715e+09
1.18291e+09
1.15387e+09
1.85262e+09
1.84602e+09
1.82558e+09
1.7852e+09
1.71299e+09
1.59315e+09
1.46279e+09
1.35042e+09
1.25111e+09
1.16742e+09
1.10461e+09
1.05989e+09
1.02558e+09
9.97485e+08
9.73441e+08
1.44129e+09
1.43089e+09
1.40595e+09
1.36342e+09
1.30527e+09
1.23654e+09
1.15739e+09
1.07408e+09
1.00423e+09
9.48648e+08
9.07899e+08
8.78524e+08
8.54467e+08
8.33228e+08
8.13859e+08
1.10486e+09
1.09605e+09
1.07528e+09
1.04167e+09
9.96674e+08
9.45846e+08
8.92226e+08
8.38765e+08
7.95199e+08
7.63777e+08
7.41389e+08
7.2324e+08
7.06869e+08
6.91354e+08
6.76706e+08
8.10344e+08
8.03659e+08
7.88437e+08
7.65111e+08
7.38109e+08
7.11024e+08
6.84194e+08
6.58987e+08
6.37629e+08
6.21044e+08
6.08001e+08
5.96522e+08
5.85456e+08
5.74436e+08
5.63415e+08
6.13428e+08
6.09286e+08
6.00644e+08
5.88787e+08
5.75677e+08
5.61896e+08
5.4762e+08
5.33068e+08
5.19639e+08
5.08729e+08
4.99595e+08
4.91085e+08
4.82551e+08
4.73766e+08
4.6474e+08
4.80192e+08
4.78175e+08
4.73615e+08
4.66771e+08
4.58942e+08
4.50256e+08
4.40448e+08
4.30133e+08
4.21045e+08
4.13579e+08
4.07067e+08
4.00834e+08
3.94477e+08
3.87893e+08
3.8108e+08
3.74921e+08
3.73419e+08
3.70536e+08
3.67071e+08
3.63361e+08
3.58991e+08
3.53765e+08
3.47898e+08
3.42293e+08
3.37664e+08
3.33504e+08
3.29289e+08
3.24754e+08
3.19825e+08
3.14522e+08
3.02113e+08
3.01425e+08
3.00066e+08
2.9806e+08
2.95329e+08
2.91822e+08
2.87526e+08
2.82632e+08
2.78614e+08
2.75779e+08
2.73144e+08
2.70294e+08
2.67067e+08
2.63395e+08
2.59233e+08
2.48113e+08
2.47459e+08
2.46011e+08
2.43825e+08
2.40914e+08
2.37351e+08
2.33181e+08
2.28848e+08
2.26067e+08
2.24015e+08
2.22024e+08
2.19826e+08
2.1727e+08
2.14227e+08
2.10608e+08
2.01369e+08
2.00856e+08
1.99731e+08
1.97874e+08
1.9528e+08
1.91915e+08
1.87916e+08
1.84526e+08
1.82597e+08
1.8108e+08
1.79536e+08
1.77738e+08
1.75541e+08
1.72849e+08
1.69657e+08
1.60181e+08
1.5962e+08
1.58408e+08
1.56556e+08
1.54338e+08
1.51965e+08
1.49612e+08
1.47939e+08
1.46956e+08
1.46106e+08
1.45069e+08
1.43728e+08
1.42014e+08
1.39913e+08
1.37521e+08
1.27248e+08
1.26864e+08
1.26069e+08
1.24924e+08
1.23549e+08
1.21928e+08
1.20194e+08
1.19171e+08
1.18627e+08
1.18089e+08
1.17368e+08
1.16415e+08
1.15181e+08
1.13637e+08
1.11806e+08
1.0076e+08
1.0061e+08
1.00285e+08
9.97642e+07
9.89968e+07
9.79582e+07
9.71298e+07
9.66863e+07
9.6348e+07
9.59189e+07
9.53071e+07
9.4501e+07
9.34714e+07
9.22051e+07
9.0714e+07
8.08478e+07
8.08191e+07
8.07203e+07
8.04375e+07
8.00181e+07
7.95578e+07
7.92158e+07
7.90012e+07
7.8689e+07
7.8212e+07
7.75779e+07
7.67952e+07
7.58406e+07
7.46953e+07
7.33546e+07
6.62045e+07
6.61064e+07
6.58936e+07
6.55533e+07
6.50711e+07
6.44787e+07
6.41141e+07
6.39598e+07
6.37675e+07
6.34235e+07
6.29382e+07
6.22959e+07
6.14719e+07
6.04487e+07
5.92347e+07
5.41015e+07
5.38966e+07
5.34831e+07
5.29724e+07
5.24103e+07
5.19805e+07
5.18592e+07
5.18473e+07
5.1785e+07
5.15889e+07
5.12457e+07
5.07261e+07
5.00196e+07
4.91288e+07
4.80749e+07
4.31805e+07
4.26684e+07
4.20156e+07
4.16746e+07
4.1623e+07
4.17498e+07
4.18511e+07
4.18996e+07
4.18702e+07
4.17421e+07
4.14819e+07
4.10741e+07
4.05102e+07
3.97989e+07
3.89614e+07
3.25254e+07
3.25959e+07
3.27501e+07
3.29682e+07
3.32481e+07
3.35763e+07
3.38303e+07
3.3899e+07
3.38579e+07
3.37275e+07
3.34948e+07
3.31493e+07
3.26877e+07
3.21163e+07
3.14489e+07
2.68341e+07
2.6881e+07
2.69616e+07
2.70606e+07
2.71763e+07
2.73097e+07
2.74609e+07
2.7526e+07
2.75024e+07
2.73908e+07
2.71869e+07
2.68835e+07
2.64748e+07
2.59654e+07
2.53709e+07
2.213e+07
2.21412e+07
2.215e+07
2.21448e+07
2.21236e+07
2.2089e+07
2.20153e+07
2.19662e+07
2.19065e+07
2.18006e+07
2.16265e+07
2.13657e+07
2.10066e+07
2.05575e+07
2.00413e+07
1.781e+07
1.77955e+07
1.7763e+07
1.76996e+07
1.75946e+07
1.74381e+07
1.72797e+07
1.71638e+07
1.70408e+07
1.68976e+07
1.67226e+07
1.64979e+07
1.62216e+07
1.59079e+07
1.55932e+07
1.42104e+07
1.41838e+07
1.41323e+07
1.40507e+07
1.39429e+07
1.38241e+07
1.37171e+07
1.35886e+07
1.34416e+07
1.32787e+07
1.30934e+07
1.28879e+07
1.2677e+07
1.24704e+07
1.23051e+07
1.13787e+07
1.13533e+07
1.13061e+07
1.12358e+07
1.11466e+07
1.10478e+07
1.09536e+07
1.08514e+07
1.07314e+07
1.05954e+07
1.04464e+07
1.02907e+07
1.01364e+07
9.99489e+06
9.89719e+06
9.13229e+06
9.11013e+06
9.06914e+06
9.00988e+06
8.9382e+06
8.86381e+06
8.78954e+06
8.70401e+06
8.60987e+06
8.51051e+06
8.40714e+06
8.305e+06
8.20868e+06
8.12739e+06
8.07972e+06
7.39246e+06
7.37688e+06
7.34836e+06
7.30464e+06
7.24594e+06
7.17485e+06
7.10507e+06
7.04017e+06
6.97564e+06
6.90888e+06
6.84123e+06
6.77829e+06
6.7226e+06
6.68142e+06
6.663e+06
6.01624e+06
6.00397e+06
5.98199e+06
5.94957e+06
5.90962e+06
5.86732e+06
5.82845e+06
5.78718e+06
5.74147e+06
5.69278e+06
5.64444e+06
5.6001e+06
5.56127e+06
5.53362e+06
5.5192e+06
4.93358e+06
4.92367e+06
4.90612e+06
4.88022e+06
4.84787e+06
4.81273e+06
4.7803e+06
4.75096e+06
4.72145e+06
4.69114e+06
4.6631e+06
4.63786e+06
4.6158e+06
4.59877e+06
4.58706e+06
4.07607e+06
4.06743e+06
4.05196e+06
4.02918e+06
4.0013e+06
3.97316e+06
3.94923e+06
3.92753e+06
3.9058e+06
3.88516e+06
3.86783e+06
3.85309e+06
3.84154e+06
3.83199e+06
3.82391e+06
3.39021e+06
3.3839e+06
3.37273e+06
3.35586e+06
3.33464e+06
3.31213e+06
3.29103e+06
3.27166e+06
3.25443e+06
3.24042e+06
3.22916e+06
3.21964e+06
3.21165e+06
3.20554e+06
3.1997e+06
2.82238e+06
2.81771e+06
2.80951e+06
2.79685e+06
2.78088e+06
2.76447e+06
2.74992e+06
2.7373e+06
2.72647e+06
2.71695e+06
2.70895e+06
2.70206e+06
2.69613e+06
2.69131e+06
2.68658e+06
2.35849e+06
2.35485e+06
2.34849e+06
2.33884e+06
2.32768e+06
2.31786e+06
2.31038e+06
2.30434e+06
2.29861e+06
2.29232e+06
2.28545e+06
2.27869e+06
2.27285e+06
2.26667e+06
2.26045e+06
1.98398e+06
1.98145e+06
1.97721e+06
1.97113e+06
1.96481e+06
1.95988e+06
1.95674e+06
1.95446e+06
1.9519e+06
1.94764e+06
1.94185e+06
1.93479e+06
1.92702e+06
1.91853e+06
1.9102e+06
1.68347e+06
1.68171e+06
1.67902e+06
1.67582e+06
1.67343e+06
1.67238e+06
1.672e+06
1.67113e+06
1.66924e+06
1.66637e+06
1.66258e+06
1.6565e+06
1.64842e+06
1.63924e+06
1.63045e+06
1.4462e+06
1.44533e+06
1.44427e+06
1.44304e+06
1.44221e+06
1.44194e+06
1.44174e+06
1.44103e+06
1.43971e+06
1.43825e+06
1.43538e+06
1.43004e+06
1.42279e+06
1.41476e+06
1.40694e+06
1.25417e+06
1.25365e+06
1.2531e+06
1.25241e+06
1.25182e+06
1.25144e+06
1.25105e+06
1.25024e+06
1.24883e+06
1.24692e+06
1.24409e+06
1.24094e+06
1.23699e+06
1.2326e+06
1.22733e+06
1.09774e+06
1.09739e+06
1.09703e+06
1.09658e+06
1.09622e+06
1.09607e+06
1.09602e+06
1.09574e+06
1.09489e+06
1.09331e+06
1.09128e+06
1.08934e+06
1.08724e+06
1.08495e+06
1.08178e+06
967717
967769
968132
968601
969221
969918
970470
970629
970234
969391
967988
966129
964103
961899
959286
862705
862848
863269
863742
864252
864699
864903
864726
864083
862931
861161
859115
856891
854182
850962
773094
773244
773654
774118
774564
774873
774920
774648
773998
772835
771011
768583
765657
762230
758472
695921
696020
696279
696494
696587
696485
696142
695541
694653
693324
691422
689054
686400
683471
680332
625692
625721
625824
625796
625533
624968
624087
622920
621539
620009
618465
616770
614758
612366
609629
561358
561291
561201
560965
560527
559841
558890
557729
556498
555309
554179
552867
551181
549109
546716
504433
504324
504140
503799
503290
502629
501855
501021
500155
499235
498163
496896
495367
493554
491493
453480
453369
453187
452896
452503
452027
451499
450934
450306
449565
448636
447492
446091
444431
442550
408542
408436
408263
408008
407701
407374
407029
406630
406117
405433
404547
403451
402138
400581
398824
369258
369170
369028
368823
368566
368256
367877
367405
366817
366096
365237
364222
362989
361525
359861
335039
334952
334809
334600
334334
334012
333624
333152
332567
331843
330961
329920
328696
327270
325670
305354
305259
305092
304852
304549
304183
303744
303216
302586
301851
301004
300012
298832
297459
295926
279563
279455
279254
278969
278617
278207
277740
277208
276602