/*--------------------------------*- C++ -*----------------------------------*\
  =========                 |
  \\      /  F ield         | OpenFOAM: The Open Source CFD Toolbox
   \\    /   O peration     | Website:  https://openfoam.org
    \\  /    A nd           | Version:  7
     \\/     M anipulation  |
\*---------------------------------------------------------------------------*/
FoamFile
{
    version     2.0;
    format      ascii;
    class       volScalarField;
    location    "300";
    object      nut;
}
// * * * * * * * * * * * * * * * * * * * * * * * * * * * * * * * * * * * * * //

dimensions      [0 2 -1 0 0 0 0];

internalField   nonuniform List<scalar> 
32100
(
6.82716e+16
6.59138e+16
6.72136e+16
6.59358e+16
6.47391e+16
6.32743e+16
6.15081e+16
5.94805e+16
5.7745e+16
5.62748e+16
5.57108e+16
5.50576e+16
5.59894e+16
5.58129e+16
1.75225
7.09217e+16
7.19087e+16
6.94117e+16
6.92465e+16
6.83443e+16
6.71615e+16
6.60145e+16
6.53159e+16
6.44071e+16
6.35943e+16
6.21176e+16
6.19503e+16
6.04682e+16
6.11413e+16
1.74675
8.06339e+16
7.60493e+16
7.82851e+16
7.66094e+16
7.59843e+16
7.49521e+16
7.37796e+16
7.28549e+16
7.18105e+16
7.03013e+16
7.0211e+16
6.59047e+16
6.84301e+16
6.80173e+16
1.74327
8.40643e+16
8.22778e+16
7.81315e+16
8.16559e+16
8.15365e+16
8.07256e+16
7.95492e+16
7.84862e+16
7.77361e+16
7.795e+16
7.34534e+16
8.01526e+16
7.48079e+16
7.50861e+16
1.74126
9.25578e+16
8.67751e+16
9.57548e+16
8.80984e+16
8.86713e+16
8.83618e+16
8.73233e+16
8.61576e+16
8.45939e+16
8.11239e+16
9.31476e+16
8.69314e+16
8.28555e+16
8.23364e+16
1.74034
9.48994e+16
8.64636e+16
7.38944e+16
9.19891e+16
9.31793e+16
9.31816e+16
9.24305e+16
9.14009e+16
9.16078e+16
9.72055e+16
1.00437e+17
9.5637e+16
8.8455e+16
8.83759e+16
1.74024
1.0391e+17
1.01894e+17
1.86559e+17
9.66481e+16
9.85669e+16
9.92739e+16
9.89679e+16
9.78886e+16
9.42992e+16
1.03406e+17
1.04351e+17
9.71023e+16
9.57198e+16
9.98228e+16
1.74074
1.02205e+17
7.97859e+16
4.50915e+16
1.01438e+17
1.03628e+17
1.03888e+17
1.03696e+17
1.02639e+17
1.08034e+17
1.08971e+17
1.12916e+17
1.0301e+17
9.66463e+16
1.08929e+17
1.74164
1.14302e+17
1.73382e+17
1.82444e+17
1.02611e+17
1.0558e+17
1.07894e+17
1.07947e+17
1.07165e+17
1.1206e+17
1.12492e+17
9.85724e+16
7.93516e+16
1.0818e+17
4.39713e+16
1.74296
1.03597e+17
5.27143e+16
1.3998e+16
1.11624e+17
1.13358e+17
1.11053e+17
1.10722e+17
1.08833e+17
1.12499e+17
1.11487e+17
8.23594e+16
6.2188e+16
2.04082e+16
5.35887e+15
1.74492
3.37039e+16
8.9201e+14
1.00031e+14
2.44304e+15
5.97703e+16
1.21142e+17
1.40329e+17
1.11793e+17
1.06747e+17
9.43047e+16
4.7745e+16
3.25574e+16
1.59908e+16
9.97278e+14
1.75528
1.45087e+17
3.35557e+15
2.06595e+14
3.67408e+15
4.84619e+15
7.43788e+16
5.49415e+16
7.27505e+16
6.59362e+16
1.43921e+16
9.57293e+14
2.68421e+14
2.06855e+15
1.21779e+14
1.78642
2.3151e+15
1.84769e+14
3.05406e+13
1.55715e+14
1.51472e+14
8.6283e+15
4.90825e+15
7.06318e+15
9.23225e+15
3.93055e+15
1.75168e+15
2.9235e+14
5.30422e+14
1.92091e+13
2.06411
6.7425e+13
9.8756e+13
8.72056e+13
1.35906e+14
8.37909e+13
1.1572e+14
2.36691e+14
7.77638e+13
1.62322e+14
7.4069e+14
6.30427e+14
1.06953e+14
9.24867e+12
5.8024e+13
2.85672
3.99902e+14
2.05624e+14
1.40363e+14
3.04525e+14
2.18548e+14
1.30288e+15
1.44591e+15
8.86654e+14
7.16639e+14
5.52713e+14
2.87058e+15
4.3658e+14
2.64554e+13
8.84833e+13
3.29965
6.70538e+14
3.05447e+14
1.1258e+14
3.8136e+14
3.47504e+14
2.3469e+15
1.46099e+15
1.03245e+15
1.78376e+15
6.93219e+14
4.37311e+15
1.63674e+15
2.72402e+13
8.76471e+13
3.5928
4.84185e+14
1.52361e+15
8.8514e+14
2.01063e+15
3.94949e+15
5.54732e+15
5.17285e+15
2.72119e+15
4.22853e+15
6.9455e+14
5.93862e+15
1.19512e+15
2.64734e+13
1.43136e+14
3.77514
3.29717e+14
1.53472e+15
6.17702e+14
3.85732e+15
2.87982e+15
4.8098e+15
3.06621e+15
1.01615e+16
7.32618e+15
6.93721e+14
4.64478e+15
3.22826e+15
1.85816e+13
9.89366e+13
3.91468
3.1679e+14
1.8493e+15
9.87145e+14
2.58964e+15
3.11714e+15
4.06193e+15
1.86821e+15
2.69619e+15
4.92149e+15
4.37096e+14
2.86736e+15
2.29847e+14
1.7385e+13
9.3597e+13
4.06679
2.25081e+14
1.02003e+15
7.21104e+14
2.66371e+15
2.46708e+15
2.55325e+15
1.20329e+15
1.649e+15
2.788e+15
2.23998e+14
2.07025e+15
2.14999e+15
1.72414e+13
7.87203e+13
4.22064
1.60311e+14
5.7893e+14
7.85456e+14
2.77918e+15
1.77204e+15
2.11686e+15
7.88043e+14
1.04297e+15
1.63317e+15
1.22151e+14
1.18341e+15
1.39827e+15
1.59716e+13
6.38344e+13
4.38491
8.8299e+13
3.19906e+14
8.94758e+14
3.09326e+15
1.29737e+15
1.61456e+15
6.55817e+14
9.26606e+14
1.05767e+15
7.01213e+13
7.35862e+14
6.85923e+14
1.5584e+13
4.89445e+13
4.57929
5.16418e+13
1.74765e+14
7.6547e+14
2.2813e+15
9.13253e+14
7.4372e+14
7.4414e+14
1.08964e+15
7.10039e+14
4.32247e+13
4.20306e+14
4.18434e+14
1.63183e+13
3.49701e+13
4.82184
3.05353e+13
9.72973e+13
8.43362e+14
2.68618e+15
6.78222e+14
5.03622e+14
8.06986e+14
1.02097e+15
5.0572e+14
2.95278e+13
3.13648e+14
2.72284e+14
1.76152e+13
2.30111e+13
5.1236
2.02441e+13
5.37639e+13
5.70026e+14
2.10454e+15
5.07023e+14
3.31588e+14
7.98573e+14
1.42697e+15
3.56724e+14
1.99592e+13
2.55856e+14
1.83255e+14
1.83999e+13
1.39398e+13
5.48982
1.62693e+13
3.15707e+13
3.98093e+14
2.15078e+15
3.98641e+14
2.66679e+14
7.7125e+14
1.74063e+15
2.8566e+14
1.60705e+13
1.99212e+14
1.54245e+14
1.51209e+13
7.89699e+12
5.916
1.62208e+13
2.03465e+13
2.86814e+14
2.10916e+15
2.87088e+14
1.97536e+14
6.2362e+14
1.3736e+15
2.83786e+14
1.81898e+13
1.77894e+14
1.85455e+14
9.09315e+12
4.36999e+12
6.39865
1.45857e+13
1.47549e+13
2.3318e+14
2.73214e+15
2.12997e+14
1.88701e+14
6.32068e+14
1.24419e+15
3.68219e+14
2.05176e+13
9.77596e+13
1.1969e+14
5.33804e+12
2.55235e+12
6.97324
1.26929e+13
1.0974e+13
1.81411e+14
2.46351e+15
1.70376e+14
1.56525e+14
5.34779e+14
8.14525e+14
2.03813e+14
2.15874e+13
5.77477e+13
8.71134e+13
3.24186e+12
1.76688e+12
7.69715
1.01501e+13
8.11831e+12
7.78894e+13
1.49078e+15
1.87806e+14
1.47829e+14
4.45715e+14
5.36259e+14
1.46772e+14
2.35146e+13
3.64804e+13
7.55483e+13
1.98388e+12
1.53349e+12
8.55375
8.04767e+12
6.34979e+12
4.23144e+13
1.2035e+15
2.13145e+14
1.4255e+14
4.47691e+14
2.60068e+14
7.57261e+13
2.6115e+13
2.70166e+13
4.27973e+13
1.26892e+12
1.29711e+12
9.55712
7.32456e+12
5.9826e+12
7.06439e+13
6.13118e+14
1.70884e+14
1.40432e+14
3.88055e+14
2.05128e+14
6.17592e+13
2.90411e+13
2.05256e+13
1.51697e+13
9.39456e+11
1.21936e+12
10.7543
7.22818e+12
6.56654e+12
2.85835e+14
2.79307e+14
1.45479e+14
1.42794e+14
3.33823e+14
1.90882e+14
6.05263e+13
2.61931e+13
1.27404e+13
8.01314e+12
7.83738e+11
1.15416e+12
12.0915
6.92117e+12
5.86536e+12
8.27121e+14
1.62671e+14
1.14313e+14
1.43019e+14
2.19632e+14
1.49745e+14
4.93031e+13
1.9063e+13
8.05375e+12
6.69448e+12
6.30213e+11
1.06507e+12
13.521
8.38991e+12
6.79282e+12
1.97204e+14
1.52241e+14
8.71593e+13
1.28296e+14
4.97101e+13
1.83826e+14
5.68129e+13
1.61011e+13
5.062e+12
5.51703e+12
4.91344e+11
9.67694e+11
15.0175
1.01303e+13
8.36364e+12
2.56522e+14
2.0542e+14
6.76896e+13
6.89135e+13
2.44527e+13
1.94265e+14
4.77699e+13
1.42503e+13
3.54974e+12
5.06993e+12
3.70923e+11
8.73081e+11
16.5703
1.10938e+13
8.28222e+12
2.61992e+14
4.77518e+14
5.19981e+13
4.33644e+13
1.76677e+13
1.84355e+14
4.04623e+13
1.18292e+13
3.3245e+12
4.45581e+12
2.71459e+11
7.82443e+11
18.1818
1.20794e+13
1.18138e+13
3.69331e+14
4.02901e+14
3.09536e+13
1.96792e+13
1.21308e+13
1.4476e+14
3.13081e+13
6.21218e+12
2.39835e+12
3.19821e+12
1.98011e+11
6.99701e+11
19.8687
1.1349e+13
1.96322e+13
1.9275e+15
2.16901e+14
1.41525e+13
1.88364e+13
9.47887e+12
6.4822e+13
3.18827e+13
3.87642e+12
2.12765e+12
1.96844e+12
1.44508e+11
6.37725e+11
21.6215
1.05979e+13
2.00167e+13
4.9168e+14
4.6337e+13
1.32966e+13
1.43715e+13
8.97388e+12
1.21955e+13
3.36716e+13
3.44905e+12
2.11015e+12
1.06203e+12
1.02728e+11
6.11451e+11
23.3505
7.42663e+12
1.03352e+13
1.64618e+14
2.10919e+13
1.55055e+13
1.49959e+13
8.2005e+12
5.42745e+12
3.77105e+13
4.21032e+12
1.75499e+12
4.79754e+11
5.07015e+10
6.74374e+11
24.8506
6.31773e+12
8.38105e+12
5.07844e+13
1.30737e+13
1.76981e+13
1.45701e+13
7.36987e+12
2.45528e+12
6.54711e+13
5.89725e+12
1.25228e+12
1.12427e+11
4.01877e+10
1.05998e+12
25.7965
6.7875e+12
7.16912e+12
2.61303e+13
1.52435e+13
1.77506e+13
1.57023e+13
7.85045e+12
3.45548e+12
9.22119e+11
1.2455e+13
1.27105e+12
1.10756e+11
2.44865e+10
6.58163e+11
26.5226
6.898e+12
6.62368e+12
2.39579e+13
1.58847e+13
1.67735e+13
1.71078e+13
8.39838e+12
4.59647e+12
3.27694e+12
5.91247e+11
1.50086e+13
8.36526e+10
1.09851e+10
2.15785e+11
27.2626
7.40896e+12
6.8996e+12
2.65337e+13
1.50445e+13
1.78677e+13
2.17547e+13
8.88762e+12
1.3742e+12
3.14937e+12
1.38905e+12
4.31502e+11
8.80255e+10
6.72509e+09
5.95495e+08
27.7525
1.06959e+13
1.00726e+13
2.59147e+13
1.43294e+13
1.62275e+13
3.06873e+13
1.17186e+13
1.03391e+13
1.78889e+12
1.43439e+12
4.15125e+11
5.86392e+10
6.21188e+09
3.44185e+08
51.9786
9.44963e+12
8.57938e+12
5.78606e+13
2.24125e+13
1.52154e+13
4.339e+13
1.48558e+13
1.48843e+13
4.91896e+12
1.25637e+12
1.50678e+12
1.04489e+11
5.03875e+09
1.57608e+08
61.4691
9.02164e+12
1.13086e+13
2.81584e+13
1.19616e+13
1.23666e+13
2.92181e+13
7.93855e+12
2.57795e+13
4.13338e+13
8.97568e+12
1.67433e+12
1.17322e+11
4.27227e+09
5.1049e+07
65.994
6.79636e+12
8.4643e+12
3.15571e+13
9.26202e+12
8.49213e+12
2.83222e+13
5.35044e+12
1.57192e+13
2.93321e+13
1.32203e+14
8.42907e+11
5.91223e+10
3.78624e+09
1.56663e+07
67.8474
4.74464e+12
6.33396e+12
4.90322e+13
7.15628e+12
9.67003e+12
3.91883e+13
7.10492e+12
1.62889e+13
1.38419e+14
5.58117e+12
3.89931e+11
2.77797e+10
3.32169e+09
5.64626e+06
68.5503
2.96187e+12
3.91616e+12
1.23073e+14
5.451e+12
8.94604e+12
6.25089e+13
2.42389e+13
2.36249e+13
5.61426e+14
1.48979e+16
1.95167e+11
1.39987e+10
2.88667e+09
2.20961e+06
68.8456
1.78467e+12
2.04955e+12
1.0904e+13
5.01871e+12
9.4108e+12
7.0255e+13
1.49702e+13
2.48404e+13
2.80928e+14
1.10677e+16
1.02961e+11
7.41709e+09
2.44068e+09
688337
68.956
1.32342e+12
1.54298e+12
9.53803e+12
5.43565e+12
9.47093e+12
1.7898e+14
2.04951e+13
1.28133e+14
1.46325e+14
2.3153e+15
5.20102e+10
3.75399e+09
2.04433e+09
207336
68.9156
1.31408e+12
2.18944e+12
5.96918e+12
7.80551e+12
8.39322e+13
1.50434e+14
1.36792e+13
3.40038e+13
7.65452e+13
1.16753e+15
2.61151e+10
1.88669e+09
9.78283e+08
84321
68.7569
1.30353e+12
1.32613e+12
2.62672e+12
5.25492e+12
1.11712e+13
1.84533e+14
2.06741e+13
2.14501e+13
4.25909e+13
6.03191e+14
1.24379e+10
9.11659e+08
3.20807e+08
74318.9
70.0853
8.77168e+11
8.76688e+11
1.53603e+12
3.27505e+12
5.47547e+12
1.26609e+14
5.33904e+14
1.40978e+13
3.1896e+13
5.27957e+10
4.1554e+09
3.11175e+08
756716
384909
109.592
5.76187e+11
7.46178e+11
7.40927e+11
1.84861e+12
2.46591e+12
8.18108e+13
3.24489e+13
8.85516e+12
2.57596e+13
1.36634e+10
8.85295e+08
5.52961e+07
318761
457224
139.692
2.40003e+11
4.38744e+11
5.57767e+11
8.93008e+11
1.17813e+12
5.70326e+13
2.31875e+13
6.34002e+12
2.1008e+13
1.85713e+10
1.68106e+09
6.5183e+06
861857
750551
164.951
9.26735e+10
2.07958e+11
3.11924e+11
4.51652e+11
5.84581e+11
4.18346e+13
1.66978e+13
4.75588e+12
1.74554e+13
2.8186e+10
2.90687e+09
2.28657e+08
1.11676e+06
1.04076e+06
186.019
4.47235e+10
8.84805e+10
1.58089e+11
2.31878e+11
2.92366e+11
3.12499e+13
1.25377e+13
3.61109e+12
1.46669e+13
6.58822e+10
4.48889e+09
3.37011e+08
2.04006e+06
1.24355e+06
201.999
3.11068e+10
3.78918e+10
1.07568e+11
1.19494e+11
1.43269e+11
2.28005e+13
8.95115e+12
2.53324e+12
1.08794e+13
1.96583e+13
8.43464e+08
6.29e+07
3.34953e+06
2.05909e+06
215.576
2.7438e+10
2.21613e+10
3.99075e+10
6.38773e+10
6.79362e+10
1.40106e+13
5.55352e+12
1.57864e+12
7.13451e+12
9.61093e+15
8.81029e+10
6.36409e+07
1.95727e+06
3.45103e+06
233.419
2.87405e+10
1.97515e+10
1.66629e+10
3.66652e+10
3.12889e+10
6.21845e+12
3.1079e+12
7.75162e+11
3.13365e+12
8.10344e+10
5.19712e+09
3.12645e+07
1.07332e+06
4.19548e+06
254.624
3.13546e+10
1.99556e+10
5.50574e+09
2.68144e+10
1.40807e+10
2.20391e+12
1.34169e+12
3.48534e+11
9.35428e+11
2.7881e+08
1.08031e+08
4.93816e+06
2.14807e+06
4.19341e+06
278.865
3.29867e+10
2.25595e+10
5.93671e+09
1.19815e+10
6.21452e+09
2.42372e+11
6.23866e+10
4.19537e+10
1.379e+10
1.32659e+07
5.83585e+06
1.90524e+06
2.51471e+06
4.09517e+06
302.335
3.37835e+10
2.4752e+10
5.125e+09
2.14674e+09
1.35034e+09
6.00059e+09
6.70068e+08
6.03121e+09
3.90363e+08
8.22422e+06
3.2965e+06
3.57606e+06
2.61583e+06
3.96735e+06
321.731
3.61822e+10
2.83654e+10
2.27863e+10
1.95999e+09
1.18216e+09
4.26569e+08
1.32528e+08
1.64256e+08
9.01192e+06
5.31592e+06
6.03472e+06
4.38563e+06
2.58054e+06
3.09428e+06
337.134
2.95767e+10
2.21876e+10
1.11102e+10
1.32873e+09
9.84614e+08
3.56345e+08
1.63179e+08
6.6834e+07
6.08783e+06
1.02047e+07
7.95149e+06
4.7358e+06
2.27514e+06
1.63188e+06
351.229
2.46621e+10
1.96587e+10
8.63324e+09
9.6764e+08
8.27619e+08
3.15411e+08
1.42095e+08
1.07324e+07
1.78711e+07
1.43765e+07
9.32152e+06
4.509e+06
1.64336e+06
669852
368.939
2.48094e+10
1.88743e+10
8.88219e+09
8.34574e+08
6.79192e+08
2.5057e+08
1.78734e+07
3.06175e+07
2.57917e+07
1.86927e+07
1.01665e+07
3.97248e+06
1.11344e+06
301714
396.941
2.71193e+10
1.73757e+10
7.70636e+09
8.46411e+08
5.35029e+08
2.40712e+07
4.79335e+07
4.10769e+07
2.98725e+07
2.10395e+07
1.051e+07
3.56944e+06
903364
195768
429.709
3.05455e+10
1.55542e+10
4.75998e+09
1.17273e+09
6.46429e+07
6.1672e+07
6.11887e+07
5.53541e+07
3.74951e+07
2.2642e+07
1.03341e+07
3.32047e+06
984111
212312
447.934
3.85934e+10
1.56773e+10
2.4797e+09
1.2105e+08
1.58509e+08
1.2703e+08
1.11799e+08
8.74624e+07
5.03303e+07
2.41278e+07
9.75914e+06
2.85856e+06
618217
371890
454.483
6.61879e+10
2.80889e+10
5.36755e+09
7.8602e+08
3.34867e+08
2.73247e+08
2.27633e+08
1.56575e+08
7.73893e+07
3.03974e+07
1.14292e+07
3.1542e+06
652551
129527
433.15
1.44625e+11
6.53623e+10
1.30661e+10
1.73128e+09
1.76149e+09
1.56703e+09
1.2845e+09
6.78566e+08
2.53681e+08
8.03362e+07
2.91111e+07
6.93918e+06
1.18297e+06
268715
406.904
1.62003e+11
7.42853e+10
2.22586e+10
8.07535e+09
6.86299e+09
6.0347e+09
4.57377e+09
2.37141e+09
8.22712e+08
2.45211e+08
7.32927e+07
2.25851e+07
4.58208e+06
1.13354e+06
412.86
3.54312e+11
1.7211e+11
5.65642e+10
2.54628e+10
1.93349e+10
1.5718e+10
1.05067e+10
4.91384e+09
1.73545e+09
5.4707e+08
1.57523e+08
5.85849e+07
1.29698e+07
2.2649e+06
446.473
4.67949e+11
2.81922e+11
1.17997e+11
5.64405e+10
4.00187e+10
3.20407e+10
2.09302e+10
9.10723e+09
3.15174e+09
1.01294e+09
2.72288e+08
7.27074e+07
1.76487e+07
5.09306e+06
510.354
4.62935e+11
3.19867e+11
1.63358e+11
8.672e+10
5.89561e+10
4.52671e+10
2.85115e+10
1.15772e+10
4.05708e+09
1.44265e+09
4.37016e+08
1.41302e+08
4.02845e+07
1.59321e+07
563.93
4.18928e+11
3.10561e+11
1.82283e+11
1.03474e+11
6.24979e+10
4.51035e+10
2.76918e+10
1.07578e+10
3.89766e+09
1.70827e+09
6.31019e+08
2.09048e+08
7.04711e+07
2.82097e+07
649.646
4.16291e+11
3.47017e+11
2.16499e+11
1.18898e+11
6.41558e+10
3.73974e+10
1.89778e+10
4.7064e+09
1.44971e+09
7.63008e+08
4.88564e+08
2.33162e+08
9.1913e+07
1.82541e+08
1.54955e+07
6.08814e+11
5.34002e+11
3.09119e+11
1.58632e+11
7.49356e+10
3.24559e+10
1.24219e+10
3.54266e+09
4.27638e+08
3.80054e+08
6.40105e+08
4.18237e+08
2.5637e+08
2.89254e+08
2.5887e+08
4.11485e+13
3.73804e+13
2.43195e+13
1.4442e+13
7.86173e+12
3.74275e+12
1.25327e+12
2.72381e+11
7.45099e+10
1.66105e+10
2.27592e+09
2.28567e+08
1.28996e+09
1.03443e+09
7.74646e+08
8.61301e+14
8.06717e+14
6.22411e+14
4.55354e+14
3.13615e+14
1.80603e+14
9.57571e+13
4.23787e+13
1.4194e+13
4.02941e+12
1.41205e+12
3.07619e+11
5.9421e+09
6.36984e+09
6.38151e+09
2.69586e+15
2.80606e+15
3.15172e+15
3.37904e+15
3.10933e+15
2.22259e+15
1.2498e+15
5.89752e+14
2.3887e+14
8.15323e+13
2.64382e+13
9.68067e+12
2.17679e+12
1.04545e+12
9.87702e+11
4.28101e+15
4.3404e+15
3.86895e+15
3.21951e+15
2.45581e+15
1.57464e+15
9.11258e+14
4.62658e+14
1.92722e+14
6.92277e+13
2.27125e+13
1.19396e+13
1.36803e+13
1.45939e+13
1.57705e+13
2.21003e+15
2.04317e+15
1.4508e+15
8.82029e+14
4.92236e+14
2.53046e+14
1.73101e+14
1.23725e+14
7.57332e+13
3.47619e+13
1.00392e+13
3.13675e+12
4.32957e+12
4.61984e+12
4.46909e+12
1.06179e+15
9.20999e+14
5.50847e+14
2.91183e+14
1.42702e+14
7.34239e+13
4.39371e+13
3.51739e+13
2.29548e+13
9.78508e+12
1.56325e+12
9.48468e+11
7.89774e+11
8.08046e+11
7.76704e+11
3.42689e+15
3.06685e+15
1.96026e+15
1.08803e+15
5.58721e+14
2.70698e+14
1.13432e+14
4.23955e+13
7.28202e+12
9.51771e+11
4.99051e+11
2.12195e+11
4.07889e+11
4.55367e+11
4.3788e+11
8.97398e+14
7.71382e+14
5.49794e+14
3.24145e+14
1.60155e+14
6.85862e+13
2.50962e+13
6.12964e+12
6.60542e+11
4.20518e+11
2.5107e+11
3.09608e+11
3.67372e+11
4.27261e+11
4.05338e+11
1.6815e+15
1.93627e+15
1.56717e+15
1.07428e+15
5.75377e+14
2.58064e+14
1.17361e+14
3.91638e+13
9.5067e+12
4.90046e+11
3.91024e+11
4.24512e+11
5.70673e+11
5.59638e+11
4.78373e+11
8.14203e+14
1.76773e+15
1.80941e+15
2.36738e+14
1.17607e+14
8.71096e+13
4.45657e+13
1.2847e+13
2.1869e+12
1.38645e+12
9.32109e+11
9.37489e+11
8.97971e+11
7.13752e+11
5.51914e+11
7.23739e+14
6.87975e+14
4.89391e+14
3.17962e+14
2.16719e+14
1.25459e+14
5.65866e+13
2.50283e+13
1.21749e+13
7.2218e+12
4.93218e+12
3.60948e+12
2.70369e+12
2.13366e+12
1.82712e+12
1.68932e+15
1.54428e+15
1.11388e+15
8.31436e+14
6.37279e+14
4.62768e+14
2.76946e+14
1.40136e+14
6.60887e+13
3.09716e+13
1.59768e+13
1.00429e+13
7.45288e+12
5.94076e+12
5.05603e+12
2.40948e+15
2.20409e+15
2.27317e+15
1.75961e+15
1.63987e+15
1.48179e+15
1.33157e+15
9.92505e+14
6.65355e+14
4.06323e+14
2.16474e+14
1.0306e+14
4.79551e+13
2.45548e+13
1.58177e+13
2.1621e+15
2.43046e+15
2.91304e+15
2.98092e+15
2.68285e+15
2.6315e+15
2.81635e+15
2.651e+15
1.86206e+15
1.13487e+15
8.75016e+14
6.42483e+14
3.87332e+14
2.11154e+14
1.43676e+14
1.06099e+15
1.17235e+15
1.49611e+15
2.23951e+15
2.44417e+15
2.72009e+15
2.79115e+15
2.89398e+15
2.79881e+15
2.3731e+15
1.76904e+15
1.21108e+15
9.24201e+14
8.80055e+14
1.25766e+15
1.90439e+15
1.99906e+15
1.92435e+15
1.86879e+15
1.94226e+15
2.36132e+15
2.60812e+15
3.23172e+15
3.7574e+15
3.77436e+15
3.36479e+15
2.78704e+15
2.34975e+15
2.34208e+15
3.8443e+15
1.18334e+15
1.26693e+15
1.38928e+15
1.4206e+15
1.46766e+15
2.00065e+15
2.91531e+15
3.71209e+15
3.81681e+15
4.29589e+15
4.64586e+15
4.69933e+15
4.93345e+15
6.42839e+15
1.02642e+16
2.45376e+15
2.64321e+15
2.73956e+15
2.60721e+15
2.26705e+15
1.98497e+15
2.00179e+15
2.38002e+15
2.71237e+15
3.55149e+15
4.17003e+15
4.47796e+15
4.60204e+15
5.46346e+15
9.10132e+15
1.55251e+15
1.7197e+15
2.14456e+15
2.39061e+15
2.28961e+15
2.08184e+15
1.87504e+15
1.72847e+15
1.63061e+15
1.91665e+15
2.36935e+15
2.69104e+15
2.8937e+15
3.88491e+15
6.084e+15
2.86054e+15
3.08076e+15
3.16379e+15
2.83135e+15
2.63203e+15
2.59067e+15
2.40895e+15
1.97019e+15
1.29713e+15
8.4027e+14
1.22174e+15
1.77601e+15
2.21411e+15
3.09381e+15
4.97843e+15
1.8984e+15
2.06582e+15
2.34714e+15
2.3599e+15
2.02029e+15
2.19181e+15
2.35147e+15
2.13344e+15
1.49733e+15
7.96381e+14
3.94325e+14
5.05132e+14
7.57951e+14
1.17513e+15
2.14393e+15
3.7604e+15
4.0841e+15
4.17786e+15
3.74936e+15
3.24362e+15
3.04106e+15
3.03884e+15
2.82896e+15
2.29405e+15
1.34801e+15
6.14392e+14
3.94679e+14
3.2993e+14
2.93378e+14
2.8981e+14
2.68227e+15
2.88694e+15
2.91602e+15
2.56271e+15
2.05535e+15
1.96861e+15
2.07274e+15
2.23411e+15
2.14932e+15
1.77613e+15
1.23644e+15
9.63783e+14
7.6177e+14
5.55649e+14
3.90159e+14
1.94295e+15
2.08688e+15
2.08511e+15
1.97375e+15
2.00708e+15
1.84251e+15
1.82346e+15
1.97019e+15
1.98302e+15
1.77815e+15
1.45168e+15
1.37042e+15
1.34052e+15
1.2299e+15
1.04554e+15
2.15797e+15
2.25874e+15
2.00761e+15
1.76213e+15
1.79343e+15
1.85186e+15
1.7017e+15
1.14654e+15
7.41102e+14
7.25482e+14
8.41306e+14
9.98519e+14
1.09491e+15
1.08323e+15
1.04556e+15
1.24053e+15
1.40441e+15
1.71825e+15
1.94432e+15
1.96841e+15
1.62812e+15
1.15475e+15
6.17933e+14
4.25978e+14
4.5671e+14
6.07126e+14
7.56157e+14
8.79241e+14
9.47383e+14
9.76941e+14
2.09567e+15
2.28022e+15
2.20501e+15
1.97548e+15
1.58186e+15
1.21657e+15
9.19442e+14
6.85279e+14
4.33566e+14
3.79282e+14
4.1457e+14
4.95488e+14
6.0147e+14
6.77529e+14
7.33609e+14
1.53583e+15
1.88008e+15
2.20278e+15
2.17769e+15
1.76711e+15
1.20986e+15
6.83906e+14
3.68532e+14
2.59145e+14
2.95794e+14
3.7238e+14
4.04819e+14
4.04704e+14
4.15598e+14
4.31454e+14
1.90727e+15
2.36737e+15
2.611e+15
2.4891e+15
1.99189e+15
1.46321e+15
1.00133e+15
5.35619e+14
2.77867e+14
3.01957e+14
3.31606e+14
3.44959e+14
3.70413e+14
4.07072e+14
4.79288e+14
2.45331e+15
3.05931e+15
3.27241e+15
2.9889e+15
2.28536e+15
1.61638e+15
1.18275e+15
7.4267e+14
3.35431e+14
2.51285e+14
2.48971e+14
2.89175e+14
3.66093e+14
4.48932e+14
5.58392e+14
3.58871e+15
4.16029e+15
3.93754e+15
3.27866e+15
2.24293e+15
1.34214e+15
9.15309e+14
6.21626e+14
3.23499e+14
2.56407e+14
2.56248e+14
2.6371e+14
2.81301e+14
3.1683e+14
3.75738e+14
3.20835e+15
3.76883e+15
3.50022e+15
2.59376e+15
1.44325e+15
6.07795e+14
3.05228e+14
2.33676e+14
2.53738e+14
2.68546e+14
2.66958e+14
2.41496e+14
2.44885e+14
2.92939e+14
3.58673e+14
2.92318e+15
3.5791e+15
3.36162e+15
2.40342e+15
1.27074e+15
5.27364e+14
2.75055e+14
1.94578e+14
1.89494e+14
2.19803e+14
2.47751e+14
2.78446e+14
3.28154e+14
3.82794e+14
4.53308e+14
3.22555e+15
4.26533e+15
4.1674e+15
3.09104e+15
1.69619e+15
7.20646e+14
3.24395e+14
1.70604e+14
1.71493e+14
1.89964e+14
2.04159e+14
2.608e+14
3.50001e+14
4.48315e+14
5.73964e+14
3.31504e+15
4.11625e+15
3.92384e+15
2.8496e+15
1.54188e+15
5.86956e+14
2.33329e+14
1.51357e+14
1.65274e+14
1.81949e+14
2.05536e+14
2.86637e+14
3.96758e+14
5.21764e+14
6.55956e+14
2.87256e+15
3.39904e+15
3.09636e+15
2.13933e+15
1.075e+15
3.58876e+14
1.25681e+14
1.22872e+14
1.28138e+14
1.38801e+14
1.70739e+14
2.34289e+14
2.901e+14
3.38749e+14
3.93155e+14
2.70755e+15
3.43324e+15
3.27961e+15
2.39023e+15
1.31213e+15
4.78637e+14
1.109e+14
8.97045e+13
9.34879e+13
1.04439e+14
1.34221e+14
2.06832e+14
2.71021e+14
3.30648e+14
3.96534e+14
1.44613e+15
1.78436e+15
1.70518e+15
1.2369e+15
6.52682e+14
2.28785e+14
9.64339e+13
8.56225e+13
7.84187e+13
9.01223e+13
1.39324e+14
2.0053e+14
2.47145e+14
2.95209e+14
3.52419e+14
8.79718e+14
1.12172e+15
1.10733e+15
8.41574e+14
4.85181e+14
1.98963e+14
1.03835e+14
1.01886e+14
1.02836e+14
1.21064e+14
1.6765e+14
2.16339e+14
2.54423e+14
2.93053e+14
3.39353e+14
3.29199e+14
3.47292e+14
3.23369e+14
2.56538e+14
1.49736e+14
1.0775e+14
1.12895e+14
1.17046e+14
1.15874e+14
1.24457e+14
1.57776e+14
1.9393e+14
2.28344e+14
2.6401e+14
3.04459e+14
2.01271e+14
2.10495e+14
1.85635e+14
1.67739e+14
1.49322e+14
1.17412e+14
9.47399e+13
9.34484e+13
1.2221e+14
1.30954e+14
1.81917e+14
2.12434e+14
2.32765e+14
2.49622e+14
2.73908e+14
1.03928e+14
1.07149e+14
9.46075e+13
8.34371e+13
8.27887e+13
8.10694e+13
7.50852e+13
7.39571e+13
1.00751e+14
1.42709e+14
1.84123e+14
2.10956e+14
2.22935e+14
2.37722e+14
2.61089e+14
7.47617e+13
7.69932e+13
6.84358e+13
6.18097e+13
7.20536e+13
8.00288e+13
8.55506e+13
9.19128e+13
1.10261e+14
1.47013e+14
1.87625e+14
2.11492e+14
2.21974e+14
2.29356e+14
2.39111e+14
5.36533e+13
5.81322e+13
5.98204e+13
6.14006e+13
6.96419e+13
7.77234e+13
8.48799e+13
8.83412e+13
1.04516e+14
1.32742e+14
1.59871e+14
1.79467e+14
1.86725e+14
1.92794e+14
1.99151e+14
4.0598e+13
4.24071e+13
3.93967e+13
3.86803e+13
4.44773e+13
4.88586e+13
5.50692e+13
6.83229e+13
9.39959e+13
1.23605e+14
1.50465e+14
1.71226e+14
1.83882e+14
1.92331e+14
1.99085e+14
3.13906e+13
3.37791e+13
3.81249e+13
4.41055e+13
4.81464e+13
4.95276e+13
5.00508e+13
5.88471e+13
8.37607e+13
1.15524e+14
1.38761e+14
1.5584e+14
1.67022e+14
1.75823e+14
1.84311e+14
3.18204e+13
3.57905e+13
3.80237e+13
4.07761e+13
4.19322e+13
4.1617e+13
3.92622e+13
4.14878e+13
7.3591e+13
1.0233e+14
1.19452e+14
1.30641e+14
1.38641e+14
1.44296e+14
1.48215e+14
2.28326e+13
2.48637e+13
2.76251e+13
3.04061e+13
3.33071e+13
3.60827e+13
3.69506e+13
4.14624e+13
7.61442e+13
9.74534e+13
1.08222e+14
1.14886e+14
1.1774e+14
1.1892e+14
1.19145e+14
1.70256e+13
1.81889e+13
1.88157e+13
1.95843e+13
1.98288e+13
2.0259e+13
2.28784e+13
3.73673e+13
6.46144e+13
8.9141e+13
9.93588e+13
1.03274e+14
1.03146e+14
1.02077e+14
1.02398e+14
1.24734e+13
1.31497e+13
1.37137e+13
1.54769e+13
1.77454e+13
1.96725e+13
2.29098e+13
3.98098e+13
6.68901e+13
8.40041e+13
8.96771e+13
9.09806e+13
9.02631e+13
9.10426e+13
9.56085e+13
9.84902e+12
1.05305e+13
1.02548e+13
1.21994e+13
1.46583e+13
1.64595e+13
2.05701e+13
3.85711e+13
6.11032e+13
7.5693e+13
8.01972e+13
8.00646e+13
7.70973e+13
7.56436e+13
7.72191e+13
7.43874e+12
8.29159e+12
8.71207e+12
9.57096e+12
1.04546e+13
1.16692e+13
2.35154e+13
4.58831e+13
6.49663e+13
7.27127e+13
7.50718e+13
7.31326e+13
6.8595e+13
6.52768e+13
6.48178e+13
9.86712e+12
1.01392e+13
8.99682e+12
9.72588e+12
1.10168e+13
1.29287e+13
1.88271e+13
3.5315e+13
5.01937e+13
5.79666e+13
6.22204e+13
6.18945e+13
5.88411e+13
5.52531e+13
5.34628e+13
8.51319e+12
8.39005e+12
6.67223e+12
7.13804e+12
8.20195e+12
9.98114e+12
2.05776e+13
3.20496e+13
4.27302e+13
4.96848e+13
5.47252e+13
5.47034e+13
5.17973e+13
4.829e+13
4.61141e+13
6.50072e+12
7.03877e+12
6.10725e+12
5.77014e+12
6.1813e+12
1.04303e+13
2.01036e+13
2.98357e+13
3.48165e+13
3.98504e+13
4.2131e+13
4.21913e+13
4.06935e+13
3.8878e+13
3.75818e+13
1.05908e+12
1.37745e+12
2.41115e+12
3.81161e+12
5.76518e+12
1.19324e+13
2.33226e+13
2.7579e+13
2.90099e+13
3.10328e+13
3.18097e+13
3.13327e+13
3.02161e+13
2.92602e+13
2.86858e+13
3.40658e+12
4.71491e+12
6.40856e+12
8.4721e+12
1.03682e+13
1.23017e+13
1.92154e+13
2.44917e+13
2.61707e+13
2.68175e+13
2.67842e+13
2.61768e+13
2.54131e+13
2.45706e+13
2.41091e+13
5.35899e+12
6.91083e+12
8.95101e+12
1.11207e+13
1.28344e+13
1.55632e+13
1.71447e+13
1.94504e+13
2.00953e+13
2.04924e+13
2.02284e+13
1.9467e+13
1.87266e+13
1.8201e+13
1.80429e+13
4.82601e+12
5.71228e+12
7.38092e+12
9.40877e+12
1.15824e+13
1.37544e+13
1.22158e+13
1.46534e+13
1.43793e+13
1.38695e+13
1.33577e+13
1.27543e+13
1.24947e+13
1.23757e+13
1.28464e+13
4.18224e+12
4.72218e+12
5.90875e+12
7.11986e+12
8.13859e+12
9.45584e+12
1.57468e+13
1.65112e+13
1.47664e+13
1.37579e+13
1.24269e+13
1.09331e+13
1.04377e+13
1.05555e+13
1.20322e+13
3.42561e+12
3.80591e+12
4.71941e+12
5.76044e+12
6.93367e+12
9.1045e+12
1.25364e+13
1.47621e+13
1.45373e+13
1.36068e+13
1.25525e+13
1.17788e+13
1.13555e+13
1.13874e+13
1.44058e+13
2.58596e+12
2.85817e+12
3.53293e+12
4.32879e+12
5.0713e+12
6.48076e+12
1.01555e+13
1.23537e+13
1.26503e+13
1.22126e+13
1.17018e+13
1.14864e+13
1.12879e+13
1.21557e+13
1.66386e+13
1.9056e+12
2.10056e+12
2.62972e+12
3.38268e+12
4.32216e+12
5.62845e+12
7.42708e+12
9.26086e+12
1.02493e+13
1.03842e+13
1.01079e+13
1.02232e+13
1.03752e+13
1.17371e+13
1.76347e+13
1.38589e+12
1.5134e+12
1.84993e+12
2.29143e+12
2.83654e+12
3.68497e+12
5.93311e+12
8.27424e+12
9.53736e+12
9.84245e+12
9.93782e+12
9.98166e+12
1.00667e+13
1.15156e+13
1.68452e+13
9.97847e+11
1.08605e+12
1.32561e+12
1.65903e+12
2.09186e+12
2.80488e+12
4.01613e+12
5.64165e+12
6.86318e+12
7.49007e+12
8.10539e+12
8.52625e+12
9.07636e+12
1.06266e+13
1.41649e+13
7.00644e+11
7.61897e+11
9.26044e+11
1.15615e+12
1.45936e+12
1.94653e+12
2.95565e+12
4.25161e+12
5.38189e+12
6.01507e+12
6.63752e+12
6.86407e+12
7.56779e+12
8.83011e+12
1.1447e+13
4.64198e+11
5.0533e+11
6.16194e+11
7.76969e+11
1.02587e+12
1.4913e+12
2.26975e+12
3.25189e+12
4.1462e+12
5.01114e+12
5.64598e+12
5.83391e+12
6.19095e+12
7.06196e+12
8.89018e+12
2.97309e+11
3.22522e+11
3.90513e+11
4.85591e+11
6.41121e+11
9.58052e+11
1.53244e+12
2.31741e+12
3.28472e+12
4.08553e+12
4.62932e+12
4.87014e+12
5.00872e+12
5.51211e+12
6.6873e+12
1.99092e+11
2.15139e+11
2.57809e+11
3.14252e+11
4.04752e+11
6.13567e+11
1.04095e+12
1.70804e+12
2.54744e+12
3.31092e+12
3.75985e+12
3.8472e+12
4.16068e+12
4.29735e+12
4.99662e+12
1.36823e+11
1.4742e+11
1.76348e+11
2.19272e+11
2.97379e+11
4.6049e+11
7.70369e+11
1.25039e+12
1.91861e+12
2.63059e+12
3.10754e+12
3.22328e+12
3.305e+12
3.35571e+12
3.7327e+12
9.70579e+10
1.04152e+11
1.23697e+11
1.53156e+11
2.13631e+11
3.50008e+11
6.19097e+11
9.94463e+11
1.41448e+12
1.8677e+12
2.34662e+12
2.58691e+12
2.65354e+12
2.72342e+12
2.99994e+12
7.43715e+10
8.07587e+10
1.00584e+11
1.33619e+11
1.91653e+11
3.06707e+11
5.08499e+11
7.774e+11
1.07156e+12
1.49677e+12
1.80265e+12
1.97241e+12
2.08133e+12
2.23772e+12
2.48544e+12
5.70947e+10
6.21067e+10
7.94311e+10
1.09451e+11
1.61619e+11
2.57365e+11
4.15367e+11
6.31541e+11
8.61802e+11
1.13161e+12
1.2261e+12
1.40439e+12
1.55487e+12
1.84301e+12
2.08039e+12
5.17224e+10
5.70162e+10
7.36843e+10
1.01729e+11
1.4788e+11
2.25077e+11
3.46777e+11
5.17661e+11
7.45165e+11
9.3898e+11
9.64462e+11
1.07758e+12
1.21256e+12
1.47297e+12
1.6438e+12
4.09684e+10
4.50235e+10
5.9629e+10
8.51497e+10
1.29923e+11
2.06058e+11
3.17087e+11
4.61799e+11
6.32507e+11
8.46784e+11
9.98757e+11
1.05618e+12
1.12118e+12
1.20918e+12
1.31748e+12
4.27671e+10
4.76836e+10
6.32418e+10
8.97217e+10
1.34062e+11
2.03892e+11
2.95417e+11
4.05567e+11
5.47261e+11
7.21536e+11
8.04314e+11
8.61167e+11
9.56301e+11
1.01369e+12
1.08251e+12
4.18149e+10
4.63895e+10
6.16223e+10
8.81481e+10
1.30997e+11
1.92977e+11
2.69121e+11
3.5901e+11
4.78694e+11
6.22221e+11
7.50808e+11
8.24159e+11
8.63709e+11
8.78622e+11
9.40627e+11
4.33998e+10
4.80417e+10
6.30868e+10
8.88497e+10
1.28476e+11
1.83225e+11
2.49064e+11
3.22401e+11
4.16064e+11
5.28199e+11
6.40599e+11
7.15071e+11
7.52876e+11
7.83394e+11
8.59371e+11
4.38267e+10
4.84034e+10
6.31905e+10
8.75772e+10
1.22477e+11
1.67688e+11
2.20813e+11
2.77809e+11
3.4089e+11
4.07544e+11
4.9954e+11
5.86153e+11
6.39497e+11
6.7749e+11
7.25594e+11
4.07405e+10
4.43311e+10
5.58268e+10
7.48221e+10
1.03002e+11
1.41529e+11
1.88073e+11
2.36599e+11
2.86656e+11
3.397e+11
4.21443e+11
5.1167e+11
5.54511e+11
5.85989e+11
6.28036e+11
4.02828e+10
4.36968e+10
5.39147e+10
6.98796e+10
9.19408e+10
1.21522e+11
1.60781e+11
2.11558e+11
2.74096e+11
3.44839e+11
4.01882e+11
4.5045e+11
4.8665e+11
5.12301e+11
5.54944e+11
3.72651e+10
4.00549e+10
4.84906e+10
6.21983e+10
8.2358e+10
1.10258e+11
1.47178e+11
1.94152e+11
2.48475e+11
3.05167e+11
3.50972e+11
3.99673e+11
4.29597e+11
4.54843e+11
4.89402e+11
3.51293e+10
3.76294e+10
4.49563e+10
5.6608e+10
7.32845e+10
9.71846e+10
1.31336e+11
1.76434e+11
2.29519e+11
2.82063e+11
3.24008e+11
3.54576e+11
3.81193e+11
3.9891e+11
4.28759e+11
3.34559e+10
3.57863e+10
4.26575e+10
5.40341e+10
7.12236e+10
9.56054e+10
1.27195e+11
1.64171e+11
2.03369e+11
2.39719e+11
2.71982e+11
3.05714e+11
3.28922e+11
3.49237e+11
3.74898e+11
3.24923e+10
3.47102e+10
4.11723e+10
5.18065e+10
6.73502e+10
8.85661e+10
1.15992e+11
1.4909e+11
1.86546e+11