/*--------------------------------*- C++ -*----------------------------------*\
  =========                 |
  \\      /  F ield         | OpenFOAM: The Open Source CFD Toolbox
   \\    /   O peration     | Website:  https://openfoam.org
    \\  /    A nd           | Version:  7
     \\/     M anipulation  |
\*---------------------------------------------------------------------------*/
FoamFile
{
    version     2.0;
    format      ascii;
    class       volScalarField;
    location    "300";
    object      p_tot;
}
// * * * * * * * * * * * * * * * * * * * * * * * * * * * * * * * * * * * * * //

dimensions      [0 2 -2 0 0 0 0];

internalField   nonuniform List<scalar> 
32100
(
-2.61502e+12
-2.61502e+12
-2.61502e+12
-2.61502e+12
-2.61502e+12
-2.61503e+12
-2.61503e+12
-2.61503e+12
-2.61503e+12
-2.61503e+12
-2.61503e+12
-2.61503e+12
-2.61503e+12
-2.61503e+12
-2.61503e+12
-2.61502e+12
-2.61502e+12
-2.61502e+12
-2.61501e+12
-2.61503e+12
-2.61503e+12
-2.61503e+12
-2.61503e+12
-2.61503e+12
-2.61503e+12
-2.61503e+12
-2.61503e+12
-2.61503e+12
-2.61503e+12
-2.61503e+12
-2.61502e+12
-2.61502e+12
-2.61502e+12
-2.61501e+12
-2.61499e+12
-2.61503e+12
-2.61503e+12
-2.61503e+12
-2.61503e+12
-2.61503e+12
-2.61503e+12
-2.61503e+12
-2.61503e+12
-2.61503e+12
-2.61287e+12
-2.61501e+12
-2.61501e+12
-2.61501e+12
-2.61485e+12
-2.61494e+12
-2.61503e+12
-2.61503e+12
-2.61503e+12
-2.61503e+12
-2.61503e+12
-2.61503e+12
-2.61503e+12
-2.61503e+12
-2.61432e+12
-2.59798e+12
-2.61499e+12
-2.61501e+12
-2.61487e+12
-2.61457e+12
-2.61234e+12
-2.61502e+12
-2.61503e+12
-2.61503e+12
-2.61503e+12
-2.61503e+12
-2.61503e+12
-2.61503e+12
-2.61498e+12
-2.60091e+12
-2.57262e+12
-2.6147e+12
-2.61473e+12
-2.61441e+12
-2.60812e+12
-2.6085e+12
-2.61499e+12
-2.61501e+12
-2.61503e+12
-2.61503e+12
-2.61503e+12
-2.61503e+12
-2.61503e+12
-2.61248e+12
-2.55399e+12
-2.49627e+12
-2.61437e+12
-2.61457e+12
-2.59631e+12
-2.59438e+12
-2.3679e+12
-2.61113e+12
-2.61496e+12
-2.61501e+12
-2.61501e+12
-2.61503e+12
-2.61503e+12
-2.61494e+12
-2.59964e+12
-2.39958e+12
-2.34549e+12
-2.73308e+12
-2.60295e+12
-2.47967e+12
-2.29996e+12
-1.7626e+12
-1.38149e+12
-2.61084e+12
-2.61411e+12
-2.61422e+12
-2.61503e+12
-2.61503e+12
-2.61331e+12
-2.52432e+12
-2.16209e+12
-2.08021e+12
-3.20031e+12
-1.38836e+12
3.27232e+12
-2.08257e+12
2.32544e+13
1.86366e+13
1.91863e+13
3.56826e+13
6.9975e+12
-2.58512e+12
-2.61434e+12
-2.60926e+12
-2.35835e+12
-1.91389e+12
-1.86795e+12
3.84761e+12
1.07616e+13
1.40896e+13
8.77687e+12
7.08437e+13
9.03743e+13
9.84295e+13
1.58018e+14
3.27114e+13
-2.30701e+12
-2.60253e+12
-2.59959e+12
-2.20244e+12
-1.84321e+12
-1.8151e+12
1.26279e+13
1.46924e+13
1.49341e+13
9.16202e+12
4.15714e+13
1.36327e+14
1.55407e+14
2.80606e+14
7.20584e+13
-2.463e+12
-2.61575e+12
-2.64396e+12
-2.17726e+12
-1.79954e+12
-1.79442e+12
2.35558e+13
1.78083e+13
1.61151e+13
1.39829e+13
2.34404e+13
7.67619e+13
7.29294e+13
1.65291e+14
8.35244e+13
-2.57721e+12
-2.65983e+12
-2.5436e+12
-1.54853e+12
-1.74458e+12
-1.75774e+12
2.59885e+13
2.02075e+13
1.5166e+13
9.66023e+12
4.38309e+12
1.01086e+13
8.35099e+11
1.76549e+13
1.42042e+13
-2.62855e+12
-2.76896e+12
-2.44593e+12
-1.24714e+12
-1.40476e+12
-1.47513e+12
2.86801e+13
2.12606e+13
1.59483e+13
5.84424e+12
-1.25242e+12
-2.61413e+12
-2.75005e+12
-2.99269e+12
-2.64662e+12
-2.64131e+12
-2.6483e+12
-2.36237e+12
-8.50085e+11
-1.15712e+12
-1.19478e+12
3.81024e+13
2.59783e+13
1.66609e+13
1.44903e+12
-1.49309e+12
-2.53425e+12
-2.66203e+12
-2.6634e+12
-2.6552e+12
-2.64546e+12
-2.64041e+12
-1.78089e+12
-6.17238e+11
-7.80416e+11
-9.10645e+11
1.39556e+14
4.25987e+13
2.73043e+13
6.61816e+11
-2.05828e+12
-2.6175e+12
-2.65517e+12
-2.6552e+12
-2.65521e+12
-2.6552e+12
-2.65854e+12
-1.58653e+12
-3.65287e+11
-5.37397e+11
-6.23214e+11
4.91969e+14
1.7563e+14
5.99015e+13
1.51301e+13
-2.58813e+12
-2.65494e+12
-2.65519e+12
-2.6552e+12
-2.65521e+12
-2.65521e+12
-2.66873e+12
-1.56626e+12
-1.10899e+11
-2.01066e+11
-3.40363e+11
1.362e+15
8.52248e+14
3.45682e+14
1.15538e+14
-2.33272e+12
-2.65519e+12
-2.6552e+12
-2.6552e+12
-2.65521e+12
-2.65521e+12
-2.65682e+12
-1.27718e+12
4.26613e+11
4.87647e+10
-1.96464e+10
2.67272e+15
2.20788e+15
1.09574e+15
2.54198e+14
-2.65365e+12
-2.65519e+12
-2.6552e+12
-2.6552e+12
-2.6552e+12
-2.65519e+12
-2.63756e+12
-7.14259e+10
8.16695e+11
3.92655e+11
2.25593e+11
4.4658e+15
3.72848e+15
2.18388e+15
5.03591e+14
-2.64429e+12
-2.65519e+12
-2.6552e+12
-2.6552e+12
-2.6552e+12
-2.65507e+12
-2.48812e+12
2.74814e+12
1.07157e+12
5.45287e+11
4.40868e+11
6.12116e+15
5.10499e+15
3.27864e+15
8.09859e+14
-2.62356e+12
-2.65519e+12
-2.65519e+12
-2.65519e+12
-2.65519e+12
-2.65359e+12
-1.14866e+12
3.50453e+12
-3.07379e+11
5.53976e+11
5.70935e+11
6.19863e+15
5.45784e+15
3.9594e+15
9.77939e+14
-2.57168e+12
-2.65519e+12
-2.65519e+12
-2.65519e+12
-2.65518e+12
-2.65195e+12
-1.34954e+12
-6.73932e+11
-8.44262e+11
5.15838e+11
6.98987e+11
5.26228e+15
4.91442e+15
3.94571e+15
8.42016e+14
-2.39546e+12
-2.65518e+12
-2.65518e+12
-2.65518e+12
-2.65517e+12
-2.65466e+12
-3.21002e+12
-3.89323e+12
-8.72708e+11
6.12959e+11
8.1525e+11
4.54231e+15
4.33784e+15
3.72581e+15
8.5255e+14
-1.55871e+12
-2.65495e+12
-2.65517e+12
-2.65516e+12
-2.65511e+12
-2.65477e+12
-3.35782e+12
-5.64219e+12
-8.67904e+11
7.19741e+11
9.52801e+11
4.19859e+15
4.07796e+15
3.58663e+15
8.47261e+14
2.82157e+12
-2.65209e+12
-2.65511e+12
-2.65514e+12
-2.65509e+12
-2.65509e+12
-2.79046e+12
-5.7554e+12
-5.43608e+11
9.29447e+11
1.07307e+12
4.13527e+15
4.06609e+15
3.74368e+15
1.20228e+15
1.94424e+13
-2.64078e+12
-2.65584e+12
-2.65509e+12
-2.65507e+12
-2.65507e+12
-2.67586e+12
-2.58446e+12
2.88255e+11
1.10808e+12
1.19629e+12
4.19043e+15
4.2033e+15
4.12907e+15
1.83141e+15
5.18115e+13
-2.66741e+12
-2.66921e+12
-2.65504e+12
-2.65504e+12
-2.65496e+12
-2.6528e+12
-9.75365e+11
8.71466e+11
1.27246e+12
1.29011e+12
4.30913e+15
4.39421e+15
4.63554e+15
2.81586e+15
9.32303e+13
-2.85643e+12
-2.73308e+12
-2.66371e+12
-2.6549e+12
-2.63367e+12
-2.5884e+12
4.58901e+12
1.48347e+12
1.38328e+12
1.39152e+12
4.38672e+15
4.50641e+15
5.02907e+15
3.99785e+15
1.78822e+14
-3.35052e+12
-2.90964e+12
-2.6098e+12
-2.55649e+12
-2.60819e+12
-6.6572e+11
5.58591e+12
2.3433e+12
1.55502e+12
1.49283e+12
4.3355e+15
4.42814e+15
4.93307e+15
4.85749e+15
3.92862e+14
-3.34387e+12
-3.31704e+12
-2.45606e+12
-2.18196e+12
-1.34684e+12
2.57166e+11
6.67132e+12
3.30113e+12
1.747e+12
1.63443e+12
4.19264e+15
4.24164e+15
4.51977e+15
4.88428e+15
6.32802e+14
1.75274e+12
-3.93183e+12
-2.06577e+12
-1.08206e+12
1.92103e+12
5.78949e+12
9.51702e+12
4.43454e+12
2.02858e+12
1.80414e+12
4.07975e+15
4.10863e+15
4.28335e+15
3.78383e+15
5.89595e+14
2.10919e+13
-4.99217e+12
-9.47733e+11
2.46524e+12
1.27025e+13
1.51281e+13
1.08385e+13
5.87223e+12
2.36538e+12
2.02171e+12
4.07127e+15
4.10347e+15
4.34581e+15
2.62101e+15
3.77754e+14
2.5348e+13
-8.97996e+12
1.84243e+12
1.24022e+13
2.54535e+13
2.65978e+13
1.34678e+13
7.08512e+12
2.78195e+12
2.26083e+12
4.13366e+15
4.19212e+15
4.28882e+15
1.677e+15
1.84485e+14
1.52745e+13
-9.48761e+12
6.83185e+12
2.7156e+13
3.86556e+13
3.88285e+13
1.69135e+13
8.5756e+12
3.20804e+12
2.51127e+12
4.17295e+15
4.18004e+15
3.88984e+15
1.33358e+15
1.36488e+14
2.84272e+13
6.12386e+11
1.66448e+13
4.09358e+13
4.72605e+13
4.74827e+13
2.17534e+13
1.04981e+13
3.71658e+12
2.75452e+12
4.20409e+15
4.1713e+15
3.86111e+15
1.23924e+15
1.35518e+14
4.3312e+13
1.37257e+13
2.90192e+13
4.77054e+13
5.01654e+13
5.20991e+13
2.79768e+13
1.2225e+13
4.15551e+12
2.88526e+12
4.20033e+15
4.19573e+15
4.02267e+15
1.1529e+15
1.28757e+14
4.47199e+13
1.82839e+13
3.73702e+13
5.68211e+13
5.50067e+13
5.6655e+13
2.97418e+13
1.28484e+13
4.21069e+12
2.89193e+12
4.13375e+15
4.20789e+15
4.13109e+15
7.41904e+14
6.83084e+13
3.52246e+13
2.90768e+13
4.70301e+13
6.46266e+13
6.45944e+13
6.36581e+13
2.91705e+13
1.22661e+13
4.06407e+12
2.62143e+12
3.86659e+15
4.04792e+15
4.16186e+15
6.22439e+14
2.48681e+13
2.37941e+13
2.81993e+13
4.76397e+13
7.01451e+13
7.32268e+13
7.13307e+13
2.89183e+13
1.13866e+13
3.55785e+12
2.24379e+12
3.04346e+15
2.57337e+15
2.66208e+15
1.35055e+14
8.40326e+12
1.47717e+13
2.67759e+13
4.48248e+13
7.00587e+13
7.99785e+13
7.60535e+13
2.79432e+13
9.77849e+12
3.13691e+12
1.59075e+12
8.65763e+14
6.23406e+14
4.2177e+14
-5.74583e+10
4.44886e+12
9.74982e+12
2.58946e+13
4.22502e+13
6.41752e+13
8.24622e+13
7.08435e+13
2.58443e+13
8.58037e+12
2.53071e+12
7.69879e+11
1.44585e+14
5.5299e+13
-1.79367e+11
-1.64132e+12
1.38027e+12
6.06643e+12
2.31245e+13
3.61304e+13
5.12384e+13
7.45169e+13
5.9961e+13
2.1283e+13
6.29505e+12
1.40056e+12
-5.96227e+11
1.71777e+13
1.86893e+12
-2.0103e+12
-2.03917e+12
-1.40982e+12
2.69941e+12
1.89502e+13
3.23961e+13
4.3415e+13
6.18452e+13
3.85437e+13
1.4855e+13
1.85527e+12
-1.04173e+12
-2.15794e+12
2.17871e+13
5.32165e+12
-2.14302e+12
-2.3381e+12
-2.64517e+12
-1.14991e+12
1.06799e+13
2.94747e+13
3.92682e+13
5.19787e+13
7.99477e+13
3.65671e+12
-2.36393e+12
-2.78899e+12
-2.77435e+12
4.06082e+13
1.57648e+13
-8.2861e+11
-2.62907e+12
-2.74791e+12
-2.6124e+12
2.7416e+12
2.08783e+13
3.17273e+13
3.18493e+13
1.08533e+13
-1.66972e+12
-2.71349e+12
-2.78188e+12
-2.77541e+12
5.76921e+13
2.16436e+13
-1.7748e+11
-2.76895e+12
-2.77423e+12
-2.76781e+12
-2.17674e+12
8.92481e+12
1.35454e+13
1.03484e+13
-9.10052e+11
-2.44176e+12
-2.75085e+12
-2.77519e+12
-2.77468e+12
7.25892e+13
2.69486e+13
-1.63727e+12
-2.7758e+12
-2.78173e+12
-2.7822e+12
-2.76914e+12
-2.38767e+12
1.16037e+11
-1.43583e+12
-2.16455e+12
-2.61838e+12
-2.76614e+12
-2.7742e+12
-2.77434e+12
1.31603e+14
5.90035e+13
2.60124e+11
-2.77962e+12
-2.78818e+12
-2.79095e+12
-2.79729e+12
-2.79781e+12
-2.70528e+12
-2.69673e+12
-2.61301e+12
-2.70902e+12
-2.77245e+12
-2.77419e+12
-2.7737e+12
2.43311e+14
1.40505e+14
8.44012e+12
-2.77628e+12
-2.79623e+12
-2.80316e+12
-2.80539e+12
-2.80582e+12
-2.80295e+12
-2.79599e+12
-2.75691e+12
-2.76708e+12
-2.77554e+12
-2.77343e+12
-2.77329e+12
4.03508e+14
2.57558e+14
5.00809e+13
-2.78586e+12
-2.8022e+12
-2.80857e+12
-2.80753e+12
-2.80613e+12
-2.80295e+12
-2.79782e+12
-2.79192e+12
-2.78751e+12
-2.77626e+12
-2.77309e+12
-2.77248e+12
5.34917e+14
3.56057e+14
1.511e+14
-2.77168e+12
-2.80713e+12
-2.80886e+12
-2.8081e+12
-2.80614e+12
-2.80279e+12
-2.79823e+12
-2.79292e+12
-2.78788e+12
-2.77605e+12
-2.77156e+12
-2.77153e+12
5.64058e+14
3.58454e+14
2.84667e+13
-2.74128e+12
-2.8078e+12
-2.80877e+12
-2.80796e+12
-2.80589e+12
-2.80245e+12
-2.79773e+12
-2.79193e+12
-2.7857e+12
-2.77401e+12
-2.76925e+12
-2.76913e+12
7.22246e+14
4.46832e+14
7.74077e+13
-2.61179e+12
-2.80786e+12
-2.8083e+12
-2.80746e+12
-2.80532e+12
-2.80185e+12
-2.79687e+12
-2.79048e+12
-2.78245e+12
-2.76961e+12
-2.76268e+12
-2.76521e+12
9.54322e+14
5.90491e+14
2.00288e+14
2.63359e+12
-2.80656e+12
-2.80731e+12
-2.80648e+12
-2.80436e+12
-2.80089e+12
-2.7958e+12
-2.78872e+12
-2.77814e+12
-2.76208e+12
-2.75411e+12
-2.7574e+12
1.09265e+15
6.87925e+14
3.51049e+14
2.77881e+13
-2.80471e+12
-2.80588e+12
-2.80513e+12
-2.80308e+12
-2.79986e+12
-2.79487e+12
-2.78682e+12
-2.77478e+12
-2.75566e+12
-2.74743e+12
-2.74891e+12
1.11925e+15
7.08786e+14
3.97174e+14
6.52179e+13
-2.80286e+12
-2.80399e+12
-2.80331e+12
-2.8014e+12
-2.79845e+12
-2.79433e+12
-2.78631e+12
-2.77217e+12
-2.75044e+12
-2.73921e+12
-2.73071e+12
9.95507e+14
6.19931e+14
3.45863e+14
6.27014e+13
-2.79993e+12
-2.80167e+12
-2.80107e+12
-2.79918e+12
-2.79698e+12
-2.79456e+12
-2.78846e+12
-2.76868e+12
-2.73754e+12
-2.71765e+12
-2.70121e+12
6.73346e+14
4.56323e+14
2.44893e+14
3.16276e+13
-2.79672e+12
-2.79893e+12
-2.79834e+12
-2.79642e+12
-2.79435e+12
-2.79451e+12
-2.79361e+12
-2.76029e+12
-2.70731e+12
-2.67645e+12
-2.61595e+12
3.84782e+14
2.65923e+14
1.50216e+14
2.08656e+13
-2.79383e+12
-2.79604e+12
-2.79522e+12
-2.79274e+12
-2.79038e+12
-2.79027e+12
-2.79581e+12
-2.7427e+12
-2.6363e+12
-2.56778e+12
-2.49604e+12
1.8849e+14
1.27581e+14
6.95169e+13
7.23462e+12
-2.79175e+12
-2.79302e+12
-2.79181e+12
-2.78862e+12
-2.78455e+12
-2.78055e+12
-2.77635e+12
-2.64431e+12
-2.42211e+12
-2.41812e+12
-2.30983e+12
7.52705e+13
3.88964e+13
1.39092e+13
-4.48177e+12
-2.78942e+12
-2.79001e+12
-2.78845e+12
-2.78399e+12
-2.77746e+12
-2.76442e+12
-2.74538e+12
-2.56853e+12
-2.25105e+12
-2.17082e+12
-2.12431e+12
4.37338e+11
-1.04146e+13
-2.11231e+13
-1.12181e+13
-2.78802e+12
-2.78723e+12
-2.7853e+12
-2.77989e+12
-2.77052e+12
-2.75528e+12
-2.7344e+12
-2.61434e+12
-2.10452e+12
-1.94206e+12
-1.84262e+12
-5.59283e+13
-4.87024e+13
-4.01651e+13
-1.36554e+13
-2.7851e+12
-2.78471e+12
-2.78287e+12
-2.77704e+12
-2.76635e+12
-2.75045e+12
-2.72885e+12
-2.67993e+12
-2.00524e+12
-1.57649e+12
-1.52989e+12
-1.44498e+14
-8.82508e+13
-5.85114e+13
-1.29692e+13
-2.77973e+12
-2.78251e+12
-2.78123e+12
-2.77598e+12
-2.76534e+12
-2.75011e+12
-2.72935e+12
-2.33492e+12
-1.65167e+12
-1.24954e+12
-1.11289e+12
-3.04909e+14
-1.58386e+14
-7.61462e+13
-9.96747e+12
-2.7782e+12
-2.78123e+12
-2.78057e+12
-2.77686e+12
-2.76897e+12
-2.74677e+12
-2.4294e+12
-1.81127e+12
-1.28382e+12
-7.51544e+11
-7.0601e+11
-6.07614e+14
-2.94291e+14
-8.97728e+13
-8.59981e+12
-2.78067e+12
-2.77988e+12
-2.78037e+12
-2.77795e+12
-2.69334e+12
-2.44509e+12
-1.98088e+12
-1.41496e+12
-8.17459e+11
-3.07445e+11
-1.67265e+11
-1.09607e+15
-5.48366e+14
-1.29876e+14
-1.14338e+13
-2.77797e+12
-2.7782e+12
-2.77963e+12
-2.33149e+12
-2.03796e+12
-1.86295e+12
-1.56424e+12
-9.62246e+11
-2.90423e+11
3.57338e+11
3.81707e+11
-1.65182e+15
-7.91631e+14
-1.79067e+14
-1.28367e+13
-1.81335e+12
-2.77387e+12
5.24629e+12
1.73572e+12
-1.8264e+11
-1.14355e+12
-1.0594e+12
-3.59727e+11
3.82192e+11
8.72751e+11
9.68455e+11
-2.21914e+15
-1.00101e+15
-1.96929e+14
1.05933e+13
8.81854e+12
4.70404e+13
2.66392e+13
9.81378e+12
2.47151e+12
-2.14776e+11
-3.7483e+11
3.26594e+11
9.94061e+11
1.43059e+12
1.41144e+12
-2.63623e+15
-1.08606e+15
-1.3843e+14
1.01235e+14
1.44668e+14
1.107e+14
4.914e+13
1.94037e+13
5.6538e+12
1.09453e+12
4.15643e+11
9.7003e+11
1.53334e+12
1.80121e+12
1.88722e+12
-2.77837e+15
-9.17685e+14
2.72551e+13
2.3748e+14
2.4915e+14
1.45822e+14
7.30179e+13
2.91973e+13
9.48672e+12
2.61628e+12
1.15706e+12
1.45933e+12
1.90704e+12
2.2368e+12
2.31531e+12
-2.79587e+15
-6.31596e+14
2.31896e+14
4.0448e+14
3.26017e+14
2.05247e+14
1.05513e+14
4.44006e+13
1.51931e+13
4.84628e+12
2.0997e+12
2.39646e+12
3.83482e+12
2.60919e+12
2.87342e+12
-3.42191e+15
-3.88265e+14
4.64228e+14
5.70123e+14
4.55237e+14
2.86638e+14
1.5673e+14
6.80929e+13
2.40761e+13
8.45956e+12
3.5456e+12
5.19487e+12
6.31343e+12
3.24007e+12
3.38586e+12
-4.46681e+15
-1.49559e+14
8.91896e+14
9.16702e+14
7.28993e+14
5.07531e+14
2.9179e+14
1.27452e+14
4.53428e+13
1.69887e+13
7.47252e+12
1.05943e+13
3.84194e+12
3.81681e+12
4.19549e+12
-3.08282e+15
1.8882e+15
2.32571e+15
1.88548e+15
1.59613e+15
1.19853e+15
7.23097e+14
3.09396e+14
1.07269e+14
4.10733e+13
2.28307e+13
1.70937e+13
5.83952e+12
5.08984e+12
4.99367e+12
6.31571e+15
7.33426e+15
6.24678e+15
4.72008e+15
4.34273e+15
3.46572e+15
2.12032e+15
9.05472e+14
3.08742e+14
1.14644e+14
6.2717e+13
2.55603e+13
1.251e+13
7.32483e+12
7.38136e+12
2.68205e+16
1.96378e+16
1.45199e+16
1.1617e+16
1.05284e+16
8.27852e+15
4.94851e+15
2.11768e+15
7.42308e+14
2.76023e+14
1.36553e+14
6.14555e+13
2.83919e+13
1.68309e+13
1.28954e+13
6.9975e+16
4.20614e+16
2.92744e+16
2.33011e+16
1.98524e+16
1.51436e+16
8.77185e+15
3.73873e+15
1.33444e+15
4.97787e+14
2.18585e+14
1.02962e+14
5.45107e+13
2.82004e+13
2.88634e+13
1.07811e+17
6.52463e+16
4.56694e+16
3.4883e+16
2.83417e+16
2.04807e+16
1.17002e+16
4.87487e+15
1.77614e+15
6.48358e+14
2.66965e+14
1.24832e+14
6.41605e+13
6.49483e+13
6.36722e+13
1.22678e+17
7.73915e+16
5.26496e+16
3.96963e+16
2.97548e+16
2.08502e+16
1.13237e+16
4.72394e+15
1.65888e+15
5.58849e+14
2.0279e+14
7.59329e+13
7.53363e+13
1.17254e+14
1.37095e+14
1.1879e+17
6.43835e+16
4.04518e+16
2.44776e+16
1.59247e+16
8.89035e+15
4.18772e+15
1.33189e+15
2.42646e+14
-1.48449e+14
-2.35955e+14
-1.20188e+14
2.35039e+13
2.48769e+14
4.49627e+14
-1.56514e+17
-1.43527e+17
-1.2609e+17
-1.00229e+17
-7.57782e+16
-4.95711e+16
-2.82848e+16
-1.42872e+16
-7.46538e+15
-4.08951e+15
-2.57472e+15
-1.66599e+15
-1.12114e+15
-5.81091e+14
-2.28522e+13
-2.23721e+18
-1.52598e+18
-1.09452e+18
-8.24264e+17
-6.31637e+17
-4.74933e+17
-3.09924e+17
-1.65518e+17
-8.16604e+16
-3.73012e+16
-1.65315e+16
-7.30053e+15
-5.64988e+15
-2.69669e+15
9.24002e+14
-4.00818e+19
-2.75702e+19
-2.15786e+19
-1.85894e+19
-1.66486e+19
-1.45035e+19
-1.13269e+19
-7.70922e+18
-4.33159e+18
-2.09691e+18
-9.08518e+17
-2.81806e+17
-3.91718e+16
-7.66583e+15
4.18344e+16
-3.1531e+20
-2.54866e+20
-2.24301e+20
-2.04369e+20
-1.92504e+20
-1.68875e+20
-1.36493e+20
-9.16417e+19
-5.12994e+19
-2.23716e+19
-7.57931e+18
-1.25728e+18
1.06987e+18
2.18729e+18
3.96388e+18
-2.43048e+20
-1.7628e+20
-1.38362e+20
-9.38377e+19
-5.91971e+19
-1.38125e+19
2.58898e+19
7.54171e+19
1.12798e+20
1.38577e+20
1.49866e+20
1.51323e+20
1.3977e+20
1.322e+20
1.48534e+20
1.92657e+20
2.24273e+20
2.53595e+20
2.81176e+20
3.0321e+20
3.17501e+20
3.31595e+20
3.406e+20
3.41244e+20
3.33084e+20
3.23997e+20
3.22101e+20
3.24022e+20
3.38127e+20
3.58027e+20
-7.31359e+20
-4.39738e+20
-2.49292e+20
-8.69314e+19
3.68862e+19
1.37045e+20
2.13284e+20
2.67658e+20
2.93536e+20
2.96959e+20
2.92547e+20
2.97043e+20
3.03213e+20
3.16561e+20
3.31126e+20
-5.69095e+21
-3.51263e+21
-2.3856e+21
-1.53265e+21
-9.32248e+20
-4.36627e+20
-9.05225e+19
1.24757e+20
2.1037e+20
2.3641e+20
2.42071e+20
2.50742e+20
2.57781e+20
2.73595e+20
2.89325e+20
-2.53888e+21
-1.85124e+21
-1.40302e+21
-9.08061e+20
-5.09653e+20
-1.76838e+20
4.53021e+19
1.62598e+20
1.95803e+20
2.04677e+20
2.07044e+20
2.12955e+20
2.18486e+20
2.29071e+20
2.38516e+20
-4.19758e+21
-3.08911e+21
-2.36018e+21
-1.60182e+21
-1.01656e+21
-5.38025e+20
-1.89953e+20
2.86934e+19
1.23026e+20
1.4551e+20
1.48469e+20
1.4784e+20
1.45883e+20
1.4186e+20
1.38408e+20
-2.71193e+21
-1.91924e+21
-1.22942e+21
-8.15804e+20
-5.92843e+20
-3.44365e+20
-1.17676e+20
2.92794e+19
8.46698e+19
1.0105e+20
1.07326e+20
1.04576e+20
9.9728e+19
9.05292e+19
8.34793e+19
-6.14549e+20
-4.53275e+20
-3.53206e+20
-2.56174e+20
-1.79654e+20
-8.5966e+19
-1.12167e+19
3.91905e+19
6.57993e+19
7.66618e+19
8.03679e+19
7.5717e+19
7.05837e+19
5.85347e+19
4.90859e+19
-1.32046e+20
-1.01496e+20
-8.57963e+19
-6.03109e+19
-3.53798e+19
-1.6906e+18
2.8126e+19
5.04529e+19
6.39703e+19
6.70261e+19
6.70214e+19
5.79605e+19
5.07086e+19
3.31355e+19
1.89546e+19
-1.31455e+19
-9.26095e+18
-7.10306e+18
-8.1775e+17
5.77121e+18
1.67145e+19
2.84551e+19
4.04806e+19
4.97249e+19
5.38509e+19
5.53863e+19
5.05036e+19
4.61254e+19
3.49866e+19
2.54896e+19
3.90194e+18
4.35656e+18
4.75873e+18
6.37996e+18
8.02999e+18
1.11103e+19
1.47379e+19
1.98298e+19
2.47027e+19
2.83884e+19
3.10201e+19
3.11221e+19
3.12105e+19
2.72396e+19
2.42384e+19
1.3156e+18
1.42288e+18
1.46664e+18
1.64808e+18
1.87818e+18
2.34721e+18
2.92073e+18
3.83423e+18
4.83591e+18
5.93686e+18
6.84395e+18
7.49163e+18
8.07422e+18
8.07215e+18
7.98718e+18
2.99933e+17
2.92881e+17
2.88882e+17
2.89538e+17
2.9551e+17
3.13508e+17
3.40838e+17
3.53428e+17
3.73174e+17
3.17727e+17
2.91719e+17
-1.95215e+16
-2.16468e+17
-1.13941e+18
-2.23515e+18
8.08499e+16
7.61843e+16
7.27688e+16
6.47202e+16
5.58112e+16
3.98315e+16
2.15387e+16
-1.3937e+16
-5.38596e+16
-1.32228e+17
-2.15008e+17
-3.76989e+17
-5.40132e+17
-9.09115e+17
-1.42889e+18
1.60545e+16
1.04901e+16
8.14366e+15
1.78565e+15
-3.58006e+15
-1.40607e+16
-2.41496e+16
-4.39459e+16
-6.5028e+16
-1.06712e+17
-1.52091e+17
-2.38347e+17
-3.21115e+17
-4.92149e+17
-7.14352e+17
-1.20752e+16
-1.39962e+16
-1.51662e+16
-1.81616e+16
-2.09832e+16
-2.60281e+16
-3.08545e+16
-3.87835e+16
-4.65789e+16
-6.01409e+16
-7.59117e+16
-1.0499e+17
-1.36083e+17
-1.9229e+17
-2.65859e+17
-2.14275e+16
-2.30894e+16
-2.38943e+16
-2.58966e+16
-2.76306e+16
-3.07313e+16
-3.37572e+16
-3.82779e+16
-4.16985e+16
-4.65327e+16
-5.09199e+16
-6.20685e+16
-7.49233e+16
-1.04991e+17
-1.4516e+17
-2.54176e+16
-2.61938e+16
-2.65873e+16
-2.7662e+16
-2.86269e+16
-3.03099e+16
-3.21528e+16
-3.4751e+16
-3.69519e+16
-3.9199e+16
-4.07694e+16
-4.31202e+16
-4.57721e+16
-5.16542e+16
-5.99413e+16
-2.39985e+16
-2.44205e+16
-2.46534e+16
-2.54297e+16
-2.61166e+16
-2.74647e+16
-2.89159e+16
-3.11633e+16
-3.33025e+16
-3.56074e+16
-3.70886e+16
-3.86549e+16
-3.99822e+16
-4.19855e+16
-4.38659e+16
-1.88091e+16
-1.92286e+16
-1.943e+16
-1.99986e+16
-2.047e+16
-2.13463e+16
-2.22285e+16
-2.37675e+16
-2.53757e+16
-2.75325e+16
-2.93764e+16
-3.14275e+16
-3.31302e+16
-3.51466e+16
-3.67547e+16
-1.53258e+16
-1.53539e+16
-1.53708e+16
-1.55788e+16
-1.57938e+16
-1.62066e+16
-1.65458e+16
-1.71804e+16
-1.78745e+16
-1.92306e+16
-2.06222e+16
-2.25509e+16
-2.44078e+16
-2.68334e+16
-2.90375e+16
-1.01596e+16
-1.03182e+16
-1.04094e+16
-1.05512e+16
-1.06562e+16
-1.0831e+16
-1.09506e+16
-1.12154e+16
-1.14649e+16
-1.20096e+16
-1.26413e+16
-1.37288e+16
-1.48989e+16
-1.65484e+16
-1.81199e+16
-7.51666e+15
-7.47721e+15
-7.46017e+15
-7.47076e+15
-7.47576e+15
-7.53152e+15
-7.59439e+15
-7.7144e+15
-7.78896e+15
-7.97076e+15
-8.1909e+15
-8.71194e+15
-9.31627e+15
-1.03146e+16
-1.13065e+16
-4.12729e+15
-4.20352e+15
-4.23663e+15
-4.27061e+15
-4.2915e+15
-4.32986e+15
-4.356e+15
-4.41271e+15
-4.46418e+15
-4.55486e+15
-4.64402e+15
-4.8047e+15
-4.98878e+15
-5.30641e+15
-5.64753e+15
-2.29254e+15
-2.29808e+15
-2.33392e+15
-2.40861e+15
-2.49057e+15
-2.56968e+15
-2.62265e+15
-2.65928e+15
-2.68001e+15
-2.71981e+15
-2.76268e+15
-2.84345e+15
-2.92748e+15
-3.06444e+15
-3.20256e+15
-5.4989e+14
-5.85485e+14
-6.16653e+14
-6.94253e+14
-7.88545e+14
-9.2045e+14
-1.04095e+15
-1.14015e+15
-1.19412e+15
-1.23514e+15
-1.27157e+15
-1.32717e+15
-1.38488e+15
-1.4558e+15
-1.52167e+15
-8.27318e+13
-8.473e+13
-8.64944e+13
-1.01651e+14
-1.21043e+14
-1.65609e+14
-2.25304e+14
-3.09988e+14
-3.79984e+14
-4.40831e+14
-4.86998e+14
-5.34494e+14
-5.76529e+14
-6.23175e+14
-6.6423e+14
-6.09809e+12
-6.17138e+12
-6.2219e+12
-6.9426e+12
-7.87112e+12
-1.09405e+13
-1.66275e+13
-3.01143e+13
-4.71781e+13
-7.01265e+13
-9.47448e+13
-1.24462e+14
-1.51661e+14
-1.80028e+14
-2.04011e+14
-4.7861e+11
-4.84115e+11
-4.7678e+11
-5.07315e+11
-5.54701e+11
-7.28129e+11
-1.0235e+12
-1.78281e+12
-2.99376e+12
-5.42509e+12
-8.95359e+12
-1.55303e+13
-2.38391e+13
-3.64698e+13
-4.96881e+13
-6.42126e+10
-6.55514e+10
-6.35519e+10
-6.19938e+10
-6.03643e+10
-6.32553e+10
-7.03081e+10
-9.56047e+10
-1.43768e+11
-2.55175e+11
-4.44492e+11
-8.47985e+11
-1.4888e+12
-2.79301e+12
-4.74518e+12
-1.27264e+10
-1.25657e+10
-1.21969e+10
-1.12985e+10
-1.02062e+10
-9.00942e+09
-8.03129e+09
-7.89919e+09
-8.74963e+09
-1.17851e+10
-1.78254e+10
-3.09979e+10
-5.37835e+10
-9.72571e+10
-1.59141e+11
-2.8813e+09
-2.90291e+09
-2.84616e+09
-2.67089e+09
-2.47665e+09
-2.25579e+09
-2.0371e+09
-1.84701e+09
-1.66028e+09
-1.52295e+09
-1.48243e+09
-1.61758e+09
-1.99979e+09
-2.8182e+09
-4.14765e+09
-1.14539e+09
-1.11579e+09
-1.09542e+09
-1.03494e+09
-9.90253e+08
-9.3388e+08
-8.89094e+08
-8.33827e+08
-7.74277e+08
-7.04006e+08
-6.31268e+08
-5.58604e+08
-4.88816e+08
-4.35216e+08
-4.0319e+08
-4.97429e+08
-4.96336e+08
-4.92604e+08
-4.79348e+08
-4.67472e+08
-4.5411e+08
-4.46685e+08
-4.34227e+08
-4.20136e+08
-4.01792e+08
-3.82186e+08
-3.56668e+08
-3.25259e+08
-2.89035e+08
-2.50336e+08
-3.13158e+08
-3.06579e+08
-3.03874e+08
-2.97134e+08
-2.9398e+08
-2.88539e+08
-2.86479e+08
-2.80077e+08
-2.73261e+08
-2.62031e+08
-2.50137e+08
-2.33091e+08
-2.16613e+08
-1.98231e+08
-1.81577e+08
-1.73037e+08
-1.74377e+08
-1.7441e+08
-1.74488e+08
-1.7533e+08
-1.7582e+08
-1.76689e+08
-1.73872e+08
-1.70232e+08
-1.6292e+08
-1.54995e+08
-1.4398e+08
-1.34146e+08
-1.23498e+08
-1.14797e+08
-1.22347e+08
-1.20695e+08
-1.20303e+08
-1.19525e+08
-1.19605e+08
-1.18673e+08
-1.18004e+08
-1.15309e+08
-1.12659e+08
-1.08063e+08
-1.03645e+08
-9.75681e+07
-9.23162e+07
-8.64727e+07
-8.18739e+07
-7.39699e+07
-7.47737e+07
-7.51468e+07
-7.54007e+07
-7.57428e+07
-7.53949e+07
-7.48463e+07
-7.3606e+07
-7.24708e+07
-7.03987e+07
-6.82117e+07
-6.5132e+07
-6.24891e+07
-5.96905e+07
-5.75235e+07
-5.43358e+07
-5.38706e+07
-5.37466e+07
-5.3485e+07
-5.34445e+07
-5.31054e+07
-5.28183e+07
-5.20659e+07
-5.13115e+07
-5.00696e+07
-4.88299e+07
-4.72682e+07
-4.60251e+07
-4.4748e+07
-4.3795e+07
-3.49068e+07
-3.53063e+07
-3.5503e+07
-3.56303e+07
-3.57081e+07
-3.56395e+07
-3.55522e+07
-3.52165e+07
-3.48294e+07
-3.42183e+07
-3.36441e+07
-3.29926e+07
-3.24993e+07
-3.20076e+07
-3.16321e+07
-2.61988e+07
-2.6001e+07
-2.59342e+07
-2.58551e+07
-2.58063e+07
-2.57395e+07
-2.57155e+07
-2.56712e+07
-2.56259e+07
-2.55104e+07
-2.53915e+07
-2.52488e+07
-2.51411e+07
-2.50258e+07
-2.49414e+07
-1.84954e+07
-1.86129e+07
-1.8662e+07
-1.87045e+07
-1.87088e+07
-1.87073e+07
-1.87049e+07
-1.87171e+07
-1.87396e+07
-1.8745e+07
-1.8742e+07
-1.87233e+07
-1.8715e+07
-1.86892e+07
-1.86633e+07
-1.50442e+07
-1.49189e+07
-1.4875e+07
-1.48168e+07
-1.47683e+07
-1.47123e+07
-1.46656e+07
-1.46458e+07
-1.46561e+07
-1.46729e+07
-1.4679e+07
-1.46809e+07
-1.46789e+07
-1.46769e+07
-1.46762e+07
-1.07176e+07
-1.0785e+07
-1.08035e+07
-1.08177e+07
-1.08226e+07
-1.08286e+07
-1.08355e+07
-1.08367e+07
-1.08351e+07
-1.08078e+07
-1.07752e+07
-1.07283e+07
-1.06909e+07
-1.06404e+07
-1.05932e+07
-8.62096e+06
-8.54995e+06
-8.51674e+06
-8.48025e+06
-8.45585e+06
-8.43866e+06
-8.43933e+06
-8.43789e+06
-8.42318e+06
-8.38241e+06
-8.33456e+06
-8.27634e+06
-8.22264e+06
-8.16708e+06
-8.12335e+06
-6.13667e+06
-6.16672e+06
-6.17076e+06
-6.16583e+06
-6.15841e+06
-6.14144e+06
-6.13256e+06
-6.09955e+06
-6.04913e+06
-5.95669e+06
-5.86885e+06
-5.76639e+06
-5.68535e+06
-5.59381e+06
-5.51951e+06
-4.84389e+06
-4.77941e+06
-4.75375e+06
-4.71501e+06
-4.69157e+06
-4.64788e+06
-4.61211e+06
-4.54568e+06
-4.46669e+06
-4.34906e+06
-4.24662e+06
-4.13274e+06
-4.04323e+06
-3.94193e+06
-3.86152e+06
-3.00461e+06
-3.02897e+06
-3.03524e+06
-3.0229e+06
-3.01047e+06
-2.98321e+06
-2.96329e+06
-2.90071e+06
-2.82136e+06
-2.70851e+06
-2.61476e+06
-2.5131e+06
-2.43573e+06
-2.34548e+06
-2.27082e+06
-2.13514e+06
-2.09884e+06
-2.08512e+06
-2.05426e+06
-2.03415e+06
-1.99977e+06
-1.9673e+06
-1.90269e+06
-1.83196e+06
-1.74303e+06
-1.67413e+06
-1.59778e+06
-1.54042e+06
-1.47072e+06
-1.41481e+06
-1.18823e+06
-1.19566e+06
-1.19652e+06
-1.18575e+06
-1.17751e+06
-1.15468e+06
-1.12849e+06
-1.07926e+06
-1.02833e+06
-968208
-921656
-871565
-833674
-789222
-752673
-765826
-747325
-741275
-725186
-715288
-697315
-677580
-638825
-601228
-558058
-525224
-489836
-463925
-433653
-410559
-311565
-318464
-326632
-327214
-327519
-318909
-304560
-278395
-254807
-230429
-212378
-194089
-180606
-165470
-153377
-144116
-138372
-137084
-131953
-127125
-116328
-103819
-87738.6
-75896.5
-63973.1
-55506.1
-46183.8
-39307
-30850.2
-24311.9
15868.3
15507.1
16560.6
21066
25786.6
32794.8
39251.2
45897.5
50543
54892.1
57984.4
61461.9
64173.6
67629.4
70511.5
98726.9
100319
100758
102088
103189
105291
107310
109426
110896
112488
113645
115090
116193
117719
118866
151146
150348
149977
149711
149512
149329
149103
149158
149308
149630
149937
150369
150732
151218
151584
166794
166647
166517
166283
166036
165697
165332
165026
164825
164790
164801
164970
165109
165390
165614
175164
174693
174442
174134
173872
173563
173290
172982
172723
172509
172354
172277
172225
172274
172371
175676
175233
175012
174731
174498
174206
173937
173617
173345
173069
172844
172641
172452
172325
172251
172125
171871
171702
171459
171247
170966
170725
170413
170147
169833
169576
169294
169047
168830
168715
167888
167359
167108
166784
166524
166217
165946
165653
165406
165160
164975
164775
164622
164464
164361
159043
158906
158787
158572
158379
158090
157822
157471
157169
156831
156548
156256
156061
155866
155739
151477
150878
150618
150298
150068
149790
149544
149225
148938
148558
148235
147804
147462
147085
146805
137779
137875
137861
137758
137661
137456
137249
136886
136551
136082
135664
135180
134826
134402
134042
128962
128486
128279
127996
127783
127531
127326
127034
126749
126310
125908
125383
124977
124512
124147
116107
116190
116173
116080
115987
115788
115588
115220
114849
114315
113843
113322
112955
112564
112242
107712
107231
107037
106780
106608
106363
106122
105751
105366
104887
104479
104011
103663
103288
103019
95218
95345.4
95380
95329
95271.6
95072.5
94838.8
94396.2
93951.8
93377.2
92871.6
92356.5
91998.3
91706.3
91532.2
87878.1
87525.8
87408.8
87218.1
87070.9
86813.2
86549.1
86170.5
85798.1
85335.3
84925.7
84499.5
84211.5
83924.1
83727.1
77840.3
77904.5
77917.3
77840.9
77753.9
77535.6
77306.7
76927.9
76559.1
76059.1
75633.2
75204
74939.8
74647.2
74400.9
71349.3
71007.3
70883.6
70704.2
70570
70355.9
70143.1
69842.1
69555
69192.8
68891.1
68525.5
68257.5
67903.8
67608
61979.8
62084.4
62119.4
62072.3
62009.7
61831.1
61629.9
61290.6
60967.7
60531.1
60162.4
59716.4
59379.3
58962.7
58630.7
56590.2
56341.5
56247.6
56069.7
55918.7
55662.2
55413
55064.9
54745.5
54339.2
53992.2
53577.3
53245
52847.5
52554.9
49052.7
49099
49103.9
49012.3
48905.6
48688.6
48471.4
48146.1
47846.4
47443.3
47094.8
46668
46331.7
45955
45678.3
44337.3
44080.8
43976.4
43785.3
43623.6
43370.2
43136.9
42821
42530.4
42178.9
41877.4
41542.2
41276.6
40990.3
40779.1
37464.1
37520.6
37528.1
37439.9
37341.2
37150.3
36965.7
36687.8
36434.1
36101.6
35816.8
35476.7
35204.4
34904.8
34676.8
33706.6
33536
33462.5
33319.4
33199.4
33014.3
32851.2
32624.1
32423.9
32159.1
31917.7
31621.1
31375.2
31106.5
30910.7
29064.2
29082.6
29075.7
29004.4
28931
28796.7
28673.5
28481.9
28305.2
28047.3
27811.1
27518.7
27285.1
27026.6
26833.2
26391
26242
26180.4
26070.2
25984.3
25849.7
25731.5
25557.5
25396.9
25180.5
24988.8
24758.2
24571.3
24360.3
24203.3
22824.6
22846.8
22848.3
22803.6
22758.1
22664
22572.6
22423
22279.9
22081.7
21908.4
21700.3
21534.2
21346
21201.5
20925.1
20827.4
20789
20712.9
20652.4
20550.4
20456.5
20318.1
20192.3
20029.6
19888.5
19721
19583.7
19431.7
19318.4
18522.9
18525.8
18521.4
18480.9
18440.5
18362.2
18287.3
18171.7
18065.5
17921.5
17796
17643.7
17522.2
17385.2
17281.1
17137.8
17052.1
17017.3
16952.7
16901.4
16819.7
16746.4
16642.6
16550
16431.8
16329.6
16208.3
16109.9
16000
15917.9
15217.8
15224.3
15222.8
15192.6
15161.9
15102.4
15046
14959.9
14881.6
14775.4
14682.6
14569.8
14480.6
14377.7
14297.5
14174.5
14115.8
14091.9
14045
14007.5
13946.6
13892.3
13814
13743.8
13652.3
13573.3
13478.6
13402.5
13313.5
13244.2