/*--------------------------------*- C++ -*----------------------------------*\
  =========                 |
  \\      /  F ield         | OpenFOAM: The Open Source CFD Toolbox
   \\    /   O peration     | Website:  https://openfoam.org
    \\  /    A nd           | Version:  7
     \\/     M anipulation  |
\*---------------------------------------------------------------------------*/
FoamFile
{
    version     2.0;
    format      ascii;
    class       surfaceScalarField;
    location    "300";
    object      phi;
}
// * * * * * * * * * * * * * * * * * * * * * * * * * * * * * * * * * * * * * //

dimensions      [0 3 -1 0 0 0 0];

internalField   nonuniform List<scalar> 
63695
(
-1.29693e-05
-0.000165142
-5.34784e-05
-0.000491046
-0.000119611
-0.000795596
-0.000209841
-0.0010603
-0.000319018
-0.00126914
-0.000443401
-0.00140528
-0.000576287
-0.00145196
-0.00070935
-0.00139292
-0.000832607
-0.00121006
-0.000930653
-0.000879334
-0.000973619
-0.000365228
-0.000892848
0.000380039
-0.000511354
0.00142813
0.000588833
0.00289144
0.00493307
-1.33249e-05
-0.000153446
-5.61973e-05
-0.000456584
-0.000125684
-0.000739437
-0.000220416
-0.000987228
-0.000336734
-0.00118447
-0.000471018
-0.00131597
-0.000617913
-0.00136654
-0.000770879
-0.00132073
-0.000922196
-0.00116087
-0.00106098
-0.000865651
-0.00117033
-0.000406875
-0.00122508
0.000254131
-0.00120972
0.00118357
-0.00136046
0.00255046
0.00450411
-1.41109e-05
-0.000156254
-5.99111e-05
-0.000464871
-0.000133969
-0.000753803
-0.000235223
-0.00100834
-0.000361018
-0.00121287
-0.000508262
-0.00135243
-0.00067298
-0.00141188
-0.00085043
-0.00137551
-0.00103532
-0.00122595
-0.00122209
-0.000943156
-0.00140518
-0.000502052
-0.00158586
0.000130026
-0.00179679
0.0010052
-0.00212782
0.00220157
0.00368777
-1.51638e-05
-0.000160004
-6.44366e-05
-0.000476231
-0.000144345
-0.000773311
-0.000254129
-0.00103679
-0.000391648
-0.0012507
-0.000554571
-0.00140036
-0.000740026
-0.00147072
-0.000944858
-0.00144608
-0.00116612
-0.00130953
-0.00140156
-0.00104225
-0.00165333
-0.000623224
-0.00193263
-2.66868e-05
-0.00227099
0.000782659
-0.00270597
0.00182579
0.00300649
-1.64047e-05
-0.000165416
-6.97659e-05
-0.000492662
-0.000156407
-0.000800822
-0.000276069
-0.00107703
-0.000427116
-0.00130337
-0.000607688
-0.00146576
-0.000815819
-0.00154927
-0.00104957
-0.00153834
-0.00130746
-0.00141661
-0.00159009
-0.00116675
-0.00190254
-0.000772214
-0.00225509
-0.000211886
-0.0026695
0.000535238
-0.00316114
0.00145967
0.00246446
-1.77614e-05
-0.000172333
-7.55424e-05
-0.000513878
-0.000169741
-0.000836932
-0.00030053
-0.00112835
-0.000466394
-0.00136943
-0.000666072
-0.00154699
-0.000898207
-0.00164595
-0.00116174
-0.00165081
-0.0014562
-0.00154574
-0.0017835
-0.00131594
-0.00214803
-0.000947102
-0.00255691
-0.000421694
-0.0030238
0.000271156
-0.00355435
0.00111129
0.00201877
-1.92932e-05
-0.000180589
-8.20115e-05
-0.000539182
-0.000184182
-0.000881393
-0.000326753
-0.00118966
-0.000508662
-0.00144821
-0.000728511
-0.0016434
-0.000985528
-0.00176013
-0.00127912
-0.00178284
-0.00160962
-0.00169643
-0.00197869
-0.00148841
-0.00238917
-0.00114576
-0.00284555
-0.000653652
-0.00335495
-5.52267e-06
-0.00391933
0.000778543
0.00163454
-2.07607e-05
-0.00019012
-8.86449e-05
-0.000568805
-0.000199913
-0.000932448
-0.000355133
-0.00126068
-0.000553533
-0.00153923
-0.000794347
-0.00175455
-0.00107693
-0.00189141
-0.00140082
-0.00193398
-0.00176647
-0.00186801
-0.00217524
-0.00168271
-0.00262859
-0.00136661
-0.00312829
-0.00090547
-0.00367744
-0.000294556
-0.00427755
0.000451662
0.00127824
-2.21784e-05
-0.000200604
-9.49926e-05
-0.000602582
-0.000215729
-0.000990688
-0.00038461
-0.00134136
-0.000600511
-0.00164227
-0.000863041
-0.00188015
-0.00117185
-0.00203954
-0.00152643
-0.00210395
-0.00192674
-0.00205957
-0.00237372
-0.00189727
-0.00286809
-0.00160767
-0.0034104
-0.00117629
-0.00399955
-0.000596795
-0.00463882
0.000118416
0.000917873
-2.31216e-05
-0.000211478
-0.000101048
-0.000638524
-0.000232594
-0.00105459
-0.000415881
-0.00143041
-0.000649482
-0.00175638
-0.000934312
-0.00202004
-0.00127013
-0.00220498
-0.00165583
-0.0022927
-0.00209058
-0.00227033
-0.00257457
-0.00213082
-0.00310841
-0.00186645
-0.00369294
-0.00146423
-0.00432229
-0.000916581
-0.00500975
-0.000251921
0.000469196
-2.37892e-05
-0.000222793
-0.000106054
-0.000672447
-0.000249197
-0.00112583
-0.000448037
-0.00153623
-0.000699887
-0.0018815
-0.00100814
-0.00217411
-0.00137229
-0.00238752
-0.0017898
-0.0024991
-0.00225898
-0.00249872
-0.00277859
-0.00237822
-0.00334959
-0.00212952
-0.00396944
-0.00175957
-0.00463589
-0.00123744
-0.00537105
-0.00064814
-0.000234735
-2.46268e-05
-0.000235152
-0.000108698
-0.000722581
-0.000258785
-0.00129904
-0.000476832
-0.00168059
-0.000750058
-0.00202563
-0.00108346
-0.00234585
-0.0014782
-0.00259023
-0.00192912
-0.00272242
-0.00243254
-0.00274191
-0.0029835
-0.00260162
-0.00358999
-0.00216097
-0.00424016
-0.00174671
-0.00490572
-0.00146969
-0.00554943
-0.000706946
-0.000605807
-2.67537e-05
-0.000270725
-0.000116944
-0.000974165
-0.000269023
-0.00177976
-0.000496068
-0.00225592
-0.000789028
-0.00257419
-0.00115917
-0.00261267
-0.00158897
-0.00290124
-0.00207647
-0.00298531
-0.00262302
-0.00299994
-0.0031798
-0.00274528
-0.00370426
-0.00179988
-0.00435447
-0.00102197
-0.00497895
-0.00144477
-0.00506297
0.000766111
0.00138468
-2.87078e-05
-0.000407417
-0.000122229
-0.00139245
-0.000253026
-0.00235642
-0.000461009
-0.00308294
-0.00078428
-0.00344554
-0.00122673
-0.00339784
-0.00171215
-0.00354762
-0.00225213
-0.00346098
-0.00288314
-0.00322906
-0.0034788
-0.00271894
-0.00396259
-0.0013822
-0.00458719
4.17859e-05
-0.00515354
0.000395267
-0.00500322
0.00291938
0.00475434
-5.39253e-05
-0.000558322
-0.000166344
-0.00174184
-0.000288725
-0.0028395
-0.000492204
-0.00370591
-0.000855986
-0.0041909
-0.00143663
-0.0043202
-0.00208724
-0.00428497
-0.00275052
-0.00402968
-0.0034257
-0.00348714
-0.00407165
-0.00271685
-0.00467626
-0.00127167
-0.00526162
0.0005627
-0.00581115
0.00251091
-0.00602986
0.00429601
0.00711885
-5.36548e-05
-0.000635911
-0.000190549
-0.00196832
-0.000363216
-0.00320944
-0.000645546
-0.00415153
-0.00110589
-0.0047171
-0.00173912
-0.00487269
-0.00245089
-0.00482402
-0.00321212
-0.00450432
-0.00399479
-0.00384581
-0.00476582
-0.00293384
-0.00554934
-0.00143867
-0.00634746
0.000539736
-0.00696488
0.00290152
-0.00736193
0.00512465
0.00848754
-5.14651e-05
-0.000702163
-0.000220348
-0.00212028
-0.000480194
-0.00344203
-0.000871225
-0.00446045
-0.00142431
-0.0050925
-0.00211598
-0.00534283
-0.00289756
-0.0053078
-0.00375071
-0.00497843
-0.00464774
-0.00427138
-0.00554634
-0.00326933
-0.00648755
-0.00173553
-0.00747573
0.000344253
-0.00823312
0.00283429
-0.00887139
0.00551663
0.00916879
-5.87276e-05
-0.000765619
-0.000262743
-0.00227742
-0.000601004
-0.00369652
-0.00109729
-0.0047947
-0.00174653
-0.00551734
-0.00251891
-0.00583409
-0.00338405
-0.00582042
-0.00434246
-0.00547622
-0.00537151
-0.0047486
-0.00639839
-0.00367475
-0.00746824
-0.00209497
-0.00863933
8.05719e-05
-0.00955577
0.00271362
-0.0103678
0.00576079
0.00962394
-6.94474e-05
-0.000829473
-0.000314685
-0.0024565
-0.000729182
-0.00400851
-0.00132545
-0.00521565
-0.00208442
-0.00601872
-0.0029663
-0.00639351
-0.00392228
-0.00640983
-0.00497208
-0.00604243
-0.00613017
-0.00526534
-0.007292
-0.00411542
-0.00848867
-0.0024763
-0.009759
-0.000113193
-0.0108604
0.00270089
-0.0119187
0.00596525
0.00999605
-8.01489e-05
-0.000901579
-0.000365987
-0.00267737
-0.000859703
-0.00439836
-0.00157035
-0.00572942
-0.0024539
-0.00660875
-0.00345989
-0.00704329
-0.00453228
-0.00709507
-0.00569017
-0.00669306
-0.00696956
-0.00581246
-0.00826864
-0.00454948
-0.00962101
-0.00288801
-0.0111023
-0.00040005
-0.0123684
0.00261549
-0.0135575
0.00614405
0.0102813
-8.98916e-05
-0.000990477
-0.0004202
-0.00295923
-0.00100722
-0.00486347
-0.00184536
-0.00632443
-0.00286496
-0.00730393
-0.00401559
-0.00779138
-0.00523334
-0.00789838
-0.00652468
-0.00741327
-0.00793966
-0.00637366
-0.00935896
-0.00494415
-0.0108257
-0.00328423
-0.012459
-0.000711676
-0.0138754
0.00259787
-0.0151847
0.00642705
0.0106823
-9.89464e-05
-0.0011011
-0.000479718
-0.00330495
-0.00117741
-0.00540115
-0.0021615
-0.00701648
-0.00332812
-0.00811542
-0.0046316
-0.00865461
-0.00603613
-0.00883205
-0.00751672
-0.00820012
-0.00908953
-0.00694096
-0.0106053
-0.00527476
-0.0121411
-0.00357049
-0.0138366
-0.000731532
-0.015368
0.00310176
-0.0167906
0.00699078
0.0114919
-0.000110356
-0.00123735
-0.000549796
-0.00372046
-0.00137252
-0.00602833
-0.00252434
-0.00783252
-0.00385314
-0.00907123
-0.00530748
-0.00970511
-0.00693863
-0.00989397
-0.00868871
-0.00905962
-0.0104731
-0.00752552
-0.0120803
-0.00556477
-0.0136621
-0.00367844
-0.0154185
-0.000378123
-0.0169984
0.00418588
-0.0184209
0.00803472
0.0130901
-0.000124997
-0.00140106
-0.000632343
-0.00419945
-0.00160006
-0.00674804
-0.0029488
-0.00877688
-0.00446454
-0.0101876
-0.00609116
-0.0109723
-0.00798429
-0.0111097
-0.0100584
-0.0100338
-0.0121027
-0.00814322
-0.0138327
-0.00587905
-0.0154997
-0.00364224
-0.0173429
0.000346122
-0.0189023
0.00572218
-0.0201988
0.00975163
0.0158593
-0.000144462
-0.001596
-0.000727685
-0.00475338
-0.00185518
-0.00759619
-0.00342611
-0.00987505
-0.00515723
-0.0114757
-0.00699295
-0.0124536
-0.00920002
-0.0125188
-0.0116738
-0.011183
-0.0140278
-0.00882854
-0.0158968
-0.00620961
-0.0177092
-0.00355523
-0.019702
0.0014065
-0.0212321
0.0075805
-0.0223654
0.0122483
0.0198843
-0.000170155
-0.00181797
-0.000839755
-0.00539843
-0.00214952
-0.00859379
-0.00397911
-0.0111426
-0.0059616
-0.0129534
-0.00804767
-0.0141717
-0.0106155
-0.0141479
-0.0135442
-0.0125386
-0.0163018
-0.00965027
-0.018364
-0.00654166
-0.0203546
-0.00352526
-0.0226067
0.00243812
-0.0241829
0.00966465
-0.0251977
0.015503
0.0248159
-0.000206492
-0.00205717
-0.000985073
-0.00611084
-0.00249587
-0.00970701
-0.00461441
-0.0125537
-0.00689019
-0.0146435
-0.00927976
-0.0161567
-0.0122623
-0.0160302
-0.0156752
-0.0141314
-0.018924
-0.0107232
-0.0212548
-0.00676094
-0.0234308
-0.00359504
-0.026088
0.00323009
-0.0278183
0.0119308
-0.0286804
0.0197088
0.0306592
-0.000249017
-0.00231765
-0.00116036
-0.00686231
-0.00289108
-0.0109003
-0.00533321
-0.014099
-0.00795544
-0.0165765
-0.0107217
-0.0184114
-0.0142004
-0.0181714
-0.0181379
-0.0159769
-0.0220523
-0.0120648
-0.0247103
-0.00713085
-0.0269272
-0.00358443
-0.0299721
0.00423393
-0.03189
0.0147461
-0.0325117
0.0254824
0.0383031
-0.000288546
-0.00262187
-0.00133417
-0.00770773
-0.00330526
-0.0122311
-0.00610229
-0.0158456
-0.00915682
-0.0188
-0.012409
-0.0209524
-0.016443
-0.0206034
-0.0209526
-0.0180871
-0.0254478
-0.0135747
-0.0285758
-0.00774588
-0.031149
-0.00336691
-0.034615
0.00551966
-0.0366536
0.0182401
-0.0368905
0.0331436
0.0484779
-0.000316868
-0.00300835
-0.00147601
-0.00882241
-0.00371718
-0.0139272
-0.00691751
-0.017917
-0.0105188
-0.021327
-0.0144101
-0.0238242
-0.0190893
-0.023375
-0.0242914
-0.0204989
-0.0294967
-0.0152847
-0.0332555
-0.00847828
-0.0362641
-0.00285191
-0.0402236
0.00682487
-0.0423607
0.0224334
-0.0420644
0.042883
0.0622027
-0.000338658
-0.00350238
-0.00160343
-0.0103588
-0.00416621
-0.0162706
-0.00784263
-0.0203596
-0.012065
-0.0242062
-0.0167218
-0.0270652
-0.0222083
-0.0265528
-0.0282385
-0.0233292
-0.0342251
-0.0173085
-0.0388166
-0.00942569
-0.0423615
-0.00188778
-0.0466
0.008837
-0.0489701
0.0288709
-0.0482741
0.0552886
0.0812936
-0.000373125
-0.00407007
-0.00179336
-0.0121606
-0.00475515
-0.018924
-0.0089529
-0.0232717
-0.0138306
-0.0276136
-0.019342
-0.0307365
-0.0258446
-0.0302615
-0.0330104
-0.0268082
-0.0399801
-0.0199208
-0.0455285
-0.0106477
-0.0497859
-0.000637273
-0.0542604
0.0130592
-0.0573247
0.0384441
-0.0571027
0.0698989
0.105375
-0.000482218
-0.0046513
-0.00228077
-0.013805
-0.00570848
-0.0213578
-0.0103536
-0.0267945
-0.0158826
-0.0316004
-0.0222957
-0.0348573
-0.0299102
-0.0345886
-0.0384092
-0.0311467
-0.0467048
-0.0234153
-0.0536159
-0.0124421
-0.0593774
0.00034038
-0.0650606
0.0187264
-0.0693003
0.049074
-0.0704085
0.0850247
0.131386
-0.000623168
-0.00524699
-0.00285363
-0.0153253
-0.00680669
-0.0237957
-0.0120249
-0.030838
-0.0182476
-0.0360778
-0.0255793
-0.039432
-0.0343904
-0.0397636
-0.0444806
-0.0366006
-0.0545413
-0.0280198
-0.0634471
-0.0151628
-0.0714531
0.000378456
-0.0793017
0.0230643
-0.0854311
0.0581172
-0.0887383
0.0989947
0.156224
-0.000712124
-0.0058985
-0.00328395
-0.0172119
-0.00790292
-0.0269072
-0.0139079
-0.0352601
-0.0210145
-0.0410021
-0.0292511
-0.0446841
-0.0393182
-0.0466085
-0.0512728
-0.0432989
-0.0636256
-0.0339936
-0.0751362
-0.0194617
-0.0857661
-0.00134141
-0.0964256
0.0246711
-0.105409
0.0642836
-0.11194
0.110383
0.177597
-0.0008136
-0.00661116
-0.00373792
-0.0194729
-0.00907748
-0.0305638
-0.0161232
-0.039852
-0.0242313
-0.0463848
-0.033464
-0.051037
-0.0449083
-0.0551247
-0.0587052
-0.0512199
-0.0735596
-0.0415688
-0.0881783
-0.0259011
-0.102032
-0.00580041
-0.116093
0.0229911
-0.128806
0.0667644
-0.139576
0.118001
0.193895
-0.000974428
-0.00736697
-0.00436025
-0.021826
-0.0103687
-0.0342991
-0.0185488
-0.0445922
-0.0278238
-0.0523437
-0.0380573
-0.0589725
-0.0509936
-0.0647131
-0.0668777
-0.06045
-0.0844016
-0.0511483
-0.102255
-0.0347074
-0.11969
-0.0137831
-0.1378
0.0175845
-0.155094
0.0648912
-0.171063
0.120896
0.203997
-0.00115511
-0.00815301
-0.00507179
-0.0241675
-0.0117853
-0.0381035
-0.0210405
-0.0498328
-0.031584
-0.0595877
-0.0429956
-0.0694094
-0.0574859
-0.0756274
-0.0757551
-0.0712032
-0.0963421
-0.0635718
-0.117596
-0.0468111
-0.138778
-0.025848
-0.161351
0.00829437
-0.18386
0.0581643
-0.205873
0.118274
0.206906
-0.00133646
-0.00896775
-0.00579403
-0.0264658
-0.0132538
-0.04202
-0.0235766
-0.0557867
-0.0355394
-0.0698389
-0.0486398
-0.0826535
-0.0647226
-0.0891233
-0.0852926
-0.0842271
-0.109666
-0.0795699
-0.134891
-0.0637377
-0.160008
-0.0425272
-0.187177
-0.00545923
-0.215001
0.0452516
-0.243484
0.109448
0.20206
-0.00145593
-0.00990283
-0.0063777
-0.0290311
-0.0146621
-0.0465583
-0.0259838
-0.0634398
-0.0395077
-0.0832344
-0.0549911
-0.0985927
-0.0728132
-0.106445
-0.0951097
-0.102141
-0.123218
-0.0987897
-0.152916
-0.0855713
-0.18296
-0.0646394
-0.21516
-0.0253101
-0.248012
0.0235376
-0.283122
0.0940726
0.190838
-0.00148428
-0.011132
-0.00671975
-0.0324756
-0.015871
-0.0524053
-0.0281491
-0.0739925
-0.043355
-0.0981843
-0.0615839
-0.117017
-0.0816328
-0.127909
-0.105451
-0.124751
-0.136198
-0.119232
-0.170689
-0.110986
-0.20705
-0.0944834
-0.244671
-0.0558384
-0.282465
-0.00966214
-0.324539
0.0723718
0.175316
-0.00145941
-0.012718
-0.00683772
-0.0371982
-0.0166542
-0.0604583
-0.0297947
-0.0869539
-0.0466267
-0.114015
-0.0675795
-0.137472
-0.0899133
-0.153558
-0.115234
-0.15646
-0.148266
-0.139565
-0.187475
-0.139555
-0.231381
-0.136008
-0.274933
-0.105906
-0.318751
-0.051633
-0.369126
0.0457091
0.157646
-0.00147472
-0.0145639
-0.00691383
-0.0429897
-0.0170793
-0.070637
-0.0309996
-0.100577
-0.0491344
-0.130654
-0.0721067
-0.159499
-0.0980177
-0.1818
-0.125465
-0.193951
-0.15813
-0.182338
-0.200281
-0.171415
-0.249824
-0.176111
-0.303998
-0.164576
-0.360046
-0.103671
-0.418117
0.0147703
0.140048
-0.00151361
-0.0165449
-0.00705522
-0.0492351
-0.0174611
-0.0812694
-0.0318235
-0.114006
-0.0506649
-0.147695
-0.0747186
-0.182069
-0.102087
-0.211082
-0.131215
-0.235307
-0.16504
-0.237927
-0.207861
-0.227111
-0.25817
-0.208261
-0.326094
-0.230097
-0.404261
-0.197878
-0.473854
-0.0214891
0.0856163
-0.00158993
-0.0184567
-0.00732483
-0.0552384
-0.017893
-0.0915389
-0.0322831
-0.127487
-0.0511298
-0.164522
-0.0754154
-0.203709
-0.102019
-0.238747
-0.130916
-0.275963
-0.166435
-0.289631
-0.212347
-0.294484
-0.272192
-0.283121
-0.351254
-0.324455
-0.448581
-0.346331
-0.593462
-0.252864
-0.293148
-0.00169878
-0.020191
-0.00769167
-0.0607206
-0.0183559
-0.100816
-0.0325413
-0.140187
-0.0508378
-0.180916
-0.074078
-0.22332
-0.0987775
-0.261887
-0.125336
-0.304606
-0.158409
-0.336775
-0.199372
-0.345861
-0.257086
-0.365269
-0.338106
-0.413434
-0.44602
-0.482148
-0.627187
-0.570261
-0.811242
-0.00173536
-0.0218594
-0.00788642
-0.0659031
-0.0188353
-0.109173
-0.0328874
-0.151938
-0.0506864
-0.197385
-0.0731714
-0.242426
-0.0957641
-0.282404
-0.116181
-0.325668
-0.140905
-0.362803
-0.179609
-0.378177
-0.229432
-0.400552
-0.285904
-0.451553
-0.354506
-0.529519
-0.440026
-0.662248
-0.931723
-0.00182365
-0.0235136
-0.00825488
-0.0710727
-0.0193314
-0.118278
-0.0332007
-0.164623
-0.0509392
-0.215528
-0.0730025
-0.264139
-0.0941603
-0.30587
-0.115614
-0.34611
-0.140596
-0.379558
-0.173768
-0.395112
-0.213463
-0.415872
-0.248816
-0.451101
-0.27381
-0.499378
-0.27511
-0.580267
-0.710973
-0.00187172
-0.0251609
-0.00858453
-0.0763104
-0.0201823
-0.127758
-0.0340995
-0.178433
-0.0520402
-0.235583
-0.0751353
-0.287753
-0.0963727
-0.3337
-0.118082
-0.370881
-0.147042
-0.399027
-0.180339
-0.407896
-0.213069
-0.420819
-0.239675
-0.435244
-0.250327
-0.446778
-0.226595
-0.447062
-0.427194
-0.00192029
-0.0268001
-0.00886029
-0.0812359
-0.0208728
-0.136036
-0.035205
-0.191839
-0.0538145
-0.255692
-0.0784403
-0.309858
-0.10126
-0.358574
-0.125771
-0.396976
-0.157907
-0.419375
-0.193373
-0.423351
-0.228103
-0.424863
-0.256492
-0.421281
-0.273655
-0.406877
-0.267043
-0.350877
-0.244917
-0.0019466
-0.0285193
-0.00889242
-0.0860914
-0.0211079
-0.143424
-0.0364556
-0.206863
-0.0563879
-0.275009
-0.0828585
-0.330269
-0.109584
-0.37884
-0.139293
-0.419021
-0.176355
-0.439387
-0.217888
-0.444436
-0.259084
-0.439269
-0.294893
-0.425414
-0.327432
-0.395583
-0.354357
-0.321081
-0.199944
-0.00186446
-0.0305268
-0.00859495
-0.0921571
-0.0211054
-0.153333
-0.0381946
-0.223786
-0.0604726
-0.293559
-0.0888732
-0.349563
-0.119686
-0.399507
-0.154534
-0.438711
-0.19562
-0.460547
-0.241291
-0.466968
-0.289545
-0.463117
-0.335772
-0.444268
-0.382289
-0.404845
-0.432794
-0.331453
-0.22806
-0.00186226
-0.0327047
-0.00874368
-0.0988123
-0.0221267
-0.165192
-0.0411676
-0.24023
-0.0655489
-0.309591
-0.0957284
-0.367914
-0.130191
-0.421072
-0.169725
-0.45997
-0.21506
-0.484713
-0.265289
-0.491889
-0.319478
-0.488338
-0.374068
-0.466956
-0.429802
-0.420588
-0.486336
-0.339408
-0.234618
-0.00201864
-0.0347053
-0.0092137
-0.104707
-0.0230277
-0.17583
-0.0436472
-0.253756
-0.0700747
-0.324077
-0.102647
-0.386874
-0.14061
-0.444831
-0.184859
-0.485709
-0.235186
-0.513325
-0.290521
-0.519788
-0.351075
-0.515823
-0.41415
-0.487477
-0.476576
-0.434107
-0.527629
-0.3132
-0.266987
-0.00216673
-0.0365108
-0.00962429
-0.110338
-0.0236984
-0.185915
-0.0454835
-0.265398
-0.0740243
-0.34027
-0.108956
-0.407066
-0.15016
-0.468867
-0.199629
-0.51745
-0.256275
-0.551528
-0.317168
-0.550288
-0.388343
-0.558509
-0.466765
-0.529172
-0.541845
-0.45541
-0.677462
-0.545047
-0.886227
-0.00229252
-0.0382643
-0.0101569
-0.115952
-0.0247047
-0.195804
-0.0475218
-0.278145
-0.0778995
-0.358001
-0.114726
-0.428588
-0.157892
-0.491577
-0.211798
-0.549493
-0.276908
-0.604267
-0.357404
-0.64771
-0.458131
-0.677483
-0.558023
-0.689951
-0.566581
-0.785909
-0.688405
-0.982677
-1.99949
-0.0023605
-0.039955
-0.0105338
-0.121342
-0.0254908
-0.205516
-0.0490064
-0.291832
-0.08105
-0.37779
-0.120193
-0.45315
-0.164361
-0.52125
-0.21734
-0.583473
-0.287823
-0.664583
-0.380508
-0.787986
-0.501063
-0.864301
-0.692364
-1.0729
-0.470909
-1.41053
-0.175704
-1.11241
-2.52638
-0.0023336
-0.041564
-0.0106457
-0.126544
-0.025953
-0.215183
-0.0498771
-0.306904
-0.0835855
-0.401334
-0.124992
-0.482018
-0.166412
-0.559645
-0.206204
-0.631369
-0.263681
-0.718932
-0.310215
-0.850658
-0.32759
-0.923066
-0.241563
-1.18843
0.20107
-1.81087
0.70133
-0.605581
-1.62821
-0.00226206
-0.0429649
-0.0104833
-0.13138
-0.0259874
-0.2247
-0.0505603
-0.32319
-0.0860802
-0.428447
-0.130004
-0.514832
-0.167384
-0.604506
-0.186866
-0.706055
-0.218469
-0.749766
-0.176724
-0.601665
0.0113519
-0.591606
0.311399
-0.559235
0.786007
-0.869886
1.50205
0.731586
1.06549
-0.00218825
-0.0436643
-0.0101977
-0.135049
-0.025797
-0.233453
-0.0515215
-0.339295
-0.0894308
-0.456203
-0.136441
-0.550632
-0.17449
-0.658829
-0.194892
-0.824213
-0.137783
-0.80012
-0.0183981
-0.299524
0.197733
0.12524
0.674946
0.464844
1.02975
1.30412
1.60422
2.3678
4.42948
-0.00203283
-0.0429781
-0.00959872
-0.135277
-0.0250606
-0.239934
-0.0526296
-0.352829
-0.093274
-0.479312
-0.144042
-0.587608
-0.202451
-0.724193
-0.282895
-0.983867
-0.323959
-0.994187
-0.332672
-0.28904
-0.201452
0.619945
0.181714
1.53956
0.261558
3.07678
0.369375
3.17304
5.97473
-0.00144541
-0.0405266
-0.00779543
-0.129705
-0.0228495
-0.241327
-0.0523376
-0.360809
-0.0946618
-0.493099
-0.148548
-0.6237
-0.254343
-0.798194
-0.456029
-1.11608
-0.662742
-1.15583
-0.81831
-0.366674
-0.974469
0.584835
-0.97855
1.91562
-1.02922
3.22927
-1.3377
2.78958
4.95431
3.59089e-05
-0.0363444
-0.00331425
-0.118154
-0.0173399
-0.232639
-0.0474045
-0.361496
-0.088797
-0.495367
-0.142144
-0.656841
-0.287319
-0.878583
-0.588413
-1.22527
-0.970322
-1.26367
-1.31384
-0.7496
-1.61743
0.388769
-1.87663
1.55001
-2.00095
1.9781
-2.46234
1.70867
2.62696
0.00273249
-0.030441
0.00578973
-0.101219
-0.00473052
-0.208625
-0.0336867
-0.356463
-0.0707847
-0.489875
-0.117816
-0.684403
-0.282439
-0.962398
-0.672036
-1.38019
-1.08619
-1.46694
-1.56496
-1.39946
-2.06027
0.104564
-2.12273
0.836604
-2.18996
0.69409
-2.88959
0.342323
-0.0724663
0.00652014
-0.0226031
0.0221569
-0.0785899
0.0227591
-0.171764
-0.00423618
-0.34404
-0.0345146
-0.48577
-0.0643737
-0.703791
-0.233886
-1.05098
-0.702841
-1.57838
-1.17649
-1.71361
-1.77096
-1.94947
-2.05225
-0.42105
-1.70938
-0.0621591
-1.87477
-0.267362
-2.6616
-1.03244
-2.68653
0.0113064
-0.0125981
0.0454259
-0.0492165
0.0707739
-0.127853
0.0566227
-0.298401
0.0292693
-0.469453
0.00997285
-0.719815
-0.166124
-1.13655
-0.646825
-1.79897
-1.07584
-1.99185
-1.14385
-1.69038
-0.929227
-0.609792
-0.824444
-0.563426
-1.17148
-1.01332
-1.86145
-2.20776
-4.93535
0.0164612
-0.000206845
0.0684748
-0.0127376
0.142544
-0.0750244
0.189669
-0.219454
0.165558
-0.407899
0.140048
-0.698368
-0.041914
-1.14178
-0.504973
-1.84373
-0.482777
-1.8109
0.00701743
-0.640794
0.206624
-0.215635
0.174462
-0.575392
-0.131339
-1.41783
-0.625473
-3.09051
-6.8801
0.0223985
0.0153553
0.0941645
0.0337594
0.204284
0.000768537
0.309039
-0.110907
0.382011
-0.282668
0.452611
-0.581785
0.387049
-0.996108
0.424966
-1.39861
0.753393
-0.572045
1.02707
0.398297
1.22789
0.450813
1.32275
-0.136872
1.22296
-1.34751
1.06053
-3.53759
-8.44066
0.0287704
0.0345215
0.122567
0.0926066
0.271946
0.105804
0.432832
0.047332
0.585932
-0.0908519
0.745499
-0.363521
0.858146
-0.597017
1.07783
-0.0887477
1.43612
0.926638
1.78981
1.42961
2.18403
1.43094
2.58515
0.82438
2.9297
-0.500635
3.43866
-2.98767
-8.37069
0.0344532
0.0566058
0.147818
0.161768
0.333621
0.232447
0.549295
0.255258
0.769411
0.165856
0.999204
0.00948309
1.17526
0.477702
1.41221
1.41662
1.81042
2.0649
2.33131
2.55016
3.00289
2.69889
3.84437
2.37312
4.89797
1.45012
6.52645
-0.49932
-4.7488
0.0386389
0.0808243
0.166141
0.239577
0.378779
0.378479
0.643262
0.499536
0.920492
0.53853
1.08549
0.914201
1.1973
1.7601
1.51062
2.47765
1.97473
3.14835
2.63271
3.73477
3.54322
4.18779
4.79531
4.40497
6.54689
4.30459
9.19777
3.97278
2.19797
0.0404636
0.106123
0.174419
0.32413
0.399109
0.552345
0.692999
0.799545
0.871191
1.15849
0.918233
1.90542
1.09821
2.59163
1.43898
3.33045
1.94402
4.11292
2.66662
4.91578
3.68746
5.79065
5.11849
6.70655
7.17616
7.5501
10.1348
8.75323
9.84384
0.0380142
0.129791
0.164687
0.404318
0.375242
0.727407
0.552409
1.13159
0.620006
1.73225
0.72374
2.40133
0.914065
3.11795
1.23537
3.93115
1.71339
4.87468
2.4033
5.96799
3.39009
7.32581
4.78529
9.01141
6.78317
10.9698
9.62364
13.1348
16.5518
0.0306374
0.148697
0.12933
0.465661
0.27589
0.849902
0.386732
1.35184
0.429539
1.96199
0.514423
2.61921
0.677758
3.37062
0.934015
4.26133
1.30981
5.34209
1.85358
6.67863
2.63407
8.41524
3.76146
10.7381
5.49269
13.7533
8.22511
17.3763
22.8693
0.0225675
0.163065
0.0928392
0.509167
0.185734
0.92042
0.249423
1.43539
0.285237
2.02675
0.355271
2.68702
0.468954
3.4594
0.636348
4.39247
0.874968
5.54375
1.21672
7.00197
1.68714
8.91923
2.32849
11.5517
3.27846
15.0998
5.00583
19.8801
26.6976
0.0150386
0.173452
0.059705
0.539174
0.113025
0.962347
0.149423
1.46915
0.173369
2.04951
0.211467
2.7109
0.271178
3.4928
0.355395
4.44029
0.468289
5.61299
0.617592
7.10678
0.796923
9.07704
0.996138
11.7733
1.27041
15.4264
1.72676
20.3994
27.5625
0.00873171
0.179876
0.0335221
0.556926
0.0595626
0.984176
0.0715856
1.48234
0.0713692
2.05317
0.0715581
2.71136
0.0755147
3.49245
0.079493
4.43824
0.0741587
5.60622
0.0434186
7.09223
-0.0535737
9.04972
-0.270406
11.7124
-0.629251
15.3125
-0.911121
20.1878
27.7664
0.00342332
0.183624
0.0118332
0.566529
0.0152311
0.99348
0.00300685
1.48284
-0.0256257
2.04249
-0.0652294
2.69125
-0.116766
3.46209
-0.191425
4.39271
-0.313799
5.5346
-0.524077
6.97796
-0.908019
8.86795
-1.61052
11.4049
-2.76481
14.7734
-3.85562
19.3338
27.4185
-0.00116233
0.185385
-0.00701286
0.570202
-0.0241774
0.993767
-0.0606819
1.47283
-0.119148
2.01846
-0.198989
2.65126
-0.304959
3.40248
-0.456605
4.30479
-0.696893
5.39928
-1.09274
6.76339
-1.77344
8.52697
-2.97859
10.8277
-5.03019
13.7131
-7.12052
17.4896
24.5521
-0.00521821
0.185424
-0.0239002
0.568777
-0.0603309
0.986027
-0.121155
1.45263
-0.210286
1.98071
-0.330163
2.59078
-0.488497
3.3123
-0.713639
4.17289
-1.06937
5.20085
-1.64687
6.44957
-2.60354
8.02401
-4.27614
9.97819
-7.31754
12.1272
-11.5311
14.6818
19.3299
-0.0788662
0.163288
-0.341976
0.498464
-0.79017
0.838122
-1.4494
1.18647
-2.34409
1.54659
-3.50995
1.92877
-5.02179
2.35314
-7.14507
2.8449
-10.5492
3.43866
-16.0651
4.21181
-24.5274
4.76252
-38.4013
4.92943
-58.3423
4.1154
-80.7467
1.65316
-2.1421
-118.92
-0.131233
0.113618
-0.579349
0.345138
-1.32777
0.56335
-2.36366
0.762643
-3.66832
0.936711
-5.20961
1.08499
-6.9219
1.21566
-8.71466
1.35246
-11.5472
1.55895
-17.6886
1.97516
-27.217
2.22249
-40.3228
2.28785
-55.3551
-0.23815
-66.8096
-4.66494
-11.6077
-71.8315
-0.112933
0.0612838
-0.482658
0.182135
-1.09087
0.289585
-1.94261
0.375661
-3.0395
0.433114
-4.39324
0.456754
-6.03501
0.442868
-8.04196
0.393632
-10.6438
0.332423
-14.5386
0.305849
-21.5769
0.337382
-34.9892
0.424283
-50.3915
-1.83818
-59.7497
-6.22266
-12.9606
-61.3071
-0.0833038
0.0221697
-0.355513
0.0628986
-0.803838
0.0905756
-1.43615
0.0964686
-2.25892
0.0719585
-3.28699
0.00873071
-4.54927
-0.102481
-6.11055
-0.272471
-8.14613
-0.514847
-11.0626
-0.851884
-15.4661
-1.3427
-22.6096
-2.13758
-37.1148
-3.55397
-47.5127
-7.34156
-12.3083
-42.6155
-0.0546278
-0.00437866
-0.232452
-0.0170577
-0.523578
-0.0425909
-0.9311
-0.0898349
-1.45679
-0.168195
-2.10587
-0.287713
-2.88964
-0.460799
-3.83072
-0.703449
-4.97751
-1.03948
-6.44095
-1.51613
-8.44152
-2.25117
-11.3243
-3.51444
-15.1444
-5.45717
-17.4374
-8.36262
-11.7507
-15.926
-0.0241946
-0.0188272
-0.102906
-0.0604754
-0.23104
-0.114476
-0.40829
-0.189435
-0.632388
-0.294799
-0.900003
-0.440866
-1.20708
-0.640433
-1.54725
-0.909402
-1.90477
-1.27384
-2.23072
-1.78628
-2.40588
-2.58474
-2.46614
-4.07734
-2.50736
-6.30781
-2.25046
-8.72137
-11.3107
-1.46465
0.00463176
-0.0199165
0.0207259
-0.062542
0.0522831
-0.112928
0.109463
-0.176655
0.20884
-0.260595
0.375256
-0.373892
0.632449
-0.530261
1.00449
-0.739579
1.5424
-1.01305
2.36566
-1.38458
3.77558
-1.98097
5.70948
-3.41219
7.28564
-5.5672
8.06062
-7.83516
-10.1583
8.08166
0.0224187
-0.0120314
0.0977554
-0.0368428
0.230181
-0.0625989
0.436944
-0.0897086
0.743536
-0.11911
1.18966
-0.153329
1.81613
-0.198012
2.65374
-0.253553
3.75687
-0.318451
5.24181
-0.431731
7.17323
-0.785489
9.13313
-1.90375
9.91238
-3.4697
8.82976
-4.97462
-6.46689
5.45831
0.0173072
-0.00314969
0.0753367
-0.00885152
0.174321
-0.011611
0.322112
-0.00882281
0.529449
0.00254808
0.815359
0.0265664
1.21034
0.0688052
1.76105
0.136914
2.54316
0.241011
3.28628
0.391197
2.86745
0.434515
0.626129
0.205814
-2.84468
-0.208818
-6.92218
-0.417582
-0.518114
-13.3486
0.00596392
0.000943995
0.0256914
0.00370712
0.0567813
0.00959307
0.0995157
0.0211084
0.152394
0.0414238
0.214969
0.0744745
0.287197
0.125274
0.364236
0.200945
0.246753
0.316332
-0.37162
0.531328
-1.93537
1.02117
-3.96511
1.54192
-6.30121
1.97898
-9.03726
2.47828
3.16995
-12.9405
-0.00504924
-0.000451966
-0.0210683
-0.000986931
-0.0485148
-0.000258086
-0.0904115
0.00268667
-0.152556
0.0102572
-0.241452
0.0233323
-0.36442
0.0426611
-0.527497
0.0701462
-0.726418
0.113329
-0.791004
0.203929
-0.728354
0.556812
-0.827143
0.971511
-1.05843
1.3658
-1.37268
1.78516
2.32998
-1.55444
-0.0080835
-0.00298797
-0.0331718
-0.00903589
-0.0752972
-0.0152661
-0.144498
-0.0214579
-0.249484
-0.027368
-0.383443
-0.0343222
-0.544505
-0.043015
-0.698967
-0.05302
-0.657704
-0.0613074
-0.328513
-0.0492871
0.193484
0.00205088
0.757847
0.0917616
1.4522
0.188293
2.43548
0.281813
0.386115
4.18369
-0.0043317
-0.00438402
-0.018088
-0.0132952
-0.0391846
-0.0226507
-0.0666854
-0.0323411
-0.101632
-0.0433055
-0.140224
-0.0564262
-0.172841
-0.0718363
-0.17748
-0.0888201
-0.11895
-0.106384
0.0401439
-0.121516
0.342205
-0.131715
0.826381
-0.14187
1.61653
-0.165054
2.79205
-0.214792
-0.297894
4.54149
-0.00118725
-0.00467813
-0.00495508
-0.0140672
-0.0108103
-0.0236958
-0.0182376
-0.0337183
-0.0263176
-0.0443077
-0.0334796
-0.055644
-0.037723
-0.0677377
-0.0362168
-0.0803551
-0.0239172
-0.0930397
0.00854951
-0.105464
0.0862331
-0.118507
0.238871
-0.136263
0.516278
-0.165891
0.919013
-0.216917
-0.299045
1.48536
-0.000422795
-0.00488332
-0.00176737
-0.0146354
-0.00383737
-0.0244504
-0.00644128
-0.0343995
-0.00927383
-0.0445419
-0.0119243
-0.054909
-0.0139947
-0.0654848
-0.0151898
-0.0762112
-0.0154155
-0.0870281
-0.0149174
-0.0978928
-0.0138161
-0.108815
-0.0121699
-0.120178
-0.00754496
-0.133633
-0.000582515
-0.154161
-0.190412
0.0210788
-0.000238519
-0.00493167
-0.000993362
-0.0147774
-0.00216646
-0.0246371
-0.00371556
-0.0345321
-0.00558608
-0.0444777
-0.00768397
-0.0544777
-0.00992156
-0.0645275
-0.0123626
-0.0745979
-0.0154022
-0.0846883
-0.0196803
-0.0948754
-0.0256764
-0.105343
-0.0342807
-0.11635
-0.0474538
-0.128468
-0.0669911
-0.142945
-0.16156
-0.0859337
-0.000221513
-0.00488914