/*--------------------------------*- C++ -*----------------------------------*\
  =========                 |
  \\      /  F ield         | OpenFOAM: The Open Source CFD Toolbox
   \\    /   O peration     | Website:  https://openfoam.org
    \\  /    A nd           | Version:  7
     \\/     M anipulation  |
\*---------------------------------------------------------------------------*/
FoamFile
{
    version     2.0;
    format      ascii;
    class       volVectorField;
    location    "300";
    object      U;
}
// * * * * * * * * * * * * * * * * * * * * * * * * * * * * * * * * * * * * * //

dimensions      [0 1 -1 0 0 0 0];

internalField   nonuniform List<vector> 
32100
(
(-49.9598 -8.70885e-10 -1469.51)
(-127.967 -2.47915e-09 -1455.44)
(-205.732 -4.10795e-09 -1416.29)
(-285.925 -5.74034e-09 -1346.95)
(-357.964 -7.37423e-09 -1252.63)
(-423.639 -9.00848e-09 -1133.18)
(-480.678 -1.06432e-08 -988.503)
(-526.062 -1.22778e-08 -819.222)
(-557.724 -1.39125e-08 -625.049)
(-572.621 -1.5547e-08 -402.409)
(-564.064 -1.71815e-08 -143.395)
(-516.405 -1.88158e-08 162.231)
(-390.719 -2.04499e-08 527.11)
(-85.8556 -2.20836e-08 938.135)
(607.902 -2.37173e-08 1400.88)
(-49.8939 -8.71646e-10 -1253.81)
(-133.868 -2.47915e-09 -1243.8)
(-216.918 -4.10779e-09 -1207.71)
(-299.611 -5.74015e-09 -1150.92)
(-376.79 -7.37414e-09 -1072.81)
(-448.293 -9.00852e-09 -973.565)
(-512.45 -1.06431e-08 -853.332)
(-567.153 -1.22776e-08 -712.129)
(-610.834 -1.39123e-08 -548.763)
(-641.398 -1.55469e-08 -360.796)
(-654.852 -1.71814e-08 -143.409)
(-644.634 -1.88157e-08 110.254)
(-601.834 -2.04498e-08 414.931)
(-533.997 -2.20836e-08 827.868)
(-654.479 -2.37173e-08 1404.3)
(-52.3779 -8.71154e-10 -1276.63)
(-142.531 -2.47873e-09 -1266.01)
(-231.474 -4.10745e-09 -1231.07)
(-319.073 -5.74003e-09 -1174.81)
(-402.825 -7.37399e-09 -1097.5)
(-481.837 -9.00837e-09 -999.283)
(-554.982 -1.06429e-08 -880.157)
(-620.987 -1.22774e-08 -739.863)
(-678.764 -1.39121e-08 -577.337)
(-727.346 -1.55467e-08 -390.533)
(-766.129 -1.71812e-08 -176.1)
(-794.74 -1.88155e-08 71.9553)
(-819.937 -2.04497e-08 365.788)
(-869.04 -2.20835e-08 729.877)
(-988.97 -2.37173e-08 1156.95)
(-56.2881 -8.71042e-10 -1300.11)
(-153.162 -2.47852e-09 -1289.35)
(-249.12 -4.10715e-09 -1255.09)
(-344.102 -5.73986e-09 -1200.66)
(-435.875 -7.37378e-09 -1124.85)
(-523.924 -9.0081e-09 -1028.22)
(-607.466 -1.06426e-08 -910.836)
(-685.797 -1.2277e-08 -772.35)
(-758.451 -1.39116e-08 -611.89)
(-825.536 -1.55463e-08 -428.065)
(-887.564 -1.71809e-08 -218.149)
(-949.38 -1.88152e-08 21.2718)
(-1018.91 -2.04494e-08 297.271)
(-1116.26 -2.20832e-08 614.774)
(-1246.32 -2.37166e-08 940.085)
(-60.8173 -8.70474e-10 -1338.47)
(-165.824 -2.47796e-09 -1328.45)
(-269.731 -4.10666e-09 -1295.41)
(-373.09 -5.73926e-09 -1241.82)
(-474.287 -7.37339e-09 -1166.82)
(-572.509 -9.00774e-09 -1071.15)
(-667.341 -1.06421e-08 -954.801)
(-758.493 -1.22766e-08 -817.446)
(-845.953 -1.39111e-08 -658.413)
(-930.188 -1.55458e-08 -476.544)
(-1013.56 -1.71804e-08 -271.253)
(-1100.51 -1.88148e-08 -40.406)
(-1196.38 -2.0449e-08 218.995)
(-1313.51 -2.20828e-08 500.36)
(-1446.25 -2.37162e-08 769.545)
(-65.875 -8.69935e-10 -1389.37)
(-179.492 -2.47733e-09 -1379.67)
(-292.138 -4.10616e-09 -1345.82)
(-405.557 -5.73885e-09 -1295.48)
(-516.954 -7.37295e-09 -1221.36)
(-626.172 -9.00728e-09 -1126.25)
(-732.874 -1.06417e-08 -1010.49)
(-837.044 -1.2276e-08 -873.786)
(-938.983 -1.39105e-08 -715.761)
(-1039.33 -1.55452e-08 -536.12)
(-1140.99 -1.71799e-08 -335.147)
(-1245.98 -1.88144e-08 -111.514)
(-1358.4 -2.04486e-08 134.064)
(-1484.52 -2.20824e-08 391.164)
(-1618.35 -2.37158e-08 631.863)
(-71.524 -8.70423e-10 -1452.54)
(-195.024 -2.47805e-09 -1445.07)
(-316.962 -4.10569e-09 -1414.51)
(-440.091 -5.73793e-09 -1362.72)
(-562.991 -7.37244e-09 -1287.86)
(-683.79 -9.00678e-09 -1192.93)
(-802.717 -1.0641e-08 -1077.43)
(-919.893 -1.22753e-08 -941.088)
(-1035.64 -1.39097e-08 -783.676)
(-1151.19 -1.55444e-08 -606.03)
(-1267.81 -1.71792e-08 -408.588)
(-1387.15 -1.88138e-08 -190.836)
(-1511.2 -2.04481e-08 44.7986)
(-1642.96 -2.2082e-08 287.577)
(-1778.38 -2.37154e-08 516.107)
(-76.9035 -8.68105e-10 -1525.5)
(-209.961 -2.47287e-09 -1518.77)
(-343.605 -4.10394e-09 -1492.46)
(-478.163 -5.73787e-09 -1439.92)
(-612.056 -7.37204e-09 -1365.7)
(-744.75 -9.00627e-09 -1270.8)
(-876.142 -1.06403e-08 -1155.32)
(-1006.28 -1.22745e-08 -1018.94)
(-1135.37 -1.39088e-08 -861.933)
(-1264.61 -1.55435e-08 -685.812)
(-1394.71 -1.71783e-08 -491.146)
(-1526.31 -1.88131e-08 -277.826)
(-1659.98 -2.04475e-08 -48.4416)
(-1797.27 -2.20817e-08 187.933)
(-1936.67 -2.37153e-08 413.367)
(-82.4609 -8.70636e-10 -1609.71)
(-223.789 -2.47122e-09 -1607.91)
(-369.657 -4.10193e-09 -1582.89)
(-517.261 -5.73695e-09 -1530.03)
(-663.501 -7.37179e-09 -1454.64)
(-808.491 -9.00574e-09 -1359.56)
(-952.613 -1.06395e-08 -1243.96)
(-1095.77 -1.22734e-08 -1107.25)
(-1237.95 -1.39078e-08 -950.125)
(-1379.78 -1.55424e-08 -774.673)
(-1522.19 -1.71773e-08 -582.019)
(-1664.97 -1.88123e-08 -371.387)
(-1808.65 -2.0447e-08 -145.857)
(-1951.34 -2.20812e-08 87.9284)
(-2097.91 -2.37144e-08 313.499)
(-85.0346 -8.52228e-10 -1698.4)
(-234.861 -2.4526e-09 -1704.44)
(-397.053 -4.10049e-09 -1684.55)
(-559.388 -5.73804e-09 -1629.99)
(-717.37 -7.37188e-09 -1554.51)
(-874.678 -9.00526e-09 -1459.09)
(-1031.89 -1.06388e-08 -1343.24)
(-1188.3 -1.22724e-08 -1205.8)
(-1343.26 -1.39065e-08 -1047.75)
(-1497.06 -1.5541e-08 -872.034)
(-1650.43 -1.71759e-08 -680.446)
(-1803.75 -1.88112e-08 -472.002)
(-1957.62 -2.04461e-08 -247.808)
(-2105.7 -2.20807e-08 -15.6037)
(-2267.37 -2.37141e-08 208.447)
(-87.3924 -8.01929e-10 -1789.04)
(-241.805 -2.38783e-09 -1805.48)
(-422.352 -4.09346e-09 -1793.65)
(-602.732 -5.7386e-09 -1739.81)
(-772.738 -7.37219e-09 -1663.72)
(-942.888 -9.00476e-09 -1569.28)
(-1114.39 -1.06378e-08 -1453.82)
(-1284.4 -1.22711e-08 -1314.77)
(-1452 -1.39049e-08 -1154.57)
(-1617.11 -1.55391e-08 -977.376)
(-1779.75 -1.7174e-08 -785.233)
(-1942.4 -1.88098e-08 -577.837)
(-2100.49 -2.04439e-08 -356.797)
(-2257.62 -2.20782e-08 -138.262)
(-2430.83 -2.37115e-08 58.3601)
(-89.8264 -7.27935e-10 -1884.98)
(-251.39 -2.06923e-09 -1890.91)
(-428.615 -3.85246e-09 -1919.51)
(-637.133 -5.71587e-09 -1879.28)
(-827.123 -7.37162e-09 -1783.76)
(-1011.56 -9.00373e-09 -1690.06)
(-1199.53 -1.06365e-08 -1574.79)
(-1384.44 -1.22696e-08 -1432.7)
(-1564.96 -1.39026e-08 -1269.3)
(-1739.89 -1.55351e-08 -1086.76)
(-1907.36 -1.71687e-08 -887.028)
(-2081.94 -1.8808e-08 -683.76)
(-2236.47 -2.044e-08 -459.454)
(-2374.93 -2.20716e-08 -257.602)
(-2468.21 -2.37044e-08 -191.841)
(-89.9392 -7.2787e-10 -1992.86)
(-285.843 -2.08894e-09 -2081.07)
(-442.671 -3.86378e-09 -2364.93)
(-665.597 -5.70802e-09 -2079.89)
(-857.484 -7.36843e-09 -1927.83)
(-1077.61 -9.00068e-09 -1826.74)
(-1288.25 -1.06322e-08 -1710.96)
(-1489.41 -1.22664e-08 -1560.29)
(-1685.3 -1.38977e-08 -1390.48)
(-1878.42 -1.55113e-08 -1171.28)
(-2008 -1.70765e-08 -809.926)
(-2107.06 -1.87081e-08 -568.613)
(-2328.66 -2.04133e-08 -509.996)
(-2350.06 -2.20067e-08 -174.178)
(-2064.11 -2.36342e-08 -152.649)
(-84.6115 -7.51988e-10 -2471.6)
(-326.55 -2.26029e-09 -3273.84)
(-429.331 -3.93931e-09 -3505)
(-611.447 -5.6271e-09 -3234.65)
(-804.625 -7.27681e-09 -2788.88)
(-1122.16 -8.9721e-09 -2090.07)
(-1382.63 -1.05797e-08 -1969.32)
(-1610.63 -1.22361e-08 -1721.72)
(-1832.86 -1.387e-08 -1519.6)
(-2085.02 -1.54367e-08 -1211.45)
(-2165.82 -1.69057e-08 -603.477)
(-2235.65 -1.85098e-08 -164.132)
(-2436.67 -2.03539e-08 -443.016)
(-2405.42 -2.17735e-08 642.095)
(-1954.64 -2.33833e-08 940.042)
(-224.745 -8.14076e-10 -4247.02)
(-503.716 -2.34364e-09 -4380.33)
(-513.114 -3.95618e-09 -4266.84)
(-671.662 -5.57722e-09 -4028.2)
(-838.554 -7.19153e-09 -3524.4)
(-1267.16 -8.80358e-09 -3003.84)
(-1668.92 -1.04157e-08 -2530.91)
(-1980.91 -1.20167e-08 -2083.23)
(-2224.01 -1.3604e-08 -1612.74)
(-2429.39 -1.52334e-08 -1148.41)
(-2546.24 -1.6768e-08 -481.93)
(-2648.24 -1.83391e-08 194.092)
(-2708.66 -1.99764e-08 703.746)
(-2752.31 -2.16173e-08 1140.97)
(-2505.97 -2.3214e-08 1763.5)
(-207.113 -8.30949e-10 -4960.14)
(-528.697 -2.37596e-09 -5194.41)
(-645.762 -3.95684e-09 -5098.26)
(-844.652 -5.54263e-09 -4702.27)
(-1139.28 -7.13059e-09 -4154.61)
(-1577.28 -8.7356e-09 -3472.83)
(-1974.52 -1.03271e-08 -2904.66)
(-2310.47 -1.19149e-08 -2346.93)
(-2600.25 -1.35019e-08 -1769.95)
(-2825.93 -1.51191e-08 -1209.64)
(-2998.59 -1.66985e-08 -516.682)
(-3166.43 -1.82773e-08 209.358)
(-3296.77 -1.9868e-08 952.526)
(-3247.11 -2.15032e-08 1482.9)
(-3175.52 -2.30919e-08 2284.62)
(-177.739 -8.58202e-10 -5526.53)
(-541.988 -2.38977e-09 -5625.3)
(-830.014 -3.95725e-09 -5486.97)
(-1143.31 -5.53239e-09 -5078.01)
(-1533.89 -7.1169e-09 -4488.57)
(-1960.21 -8.70637e-09 -3832.11)
(-2358.87 -1.02914e-08 -3214.71)
(-2705.85 -1.18657e-08 -2605.04)
(-3027.94 -1.34558e-08 -1960.66)
(-3285.06 -1.50605e-08 -1336.75)
(-3493.49 -1.66547e-08 -613.07)
(-3714.22 -1.82295e-08 177.627)
(-3898.25 -1.9815e-08 961.404)
(-3837.18 -2.14309e-08 1647.08)
(-3904.15 -2.30128e-08 2541.8)
(-199.726 -8.72592e-10 -6052.67)
(-623.631 -2.39156e-09 -6029.72)
(-1016.87 -3.95449e-09 -5865.38)
(-1455.6 -5.52386e-09 -5430.03)
(-1914.9 -7.10358e-09 -4842.46)
(-2367.28 -8.68769e-09 -4177.65)
(-2772.32 -1.02724e-08 -3518.34)
(-3141.89 -1.18502e-08 -2868.17)
(-3496.13 -1.34324e-08 -2182.77)
(-3800.09 -1.50245e-08 -1500.81)
(-4019.46 -1.66229e-08 -749.797)
(-4277.87 -1.81985e-08 69.199)
(-4519.89 -1.97753e-08 908.178)
(-4458.34 -2.1378e-08 1722.31)
(-4589.42 -2.29562e-08 2672.01)
(-237.551 -8.79819e-10 -6572.97)
(-735.184 -2.39142e-09 -6489.08)
(-1231.97 -3.94778e-09 -6326.3)
(-1768.03 -5.51298e-09 -5865.45)
(-2302.42 -7.08799e-09 -5267.01)
(-2807.01 -8.66865e-09 -4568.59)
(-3244.33 -1.02516e-08 -3864.99)
(-3609.01 -1.18367e-08 -3152.3)
(-3990.97 -1.3414e-08 -2423.58)
(-4335.7 -1.49992e-08 -1688.63)
(-4575.78 -1.65923e-08 -895.333)
(-4855.04 -1.81649e-08 -11.4297)
(-5082.28 -1.97384e-08 881.811)
(-5123.17 -2.1325e-08 1796.2)
(-5278.11 -2.28984e-08 2800.62)
(-274.698 -8.73004e-10 -7105.67)
(-847.57 -2.38906e-09 -7014.1)
(-1441.78 -3.93865e-09 -6894.39)
(-2096.52 -5.49724e-09 -6421.7)
(-2725.85 -7.06992e-09 -5761.13)
(-3288.22 -8.64612e-09 -5016.31)
(-3769.25 -1.02249e-08 -4266.02)
(-4148.94 -1.18078e-08 -3490.65)
(-4547.87 -1.33889e-08 -2684.03)
(-4918.56 -1.49719e-08 -1883.28)
(-5186.37 -1.65585e-08 -1049.24)
(-5502.46 -1.81209e-08 -69.7284)
(-5803.31 -1.96913e-08 899.777)
(-5818.76 -2.12767e-08 1847.19)
(-6012.89 -2.2846e-08 2883.6)
(-305.885 -8.64913e-10 -7762.06)
(-954.273 -2.38293e-09 -7703.19)
(-1677.97 -3.92499e-09 -7612.07)
(-2468.86 -5.4786e-09 -7075.8)
(-3197.6 -7.04759e-09 -6348.13)
(-3822.83 -8.61798e-09 -5542.72)
(-4367.77 -1.01882e-08 -4734.23)
(-4774.45 -1.17666e-08 -3867.59)
(-5197.09 -1.33518e-08 -2954.32)
(-5586.36 -1.49348e-08 -2065.37)
(-5850.38 -1.65253e-08 -1218.64)
(-6176.44 -1.80938e-08 -217.103)
(-6510.82 -1.96598e-08 825.48)
(-6527.29 -2.1231e-08 1905.41)
(-6724.08 -2.27994e-08 2962.85)
(-330.805 -8.61376e-10 -8571.66)
(-1060.22 -2.37637e-09 -8563.45)
(-1950.71 -3.91007e-09 -8428.41)
(-2898.12 -5.45822e-09 -7823.43)
(-3738.53 -7.02096e-09 -7034.92)
(-4415.19 -8.58739e-09 -6137.81)
(-5031.55 -1.01408e-08 -5285.03)
(-5513.37 -1.17091e-08 -4282.44)
(-5973.72 -1.33001e-08 -3228.42)
(-6370.56 -1.48857e-08 -2225.83)
(-6587.82 -1.64845e-08 -1360.39)
(-6899.53 -1.8057e-08 -293.161)
(-7189.49 -1.96183e-08 888.156)
(-7251.75 -2.11833e-08 2020.04)
(-7400.28 -2.27452e-08 3111.61)
(-365.293 -8.56613e-10 -9586.35)
(-1188.56 -2.36769e-09 -9603.62)
(-2267.51 -3.89343e-09 -9385.43)
(-3385.6 -5.43393e-09 -8706.16)
(-4365.01 -6.98973e-09 -7835.03)
(-5072.41 -8.55147e-09 -6836.84)
(-5752.13 -1.0088e-08 -5918.6)
(-6370.98 -1.16463e-08 -4732.65)
(-6907.24 -1.32346e-08 -3504.63)
(-7315.16 -1.48208e-08 -2352.32)
(-7443.51 -1.6431e-08 -1443.42)
(-7732.49 -1.80034e-08 -231.34)
(-7966.03 -1.95593e-08 1157.86)
(-8006.97 -2.11298e-08 2249.71)
(-8066.5 -2.2689e-08 3423.21)
(-416.669 -8.5208e-10 -10818.4)
(-1341.4 -2.36029e-09 -10847.5)
(-2638.69 -3.87607e-09 -10496.9)
(-3952.2 -5.40707e-09 -9745.88)
(-5101.9 -6.95277e-09 -8786.25)
(-5829.9 -8.50526e-09 -7712.69)
(-6592.45 -1.00353e-08 -6632.1)
(-7358.94 -1.15786e-08 -5227.36)
(-8013.22 -1.316e-08 -3795.47)
(-8420.91 -1.47488e-08 -2477.54)
(-8477.17 -1.63622e-08 -1445.16)
(-8739.09 -1.79353e-08 -39.7703)
(-8917.55 -1.94859e-08 1603.28)
(-8842.96 -2.10672e-08 2657.64)
(-8780.29 -2.26201e-08 4020.46)
(-494.267 -8.42664e-10 -12286.1)
(-1529.09 -2.34799e-09 -12236.6)
(-3054.01 -3.85578e-09 -11759.1)
(-4588.41 -5.37811e-09 -10930.9)
(-5931.56 -6.91533e-09 -9880.54)
(-6693.7 -8.45836e-09 -8736.54)
(-7567.73 -9.98396e-09 -7460.82)
(-8509.38 -1.15155e-08 -5803.65)
(-9332.81 -1.30799e-08 -4103.83)
(-9713.75 -1.467e-08 -2625.1)
(-9704.69 -1.62873e-08 -1415)
(-9965.13 -1.78536e-08 287.936)
(-10092.3 -1.94035e-08 2171.25)
(-9855.28 -2.09939e-08 3298.35)
(-9656.74 -2.25418e-08 4997.86)
(-607.67 -8.32099e-10 -14033.2)
(-1758.57 -2.33548e-09 -13892.3)
(-3531.58 -3.83418e-09 -13294.2)
(-5324.24 -5.34388e-09 -12333)
(-6894.14 -6.87275e-09 -11146.5)
(-7697.65 -8.41138e-09 -9933.45)
(-8715.1 -9.93688e-09 -8419.52)
(-9836.37 -1.14633e-08 -6490.77)
(-10866.2 -1.30031e-08 -4460.25)
(-11267.1 -1.4589e-08 -2764.44)
(-11163.5 -1.62106e-08 -1376.84)
(-11444.3 -1.7764e-08 720.509)
(-11569.9 -1.93174e-08 2829.08)
(-11148.1 -2.091e-08 4182.51)
(-10833.9 -2.24533e-08 6309.26)
(-763.479 -8.18163e-10 -15946.6)
(-2090.71 -2.31848e-09 -15782.4)
(-4109.32 -3.80735e-09 -15049.4)
(-6172.36 -5.31075e-09 -13917)
(-7996.97 -6.83284e-09 -12588.2)
(-8865.64 -8.36593e-09 -11312.2)
(-10060.5 -9.88987e-09 -9527.35)
(-11369.3 -1.14135e-08 -7293.96)
(-12591.1 -1.29367e-08 -4900.95)
(-13103.4 -1.45121e-08 -2913.3)
(-12856 -1.61403e-08 -1391.46)
(-13168.4 -1.76878e-08 1027.6)
(-13391 -1.92303e-08 3546.02)
(-12740 -2.08173e-08 5286.27)
(-12279 -2.23508e-08 7802.24)
(-926.092 -8.09533e-10 -17977.7)
(-2512.29 -2.30651e-09 -17808.4)
(-4781.11 -3.79195e-09 -16965.8)
(-7126.06 -5.28372e-09 -15657.3)
(-9251.16 -6.78938e-09 -14243.2)
(-10217.2 -8.31996e-09 -12909.3)
(-11651.3 -9.84093e-09 -10807.3)
(-13165.5 -1.13645e-08 -8241.91)
(-14558.8 -1.28834e-08 -5501.07)
(-15387.5 -1.44302e-08 -2954.76)
(-14787.1 -1.60738e-08 -1431.63)
(-15120.4 -1.76183e-08 1288.34)
(-15393.5 -1.91496e-08 4323.89)
(-14561.1 -2.07136e-08 6751.23)
(-13797.2 -2.22396e-08 9632.06)
(-1075.98 -8.05208e-10 -20242)
(-2906.29 -2.29441e-09 -19913.2)
(-5476 -3.77143e-09 -18985.2)
(-8135.78 -5.25816e-09 -17557.4)
(-10604.7 -6.75241e-09 -16130.1)
(-11806.7 -8.27296e-09 -14692.3)
(-13504.4 -9.7905e-09 -12243.5)
(-15231 -1.13151e-08 -9322.88)
(-16794.8 -1.283e-08 -6202.37)
(-17762.6 -1.43621e-08 -3234.35)
(-17133.3 -1.59939e-08 -1383.13)
(-17462.3 -1.75357e-08 1747.34)
(-17778.4 -1.90587e-08 5403.06)
(-16648.5 -2.05909e-08 8812.62)
(-15526.1 -2.211e-08 12148.9)
(-1197.7 -8.02889e-10 -22994.6)
(-3164.71 -2.27863e-09 -22455.6)
(-6118.85 -3.75201e-09 -21354.8)
(-9194.18 -5.23026e-09 -19772)
(-12052.5 -6.71099e-09 -18317.4)
(-13701.4 -8.21841e-09 -16718.7)
(-15692 -9.72863e-09 -13892.3)
(-17667.3 -1.12537e-08 -10561.9)
(-19461.4 -1.27614e-08 -6965.66)
(-20594.6 -1.42788e-08 -3488.58)
(-20018.6 -1.58997e-08 -1260.82)
(-20255.8 -1.74505e-08 2210.2)
(-20695.8 -1.89627e-08 6628.66)
(-19087.6 -2.04544e-08 11430.5)
(-17597 -2.19598e-08 15417.9)
(-1308.45 -7.94095e-10 -26615.4)
(-3335.03 -2.25619e-09 -26040.5)
(-6770.55 -3.71951e-09 -24579.3)
(-10403 -5.19729e-09 -22437.2)
(-13686.9 -6.67045e-09 -20760.2)
(-15862.2 -8.15831e-09 -18997.7)
(-18248.5 -9.65746e-09 -15759.4)
(-20561.7 -1.11735e-08 -11974.4)
(-22598.9 -1.26713e-08 -7861.22)
(-23877.4 -1.41745e-08 -3870.02)
(-23532.8 -1.57859e-08 -978.706)
(-23508.8 -1.73633e-08 2683.16)
(-23933.4 -1.88624e-08 8169.11)
(-22056.9 -2.03001e-08 14761.1)
(-20039.5 -2.17954e-08 19953.5)
(-1465.73 -7.85886e-10 -31141.6)
(-3634.27 -2.22968e-09 -30900.8)
(-7687.53 -3.66635e-09 -29083.6)
(-11918.5 -5.15922e-09 -25526.3)
(-15577.9 -6.61923e-09 -23593)
(-18303.2 -8.09229e-09 -21577.5)
(-21155 -9.58091e-09 -17923.3)
(-24013.7 -1.10637e-08 -13673.4)
(-26441.4 -1.25455e-08 -8928.76)
(-27848.4 -1.40516e-08 -4310.87)
(-27765 -1.565e-08 -503.717)
(-27518 -1.72442e-08 3652.87)
(-27719.1 -1.87171e-08 10875)
(-26125.3 -2.0115e-08 19007.4)
(-23669.1 -2.15941e-08 26273.9)
(-1824.03 -7.74387e-10 -35976.9)
(-4813.91 -2.19557e-09 -35945.1)
(-9546.59 -3.61061e-09 -33330.8)
(-13951.3 -5.10149e-09 -29297.7)
(-17832 -6.55366e-09 -27003.7)
(-21080 -8.0214e-09 -24501.5)
(-24404.9 -9.50277e-09 -20464)
(-27873.2 -1.09506e-08 -15799)
(-30836.8 -1.24111e-08 -10395.3)
(-32586.5 -1.39139e-08 -4930.6)
(-32912.8 -1.54915e-08 3.28314)
(-33026.9 -1.70476e-08 5710.44)
(-33203.9 -1.85047e-08 14483.9)
(-31897 -1.9901e-08 23684.7)
(-29507.8 -2.13637e-08 33647.1)
(-2292.87 -7.64542e-10 -40726.5)
(-6328.21 -2.18126e-09 -39939.7)
(-11578.1 -3.57657e-09 -37110.4)
(-16416.4 -5.01362e-09 -33825.4)
(-20478.5 -6.47723e-09 -30897.9)
(-24228.4 -7.94706e-09 -27755.1)
(-27952.8 -9.42511e-09 -23412.3)
(-32161.3 -1.08228e-08 -18443.2)
(-35834.1 -1.22624e-08 -12318.6)
(-38237.7 -1.37513e-08 -5868.33)
(-39282.9 -1.53018e-08 264.009)
(-40077.1 -1.68098e-08 7716.17)
(-40656 -1.82637e-08 17886.8)
(-39605.5 -1.96627e-08 28245.8)
(-37799.6 -2.11123e-08 41065.4)
(-2672.17 -7.48848e-10 -45800.4)
(-7144.87 -2.13733e-09 -44302.5)
(-13489.2 -3.53399e-09 -41371.5)
(-19008.2 -4.91828e-09 -38823.5)
(-23662.6 -6.3871e-09 -35207.7)
(-27817.9 -7.86313e-09 -31359.8)
(-31847.3 -9.33176e-09 -27028.7)
(-36885.9 -1.06809e-08 -21795)
(-41500.4 -1.21061e-08 -14862)
(-44920 -1.35662e-08 -7291.98)
(-46894.8 -1.50844e-08 33.1826)
(-48369.9 -1.65661e-08 8820.73)
(-49806.4 -1.80023e-08 20449.1)
(-49233 -1.9405e-08 32217.1)
(-48428 -2.08292e-08 47770.7)
(-3087.44 -7.32091e-10 -51470.4)
(-8105.51 -2.09547e-09 -50310.2)
(-15386.4 -3.45433e-09 -47372.5)
(-21954.1 -4.82089e-09 -44243)
(-27520.5 -6.27404e-09 -39920.8)
(-31823.8 -7.7604e-09 -35628.8)
(-36434.8 -9.18164e-09 -32095.2)
(-42067.6 -1.05457e-08 -25807.2)
(-47688.4 -1.19531e-08 -18113.4)
(-52236 -1.33873e-08 -9599.48)
(-55532.2 -1.48532e-08 -1086.56)
(-57807.3 -1.6322e-08 8868.2)
(-60406.1 -1.77441e-08 21954.4)
(-60628.5 -1.91308e-08 35201.7)
(-61161.7 -2.05402e-08 53219.1)
(-3667.24 -7.24862e-10 -57552.7)
(-9758.6 -2.06508e-09 -56731.1)
(-17583.9 -3.38372e-09 -53431.4)
(-25067.3 -4.74157e-09 -49641.4)
(-31867.2 -6.13877e-09 -45070.5)
(-36256.7 -7.62666e-09 -40883.9)
(-41367.4 -9.03991e-09 -37831.7)
(-47772.7 -1.04151e-08 -30503.2)
(-54484.9 -1.17875e-08 -22210.2)
(-60176.2 -1.32003e-08 -12881)
(-64810.2 -1.46257e-08 -3468.35)
(-68155 -1.60852e-08 7616.18)
(-72174.3 -1.74738e-08 22085.5)
(-73576.5 -1.88382e-08 36869.5)
(-75705.7 -2.02226e-08 57038.9)
(-4300.61 -7.16169e-10 -63934.3)
(-11645.9 -2.00042e-09 -63244.6)
(-20099.6 -3.32372e-09 -59692.2)
(-28364.5 -4.67783e-09 -55409.9)
(-36224.4 -6.03785e-09 -50839.2)
(-41102.4 -7.45641e-09 -47525.4)
(-46586 -8.8849e-09 -44258.2)
(-53905.5 -1.02805e-08 -35954.6)
(-61934.9 -1.15866e-08 -27405.9)
(-68957.4 -1.29725e-08 -17242.8)
(-74788.5 -1.43646e-08 -7355.13)
(-79393.3 -1.58379e-08 4991.71)
(-84930.8 -1.72007e-08 20718.7)
(-87869.7 -1.85282e-08 36969.7)
(-91807.4 -1.98763e-08 58963.5)
(-4945.58 -7.14488e-10 -70515.1)
(-13524.6 -2.02339e-09 -69602.2)
(-22697.5 -3.2906e-09 -65978.9)
(-31794 -4.60352e-09 -61987.4)
(-40579.1 -5.8866e-09 -58343.8)
(-46444.5 -7.19776e-09 -56530.4)
(-52758.1 -8.65764e-09 -51676.7)
(-60368.8 -1.01251e-08 -42325.1)
(-70069.6 -1.12926e-08 -34261.6)
(-78940.6 -1.26251e-08 -23386.2)
(-85951.5 -1.40083e-08 -12942.6)
(-91824.8 -1.55432e-08 955.269)
(-98809.1 -1.68957e-08 17648.2)
(-103272 -1.81989e-08 35268.2)
(-109245 -1.95344e-08 58692.9)
(-5391.54 -6.9088e-10 -77370)
(-14727.2 -1.96491e-09 -75878.1)
(-25175.8 -3.24622e-09 -72609.4)
(-35097.8 -4.52967e-09 -69436.1)
(-44659.8 -5.61613e-09 -69622.4)
(-52112.3 -6.83672e-09 -67380.5)
(-60067 -8.2599e-09 -61378.1)
(-67166.2 -9.88171e-09 -50272.8)
(-78291.9 -1.09185e-08 -42924.7)
(-89149.1 -1.21891e-08 -31933.9)
(-97787.6 -1.35805e-08 -20452.9)
(-105505 -1.5171e-08 -4869.48)
(-113630 -1.6538e-08 12201.1)
(-119489 -1.78591e-08 31579.3)
(-127640 -1.91438e-08 56208.2)
(-5498.95 -6.8869e-10 -85935.3)
(-15009.9 -1.93343e-09 -83703.5)
(-27134.5 -3.16169e-09 -80946.9)
(-38122.7 -4.32233e-09 -80017)
(-48272.2 -5.21167e-09 -82888.6)
(-57975.2 -6.34588e-09 -80425.8)
(-67675.3 -7.7128e-09 -73649.2)
(-74952.9 -9.38409e-09 -62019.9)
(-86299.7 -1.0525e-08 -52905.7)
(-98789 -1.17149e-08 -42336.5)
(-109900 -1.3077e-08 -30306.8)
(-120183 -1.46926e-08 -13277.6)
(-129002 -1.61981e-08 3324.99)
(-136511 -1.75562e-08 25877.3)
(-146781 -1.88281e-08 52311.2)
(-5415.43 -6.31785e-10 -97639.4)
(-14743.9 -1.79373e-09 -94812.5)
(-28246.2 -2.97416e-09 -91893.7)
(-40259.4 -3.93626e-09 -94296.3)
(-51194.4 -4.75661e-09 -97015.3)
(-63121.3 -5.77312e-09 -95002.2)
(-74790.8 -7.02857e-09 -88605.9)
(-82292.7 -8.84623e-09 -75128.9)
(-93903.2 -1.02563e-08 -62754.9)
(-107588 -1.1285e-08 -53992.3)
(-121655 -1.24069e-08 -43888.6)
(-135501 -1.39806e-08 -26758)
(-144491 -1.59734e-08 -9698.43)
(-155159 -1.73659e-08 18325.2)
(-167055 -1.8638e-08 47382)
(-5520.87 -5.65152e-10 -112090)
(-14817.6 -1.60987e-09 -109663)
(-28669.1 -2.66035e-09 -107507)
(-41621.4 -3.4663e-09 -110552)
(-53554.3 -4.27154e-09 -111894)
(-66936.9 -5.13728e-09 -111091)
(-80237.7 -6.19634e-09 -106186)
(-91068.2 -7.58321e-09 -96881)
(-100709 -1.00401e-08 -72629.6)
(-114165 -1.0772e-08 -67132.4)
(-130763 -1.14543e-08 -62914.8)
(-146909 -1.28942e-08 -49175.8)
(-162766 -1.5635e-08 -24360.3)
(-175716 -1.72303e-08 9592.56)
(-189264 -1.85032e-08 42262.8)
(-5715.51 -4.87105e-10 -128080)
(-15126.5 -1.40884e-09 -126648)
(-29248.4 -2.29985e-09 -125465)
(-42620.9 -3.0501e-09 -126390)
(-55094 -3.76417e-09 -127505)
(-69159.5 -4.46325e-09 -128023)
(-83357.9 -5.34147e-09 -124431)
(-95070 -6.48956e-09 -116345)
(-105503 -7.94956e-09 -104246)
(-118746 -1.01632e-08 -81644.8)
(-135444 -1.11372e-08 -75381)
(-151494 -1.2223e-08 -68823.2)
(-180862 -1.49477e-08 -44024.6)
(-199236 -1.71009e-08 -571.3)
(-214395 -1.83713e-08 37374.9)
(-6006.97 -4.19762e-10 -144758)
(-15883.9 -1.20438e-09 -143994)
(-30150.9 -1.98517e-09 -142574)
(-43474.1 -2.67959e-09 -142189)
(-55630.7 -3.29384e-09 -143117)
(-69760.6 -3.82265e-09 -144927)
(-84181.7 -4.46044e-09 -143331)
(-94083.5 -4.92926e-09 -142348)
(-106066 -6.46824e-09 -126553)
(-120092 -7.72379e-09 -115473)
(-139625 -1.07702e-08 -88160.9)
(-162996 -1.08392e-08 -96153.9)
(-195007 -1.22349e-08 -86501.8)
(-226909 -1.70085e-08 -12553.6)
(-291675 -1.82287e-08 11310.6)
(-6345.87 -3.80044e-10 -159606)
(-17091.9 -1.05132e-09 -159648)
(-31165.9 -1.71433e-09 -159335)
(-44335.3 -2.33634e-09 -158148)
(-55516.7 -2.89175e-09 -158338)
(-69144.4 -3.31937e-09 -160465)
(-82032.2 -3.75899e-09 -159524)
(-90544.1 -3.90983e-09 -161042)
(-101054 -4.59468e-09 -154402)
(-114194 -5.63747e-09 -140120)
(-129605 -6.50275e-09 -134167)
(-156291 -7.63984e-09 -136477)
(-188329 -8.89254e-09 -141949)
(-231323 -1.09175e-08 -141888)
(-316936 -1.16947e-08 -178008)
(-6517.12 -3.51968e-10 -173359)
(-17402.2 -9.45588e-10 -174129)
(-32101.9 -1.52392e-09 -173171)
(-45356 -2.09003e-09 -172108)
(-55508.9 -2.56646e-09 -173157)
(-68769.9 -2.97175e-09 -174327)
(-80529.4 -3.30337e-09 -172685)
(-86732.8 -3.26902e-09 -173837)
(-90750.8 -3.20453e-09 -172286)
(-100680 -3.60582e-09 -160065)
(-119026 -4.66883e-09 -152670)
(-136014 -5.33517e-09 -159951)
(-155290 -6.19639e-09 -176091)
(-178113 -7.27703e-09 -206410)
(-206156 -7.82847e-09 -283302)
(-6731.5 -3.05483e-10 -187119)
(-18482.9 -8.29023e-10 -188135)
(-33280.7 -1.35469e-09 -186899)
(-46177 -1.90227e-09 -185831)
(-55614.5 -2.30451e-09 -188513)
(-69296.2 -2.6797e-09 -189108)
(-79618.8 -2.91303e-09 -185550)
(-84820.8 -2.85564e-09 -184197)
(-91859.8 -2.89242e-09 -179650)
(-99100.9 -3.0097e-09 -168168)
(-113402 -3.7389e-09 -161873)
(-123804 -4.27738e-09 -163808)
(-129557 -4.8077e-09 -173197)
(-127704 -5.35282e-09 -198071)
(-112152 -5.74152e-09 -246520)
(-6904.02 -2.70783e-10 -200638)
(-18978.3 -7.77499e-10 -202546)
(-34900.9 -1.25449e-09 -203198)
(-48035.1 -1.73185e-09 -201992)
(-56457.8 -2.04822e-09 -206400)
(-71177.5 -2.34576e-09 -206878)
(-82096.4 -2.56604e-09 -202452)
(-86177 -2.58345e-09 -196310)
(-94294.5 -2.65437e-09 -188538)
(-105489 -2.89705e-09 -174763)
(-114961 -3.20447e-09 -164701)
(-121753 -3.71721e-09 -159627)
(-122230 -4.14278e-09 -156208)
(-112868 -4.4991e-09 -156338)
(-84503.9 -4.81089e-09 -157773)
(-7046.24 -2.56159e-10 -214284)
(-19532.3 -7.40287e-10 -216926)
(-36088.7 -1.17935e-09 -218168)
(-49685.6 -1.60146e-09 -218364)
(-58186.6 -1.81988e-09 -225261)
(-73814.3 -2.09987e-09 -224510)
(-86230.1 -2.29989e-09 -220853)
(-90578.6 -2.33611e-09 -211430)
(-101696 -2.53708e-09 -198536)
(-112832 -2.74803e-09 -179265)
(-123560 -3.08549e-09 -165758)
(-129841 -3.47124e-09 -152439)
(-131275 -3.87806e-09 -138500)
(-125793 -4.20537e-09 -116713)
(-106985 -4.52872e-09 -85149.4)
(-7093.82 -2.26861e-10 -227669)
(-19881.6 -6.31266e-10 -229621)
(-35885.5 -1.06526e-09 -230501)
(-50929.5 -1.48918e-09 -233573)
(-60821.2 -1.67233e-09 -243246)
(-77502.4 -1.9765e-09 -240016)
(-91583.8 -2.20245e-09 -234006)
(-99843.6 -2.26963e-09 -224998)
(-113124 -2.49012e-09 -208276)
(-126486 -2.77257e-09 -188176)
(-139897 -3.0565e-09 -167876)
(-147935 -3.4117e-09 -149616)
(-152312 -3.78795e-09 -129888)
(-155398 -4.11035e-09 -97591.7)
(-153769 -4.40777e-09 -54123.6)
(-6897.07 -2.27249e-10 -242636)
(-18871.7 -6.04684e-10 -243617)
(-35098.8 -9.77036e-10 -242534)
(-51801.5 -1.32964e-09 -253760)
(-65418.4 -1.59892e-09 -260655)
(-82911.8 -1.92168e-09 -255110)
(-98460.9 -2.1715e-09 -246561)
(-110692 -2.25635e-09 -235666)
(-125581 -2.47147e-09 -217949)
(-140199 -2.78518e-09 -197565)
(-154791 -3.10244e-09 -177071)
(-166930 -3.41832e-09 -155401)
(-174981 -3.75573e-09 -131050)
(-184356 -4.08157e-09 -98514.7)
(-193376 -4.35738e-09 -59577.5)
(-6952.75 -2.03627e-10 -260773)
(-18743 -5.36592e-10 -262964)
(-36252.4 -8.84305e-10 -263182)
(-54920.1 -1.2608e-09 -273441)
(-71505.2 -1.61012e-09 -277236)
(-89234.7 -1.90869e-09 -268940)
(-106132 -2.15453e-09 -260222)
(-121425 -2.27271e-09 -246646)
(-138080 -2.48295e-09 -228802)
(-154111 -2.79184e-09 -207733)
(-170219 -3.1143e-09 -186603)
(-184779 -3.41545e-09 -163134)
(-196161 -3.75185e-09 -135998)
(-207850 -4.07745e-09 -103927)
(-216614 -4.37656e-09 -70145.9)
(-7381.32 -1.92906e-10 -278553)
(-20575.8 -5.6165e-10 -280200)
(-37210.9 -8.82865e-10 -281648)
(-57737.5 -1.24921e-09 -292498)
(-76346.3 -1.58385e-09 -290030)
(-95498.7 -1.9282e-09 -282621)
(-113999 -2.23272e-09 -273916)
(-131800 -2.31539e-09 -259038)
(-150864 -2.52704e-09 -241392)
(-168676 -2.81549e-09 -219195)
(-186505 -3.10139e-09 -196876)
(-203621 -3.43188e-09 -171668)
(-218166 -3.76256e-09 -141435)
(-229796 -4.10963e-09 -103373)
(-230645 -4.36521e-09 -63244.9)
(-8005.64 -1.97783e-10 -293764)
(-21947.3 -6.17266e-10 -295367)
(-38323.7 -9.60832e-10 -298268)
(-59386.3 -1.25077e-09 -305307)
(-80407.8 -1.55478e-09 -303779)
(-101140 -1.9603e-09 -297366)
(-121248 -2.33793e-09 -290361)
(-141269 -2.44868e-09 -274942)
(-164025 -2.59078e-09 -256557)
(-184182 -2.84631e-09 -231947)
(-203574 -3.16405e-09 -208186)
(-228048 -3.48384e-09 -177848)
(-247364 -3.79167e-09 -144915)
(-261966 -4.11944e-09 -87919.7)
(-329980 -4.41103e-09 -88847.5)
(-8426.2 -1.82925e-10 -308327)
(-23295.1 -5.67515e-10 -311152)
(-40284.6 -9.42173e-10 -314909)
(-61533.8 -1.26659e-09 -319925)
(-84570.6 -1.62481e-09 -319701)
(-106484 -1.99874e-09 -312891)
(-127680 -2.35718e-09 -304407)
(-148346 -2.69049e-09 -293933)
(-175624 -2.87436e-09 -278450)
(-200680 -2.87666e-09 -245667)
(-236502 -3.25049e-09 -230397)
(-272799 -3.6001e-09 -201563)
(-295557 -3.84179e-09 -155487)
(-236063 -5.27395e-09 -244985)
(-366107 -5.65691e-09 -414879)
(-8577.07 -1.8968e-10 -322681)
(-24150.9 -5.67304e-10 -326229)
(-41790 -9.067e-10 -330883)
(-63240.8 -1.29607e-09 -335334)
(-87447.2 -1.69134e-09 -336268)
(-111372 -2.06787e-09 -329632)
(-133962 -2.39005e-09 -319169)
(-153321 -2.87525e-09 -310171)
(-179080 -3.28535e-09 -307716)
(-212187 -3.64036e-09 -316503)
(-253305 -3.94957e-09 -301613)
(-303889 -4.13062e-09 -293125)
(-402271 -4.58012e-09 -362923)
(-35504.1 -6.53746e-09 -355205)
(-118741 -7.02231e-09 -722335)
(-8381.59 -2.03502e-10 -336208)
(-24038.6 -5.79761e-10 -340776)
(-42676.8 -9.1522e-10 -346940)
(-64242.6 -1.33903e-09 -352171)
(-89133.6 -1.76198e-09 -355960)
(-115979 -2.19156e-09 -349713)
(-139141 -2.61825e-09 -342048)
(-151554 -3.19659e-09 -331290)
(-163555 -3.83955e-09 -336960)
(-194913 -4.36026e-09 -367418)
(-183842 -5.14757e-09 -377100)
(-179884 -5.9273e-09 -476132)
(-64405.1 -6.6334e-09 -567514)
(257467 -7.83909e-09 -324232)
(355763 -8.43993e-09 -714114)
(-8098.2 -2.1187e-10 -349214)
(-23345.6 -6.0808e-10 -354824)
(-42416.6 -1.02668e-09 -362768)
(-64683.5 -1.41123e-09 -370840)
(-90832.5 -1.91683e-09 -379408)
(-120469 -2.35811e-09 -372909)
(-144890 -2.8681e-09 -367874)
(-147261 -3.68789e-09 -362828)
(-137872 -4.58461e-09 -360436)
(-159042 -5.12793e-09 -370898)
(-55095.5 -6.32126e-09 -347760)
(69596.1 -7.27059e-09 -375958)
(249903 -7.92835e-09 -626985)
(491770 -8.9558e-09 -45628.5)
(822868 -9.65214e-09 -211802)
(-7964.52 -2.25134e-10 -359311)
(-22366.3 -6.21175e-10 -367361)
(-41673 -1.04027e-09 -378325)
(-64695.1 -1.49242e-09 -390539)
(-93885.8 -2.04654e-09 -405639)
(-125674 -2.54198e-09 -398907)
(-152867 -3.17512e-09 -398954)
(-151597 -4.28742e-09 -413398)
(-145868 -5.51308e-09 -366870)
(-39155.7 -7.61843e-09 -151308)
(17631.3 -8.12744e-09 -116813)
(204792 -8.6474e-09 -25007.4)
(486186 -9.37794e-09 53183.5)
(481339 -9.92282e-09 492453)
(923805 -1.06157e-08 817835)
(-7400.95 -2.43455e-10 -360747)
(-20774.3 -6.57071e-10 -374995)
(-39559.4 -1.11082e-09 -391639)
(-63885.6 -1.60604e-09 -408780)
(-98301.5 -2.21996e-09 -430264)
(-130667 -2.71758e-09 -426579)
(-163507 -3.42737e-09 -436784)
(-190426 -4.81902e-09 -492729)
(-242626 -6.41229e-09 -409282)
(-196209 -8.12618e-09 -108659)
(-210400 -8.98184e-09 215161)
(-10270.3 -9.29516e-09 358296)
(198152 -1.00629e-08 807055)
(45659.7 -1.0537e-08 953739)
(279451 -1.1307e-08 1.70087e+06)