/*--------------------------------*- C++ -*----------------------------------*\
  =========                 |
  \\      /  F ield         | OpenFOAM: The Open Source CFD Toolbox
   \\    /   O peration     | Website:  https://openfoam.org
    \\  /    A nd           | Version:  7
     \\/     M anipulation  |
\*---------------------------------------------------------------------------*/
FoamFile
{
    version     2.0;
    format      ascii;
    class       volScalarField;
    location    "1.2";
    object      T;
}
// * * * * * * * * * * * * * * * * * * * * * * * * * * * * * * * * * * * * * //

dimensions      [0 0 0 1 0 0 0];

internalField   nonuniform List<scalar> 
32100
(
-2.96899e+23
-4.40998e+22
6.43677e+21
-2.45594e+20
-5.03159e+19
8.10698e+18
4.65503e+17
-9.60388e+16
3.98703e+15
9.79108e+14
-9.22961e+13
-7.69391e+11
4.60445e+09
1.37949e+10
3.70244e+09
-5.07936e+22
6.98208e+21
-2.47223e+20
-5.35873e+19
8.30795e+18
4.87993e+17
-9.86238e+16
3.96968e+15
9.44567e+14
-1.80292e+14
-3.81412e+13
-1.39692e+12
1.18955e+11
1.41358e+10
3.58346e+09
7.62641e+21
-2.51098e+20
-5.82333e+19
8.6046e+18
5.1521e+17
-1.02475e+17
4.10153e+15
1.01241e+15
-1.67747e+14
-1.76115e+13
-9.56033e+12
-7.75183e+11
1.92362e+11
7.86145e+09
2.94216e+09
-2.5641e+20
-6.83512e+19
8.81021e+18
5.95433e+17
-1.07419e+17
3.39994e+15
1.17319e+15
-1.36542e+14
-7.64498e+12
3.38131e+11
-2.13369e+12
-1.01731e+11
1.78059e+11
1.48669e+09
2.02543e+09
-9.30357e+19
6.03787e+18
5.0331e+17
-7.0307e+16
2.72766e+15
5.0386e+14
-3.2269e+13
1.93057e+13
2.25784e+12
-2.58697e+11
-4.18923e+10
1.44074e+11
1.14973e+11
-2.75725e+09
1.03571e+09
-8.03516e+18
-2.57376e+18
-2.3628e+17
4.31873e+16
3.43624e+14
-7.58968e+14
1.13785e+14
2.86861e+13
7.69752e+09
7.87115e+10
1.68468e+11
1.24102e+11
5.32715e+10
-4.48187e+09
2.84239e+08
-1.58631e+19
-3.29345e+18
-1.31024e+17
3.88617e+16
-5.17842e+14
-6.08697e+14
1.10286e+14
2.63405e+13
3.05792e+11
-1.59247e+10
8.36986e+10
5.21923e+10
1.53772e+10
-4.19326e+09
-6.71371e+07
-1.55917e+19
-3.05739e+18
-1.49165e+17
3.55006e+16
1.03668e+14
-6.02151e+14
9.37871e+13
2.65239e+13
4.99091e+11
-7.95694e+10
3.00015e+10
8.69357e+09
1.4823e+08
-2.85559e+09
-1.11118e+08
-1.4233e+19
-2.94342e+18
-1.65651e+17
3.33817e+16
5.70334e+14
-6.0073e+14
7.95646e+13
2.63033e+13
7.13496e+11
-9.4936e+10
1.4701e+10
-2.61814e+09
-2.66096e+09
-1.44575e+09
-3.8911e+07
-1.30591e+19
-2.82296e+18
-1.7964e+17
3.08314e+16
1.01175e+15
-5.88623e+14
6.50599e+13
2.58234e+13
9.36363e+11
-9.39637e+10
1.31982e+10
-1.68293e+09
-1.78517e+09
-5.15097e+08
2.02707e+07
-1.19711e+19
-2.70315e+18
-1.92937e+17
2.80737e+16
1.43614e+15
-5.6889e+14
5.07881e+13
2.51051e+13
1.1454e+12
-8.9352e+10
1.1842e+10
-2.60381e+08
-8.43239e+08
-1.03757e+08
3.46171e+07
-1.09669e+19
-2.59652e+18
-2.03344e+17
2.51071e+16
1.82597e+15
-5.41721e+14
3.70862e+13
2.41712e+13
1.3327e+12
-8.18393e+10
9.4861e+09
3.23525e+08
-4.59417e+08
-8.38234e+06
2.2275e+07
-1.00707e+19
-2.47071e+18
-2.02298e+17
2.19829e+16
2.12595e+15
-5.07793e+14
2.44339e+13
2.30589e+13
1.49126e+12
-7.13175e+10
7.12564e+09
4.6003e+08
-3.4101e+08
-1.07977e+07
7.26568e+06
-9.0113e+18
-2.05695e+18
-1.73251e+17
1.65625e+16
2.14336e+15
-4.60794e+14
1.43687e+13
2.1753e+13
1.61133e+12
-5.86532e+10
5.40614e+09
6.06657e+08
-2.3847e+08
-1.11874e+07
2.94193e+06
-6.3316e+18
-1.54219e+18
-1.48176e+17
1.17353e+16
1.95882e+15
-3.65453e+14
5.43927e+12
1.92332e+13
1.6879e+12
-4.63411e+10
4.06947e+09
8.10898e+08
-2.44225e+08
-1.58955e+07
1.61827e+06
-4.51788e+18
-1.26126e+18
-1.37257e+17
8.86859e+15
1.86189e+15
-2.90541e+14
-3.65853e+12
1.68729e+13
1.79497e+12
-3.36517e+10
2.55451e+09
1.02415e+09
-2.92493e+08
-2.46534e+07
1.1483e+06
-3.84261e+18
-1.13869e+18
-1.32877e+17
6.98203e+15
1.8846e+15
-2.53224e+14
-1.18595e+13
1.54487e+13
1.93817e+12
-1.83427e+10
8.58661e+08
1.18741e+09
-2.96579e+08
-3.34554e+07
945568
-3.38583e+18
-1.0674e+18
-1.3362e+17
5.40548e+15
1.95314e+15
-2.20104e+14
-1.8755e+13
1.42661e+13
2.09157e+12
5.92382e+08
-8.56858e+08
1.30239e+09
-2.68231e+08
-4.01931e+07
701529
-3.00925e+18
-1.00278e+18
-1.34103e+17
3.77613e+15
2.00828e+15
-1.83365e+14
-2.50659e+13
1.30802e+13
2.24476e+12
2.31715e+10
-2.47861e+09
1.36154e+09
-2.22668e+08
-4.4651e+07
326726
-2.68552e+18
-9.39631e+17
-1.34028e+17
2.04642e+15
2.04458e+15
-1.42389e+14
-3.08343e+13
1.17655e+13
2.38737e+12
4.92775e+10
-3.8961e+09
1.38396e+09
-1.75959e+08
-4.85122e+07
-178208
-2.38693e+18
-8.73871e+17
-1.32987e+17
2.60386e+14
2.05528e+15
-9.734e+13
-3.58799e+13
1.02892e+13
2.51517e+12
7.90328e+10
-5.04819e+09
1.34246e+09
-1.2402e+08
-5.08578e+07
-786321
-2.10064e+18
-8.03636e+17
-1.31241e+17
-1.55078e+15
2.03426e+15
-4.86045e+13
-3.99449e+13
8.66835e+12
2.62964e+12
1.13005e+11
-5.85993e+09
1.23502e+09
-6.87826e+07
-5.03927e+07
-1.41104e+06
-1.82997e+18
-7.32235e+17
-1.29012e+17
-3.36798e+15
1.97755e+15
3.17078e+12
-4.27711e+13
6.91154e+12
2.73117e+12
1.52262e+11
-6.2525e+09
1.08988e+09
-1.87913e+07
-4.88018e+07
-1.99423e+06
-1.57897e+18
-6.62028e+17
-1.26218e+17
-5.17481e+15
1.87907e+15
5.70367e+13
-4.41541e+13
5.02597e+12
2.8152e+12
1.97809e+11
-6.12441e+09
9.1184e+08
2.67846e+07
-4.71486e+07
-2.54155e+06
-1.35219e+18
-5.96197e+17
-1.23049e+17
-6.96317e+15
1.73628e+15
1.11675e+14
-4.38925e+13
3.01347e+12
2.87316e+12
2.49806e+11
-5.28317e+09
6.94013e+08
7.09669e+07
-4.56057e+07
-3.10595e+06
-1.14972e+18
-5.34825e+17
-1.19264e+17
-8.71046e+15
1.54648e+15
1.65565e+14
-4.17448e+13
8.86805e+11
2.89365e+12
3.0875e+11
-3.45644e+09
4.28541e+08
1.16391e+08
-4.42552e+07
-3.78433e+06
-9.74005e+17
-4.77603e+17
-1.14942e+17
-1.04114e+16
1.30661e+15
2.17097e+14
-3.74934e+13
-1.32114e+12
2.86214e+12
3.74947e+11
-2.81042e+08
9.63133e+07
1.62667e+08
-4.20857e+07
-4.58125e+06
-8.25092e+17
-4.26707e+17
-1.10763e+17
-1.20932e+16
1.01298e+15
2.64308e+14
-3.08991e+13
-3.56095e+12
2.75676e+12
4.5129e+11
4.67299e+09
-2.98065e+08
2.02889e+08
-3.77351e+07
-5.33585e+06
-6.97294e+17
-3.82737e+17
-1.07085e+17
-1.37659e+16
6.60844e+14
3.05089e+14
-2.17679e+13
-5.76503e+12
2.55843e+12
5.35878e+11
1.19395e+10
-7.28271e+08
2.34763e+08
-3.17654e+07
-6.02691e+06
-5.84414e+17
-3.42531e+17
-1.03356e+17
-1.53679e+16
2.46856e+14
3.36604e+14
-9.86514e+12
-7.83244e+12
2.25484e+12
6.25728e+11
2.21174e+10
-1.16492e+09
2.56152e+08
-2.41987e+07
-6.65647e+06
-4.82952e+17
-3.01366e+17
-9.82007e+16
-1.67893e+16
-2.27861e+14
3.55197e+14
5.0303e+12
-9.62511e+12
1.82363e+12
7.21365e+11
3.6157e+10
-1.53938e+09
2.53902e+08
-1.46285e+07
-7.06362e+06
-3.94095e+17
-2.58929e+17
-9.08747e+16
-1.79938e+16
-7.60245e+14
3.56649e+14
2.2997e+13
-1.09222e+13
1.23655e+12
8.17659e+11
5.55557e+10
-1.74616e+09
2.26015e+08
-4.30805e+06
-7.36848e+06
-3.21536e+17
-2.21179e+17
-8.35981e+16
-1.8965e+16
-1.34611e+15
3.35868e+14
4.38112e+13
-1.13929e+13
4.68097e+11
9.07218e+11
8.2556e+10
-1.70178e+09
1.82325e+08
7.12378e+06
-7.94232e+06
-2.62989e+17
-1.92544e+17
-7.84931e+16
-1.9777e+16
-1.98635e+15
2.8748e+14
6.6754e+13
-1.06402e+13
-4.80182e+11
9.73566e+11
1.19707e+11
-1.11196e+09
1.06395e+08
2.27879e+07
-8.94802e+06
-2.13882e+17
-1.69535e+17
-7.44649e+16
-2.0499e+16
-2.68651e+15
2.04823e+14
9.01588e+13
-8.22381e+12
-1.5668e+12
9.93872e+11
1.69839e+11
6.90138e+08
-3.82369e+07
4.48004e+07
-1.01487e+07
-1.7252e+17
-1.46875e+17
-6.95574e+16
-2.1144e+16
-3.4495e+15
7.93084e+13
1.10537e+14
-3.78469e+12
-2.7045e+12
9.34518e+11
2.34225e+11
4.891e+09
-2.85743e+08
7.33133e+07
-1.08419e+07
-1.37965e+17
-1.25445e+17
-6.42494e+16
-2.17539e+16
-4.28136e+15
-9.64396e+13
1.24594e+14
2.82398e+12
-3.74681e+12
7.59779e+11
3.09141e+11
1.3671e+10
-6.45838e+08
1.03081e+08
-9.3865e+06
-1.08947e+17
-1.06929e+17
-5.95031e+16
-2.23057e+16
-5.17138e+15
-3.25257e+14
1.29439e+14
1.15562e+13
-4.47262e+12
4.45557e+11
3.83366e+11
2.86526e+10
-9.8986e+08
1.14924e+08
-3.2687e+06
-8.46683e+16
-9.09634e+16
-5.51646e+16
-2.26673e+16
-6.05267e+15
-6.01416e+14
1.21056e+14
2.20651e+13
-4.59051e+12
-9.81549e+09
4.38877e+11
5.09666e+10
-1.01695e+09
7.97261e+07
9.84929e+06
-6.4466e+16
-7.7013e+16
-5.10766e+16
-2.2788e+16
-6.78185e+15
-9.13005e+14
9.51254e+13
3.34445e+13
-3.81658e+12
-5.63831e+11
4.55509e+11
8.06935e+10
-1.57554e+08
-4.25103e+07
3.14012e+07
-4.78154e+16
-6.4169e+16
-4.67276e+16
-2.24686e+16
-7.31315e+15
-1.24328e+15
4.87846e+13
4.37941e+13
-1.98842e+12
-1.13355e+12
4.18497e+11
1.16165e+11
2.71938e+09
-3.01069e+08
5.76468e+07
-3.44766e+16
-5.19266e+16
-4.178e+16
-2.15366e+16
-7.71705e+15
-1.5753e+15
-1.75922e+13
5.14658e+13
8.89713e+11
-1.62995e+12
3.22772e+11
1.4952e+11
7.58536e+09
-6.04489e+08
6.93903e+07
-2.44311e+16
-4.07959e+16
-3.62586e+16
-2.02048e+16
-8.01256e+15
-1.89512e+15
-1.0099e+14
5.39743e+13
4.68793e+12
-1.95739e+12
1.73872e+11
1.65582e+11
1.35353e+10
-8.2593e+08
5.14091e+07
-1.72164e+16
-3.15769e+16
-3.08048e+16
-1.88236e+16
-8.20294e+15
-2.1934e+15
-1.96641e+14
5.10505e+13
8.57558e+12
-2.02914e+12
1.79902e+09
1.6839e+11
2.01221e+10
-8.9926e+08
6.77885e+06
-1.21606e+16
-2.44578e+16
-2.61477e+16
-1.75301e+16
-8.31435e+15
-2.47013e+15
-3.00291e+14
4.29289e+13
1.19411e+13
-1.75045e+12
-1.68661e+11
1.59623e+11
2.39406e+10
-8.55246e+08
-1.33987e+08
-8.6307e+15
-1.90938e+16
-2.232e+16
-1.63018e+16
-8.38025e+15
-2.73285e+15
-4.10565e+14
3.07684e+13
1.47943e+13
-1.27673e+12
-2.86379e+11
1.31328e+11
2.28274e+10
-2.94498e+08
-1.25607e+08
-6.11342e+15
-1.49836e+16
-1.9209e+16
-1.5202e+16
-8.4169e+15
-2.99066e+15
-5.28656e+14
1.56915e+13
1.70009e+13
-7.78376e+11
-3.5878e+11
1.03388e+11
2.03481e+10
8.72332e+06
-6.554e+07
-4.30306e+15
-1.17432e+16
-1.65808e+16
-1.42127e+16
-8.41214e+15
-3.23224e+15
-6.54044e+14
-2.82457e+12
1.91535e+13
-2.81872e+11
-4.30092e+11
8.61971e+10
1.94315e+10
1.47127e+08
-5.26271e+07
-2.97139e+15
-9.10164e+15
-1.41758e+16
-1.32021e+16
-8.31952e+15
-3.43042e+15
-7.79021e+14
-2.55173e+13
2.10808e+13
2.78907e+11
-4.92084e+11
7.4684e+10
1.99134e+10
2.66317e+08
-5.33286e+07
-2.01278e+15
-6.95502e+15
-1.19917e+16
-1.21809e+16
-8.15181e+15
-3.59281e+15
-9.01848e+14
-5.2638e+13
2.2346e+13
9.34052e+11
-5.47441e+11
6.47876e+10
2.08747e+10
4.08766e+08
-5.61313e+07
-1.33102e+15
-5.25074e+15
-1.01187e+16
-1.12239e+16
-7.96228e+15
-3.75223e+15
-1.03529e+15
-8.48071e+13
2.29335e+13
1.68399e+12
-5.91195e+11
5.45156e+10
2.14245e+10
5.7282e+08
-4.5122e+07
-8.53415e+14
-3.90214e+15
-8.48449e+15
-1.02219e+16
-7.76025e+15
-3.91244e+15
-1.18575e+15
-1.24094e+14
2.27074e+13
2.52481e+12
-6.13512e+11
4.27035e+10
2.07998e+10
7.24501e+08
-3.81805e+06
-5.34516e+14
-2.82897e+15
-6.93296e+15
-9.15649e+15
-7.53074e+15
-4.07465e+15
-1.34815e+15
-1.72111e+14
2.13092e+13
3.43411e+12
-6.10723e+11
3.05232e+10
1.8971e+10
8.34069e+08
6.79043e+07
-3.25295e+14
-2.00049e+15
-5.51499e+15
-8.11955e+15
-7.32012e+15
-4.24428e+15
-1.52425e+15
-2.29749e+14
1.83019e+13
4.3608e+12
-5.84264e+11
1.98576e+10
1.62422e+10
9.02849e+08
1.85909e+08
-1.86675e+14
-1.38213e+15
-4.3303e+15
-7.16032e+15
-7.10007e+15
-4.40404e+15
-1.71356e+15
-2.97849e+14
1.32548e+13
5.23417e+12
-5.32688e+11
1.23208e+10
1.27989e+10
9.30697e+08
3.67431e+08
-9.74113e+13
-9.17721e+14
-3.32184e+15
-6.22903e+15
-6.78538e+15
-4.53916e+15
-1.91708e+15
-3.77388e+14
5.7284e+12
5.94076e+12
-4.52947e+11
9.15369e+09
8.84309e+09
7.00098e+08
4.40631e+08
-4.32648e+13
-5.72126e+14
-2.45579e+15
-5.2758e+15
-6.37285e+15
-4.64243e+15
-2.13951e+15
-4.72449e+14
-4.67177e+12
6.16141e+12
-3.38334e+11
9.17751e+09
4.03476e+09
3.19004e+08
4.1896e+08
-1.42932e+13
-3.28027e+14
-1.73121e+15
-4.33264e+15
-5.8594e+15
-4.69098e+15
-2.3657e+15
-5.83533e+14
-1.81285e+13
5.83621e+12
-2.14773e+11
8.74919e+09
1.10201e+09
2.00104e+08
4.07704e+08
-1.70559e+12
-1.66909e+14
-1.14317e+15
-3.42001e+15
-5.23559e+15
-4.66442e+15
-2.58843e+15
-7.03441e+14
-3.50712e+13
5.43896e+12
-1.13923e+11
4.15661e+09
1.52873e+09
-2.31002e+07
4.57654e+08
1.92295e+12
-7.06859e+13
-6.87589e+14
-2.56322e+15
-4.52943e+15
-4.55965e+15
-2.80927e+15
-8.16619e+14
-5.69556e+13
6.79943e+12
-7.73223e+10
7.58282e+09
2.62445e+09
1.99434e+09
1.73466e+09
1.48409e+12
-2.06798e+13
-3.54452e+14
-1.78856e+15
-3.7781e+15
-4.37637e+15
-3.02218e+15
-9.03285e+14
-8.47994e+13
1.04062e+13
-2.29074e+11
-5.57106e+09
-1.38507e+10
-6.19552e+09
-1.02804e+08
-1.95601e+11
-2.13873e+12
-1.34938e+14
-1.11206e+15
-3.00659e+15
-4.11041e+15
-3.21957e+15
-9.67184e+14
-1.15136e+14
4.66434e+12
1.621e+11
2.91804e+10
6.58302e+10
2.56075e+10
5.91891e+09
-1.11824e+12
-1.75395e+12
-1.90093e+13
-5.50781e+14
-2.22436e+15
-3.74791e+15
-3.39139e+15
-1.06508e+15
-1.60448e+14
-1.80036e+13
2.91837e+12
1.15036e+12
1.17984e+12
9.10933e+11
3.61255e+11
-1.36407e+12
-3.82023e+12
1.2098e+13
-1.36073e+14
-1.4437e+15
-3.27739e+15
-3.5124e+15
-1.18553e+15
-2.04414e+14
-6.22761e+13
-2.43765e+13
-2.27822e+13
-3.29194e+13
-4.1781e+13
-2.42614e+13
-2.95516e+12
-5.99967e+12
9.74267e+12
7.45392e+13
-7.10139e+14
-2.7101e+15
-3.54846e+15
-1.27174e+15
-2.08261e+14
-6.59123e+13
-8.92797e+13
-8.22626e+13
-1.05455e+14
-8.36159e+13
-4.6027e+13
-1.67343e+13
-5.26324e+12
2.55336e+13
8.38127e+13
-1.86079e+14
-2.08338e+15
-3.43575e+15
-1.32448e+15
-2.02944e+14
-4.58105e+12
-1.83786e+13
-3.90902e+13
-3.69234e+13
-3.15567e+13
-4.40582e+13
4.32414e+14
1.99158e+14
9.8995e+13
6.80572e+13
-1.74861e+14
-1.43745e+15
-3.11636e+15
-1.34528e+15
-2.32197e+14
7.80152e+10
-3.20082e+11
-3.43923e+12
-5.41951e+12
-9.64668e+12
-3.75868e+13
-1.76977e+15
-8.43022e+14
-2.04854e+14
-1.08756e+13
-5.3831e+14
-1.68904e+15
-2.7031e+15
-1.30876e+15
-3.1948e+14
-1.25439e+14
-4.90814e+13
-2.31685e+13
-1.48536e+13
-1.07872e+13
-3.05584e+13
-4.02325e+16
-1.25582e+16
-6.29189e+15
-4.15708e+15
-2.76506e+15
-3.03575e+15
-3.47253e+15
-1.24322e+15
-4.64054e+14
-2.05556e+14
-8.87034e+13
-4.11116e+13
-2.21885e+13
-1.23602e+13
-2.61359e+13
-2.38847e+17
-7.1508e+16
-5.10153e+16
-3.26262e+16
-2.19825e+16
-1.42761e+16
-7.84522e+15
-3.81082e+15
-1.43842e+15
-5.26421e+14
-1.99348e+14
-8.19742e+13
-3.7509e+13
-1.77116e+13
-2.17344e+13
1.16301e+19
2.14665e+18
4.67041e+17
1.1402e+17
1.91579e+16
-6.61761e+15
-9.90156e+15
-5.73653e+15
-2.55515e+15
-9.89984e+14
-3.78229e+14
-1.52013e+14
-6.58788e+13
-3.08773e+13
-4.39623e+13
-1.06345e+20
-6.18564e+18
2.68308e+18
1.36335e+18
5.49546e+17
1.55881e+17
1.8161e+16
-2.25367e+15
-2.15368e+15
-9.01156e+14
-2.90451e+14
-6.43224e+13
1.9519e+12
9.12658e+12
7.32877e+12
-2.72212e+18
-9.17717e+19
-2.14572e+19
-2.34714e+18
4.28387e+17
2.34596e+17
3.64078e+16
7.36456e+13
-1.66391e+15
-1.04181e+15
-6.21115e+14
-3.74054e+14
-2.04654e+14
-8.8601e+13
-1.35808e+13
8.77141e+21
2.77713e+20
-1.13619e+20
-5.93107e+18
-9.21477e+17
4.14136e+16
2.71619e+16
-1.95041e+15
-4.12051e+15
-1.64688e+15
-5.16839e+14
-1.04027e+14
-2.38357e+13
-3.99005e+13
-5.31174e+13
5.95485e+22
9.65756e+21
2.74458e+20
-1.28454e+20
1.91745e+19
-3.00643e+17
3.77163e+17
4.8212e+17
4.30781e+17
3.62997e+17
2.89084e+17
2.09489e+17
1.30418e+17
6.43343e+16
2.40863e+16
-1.23799e+24
6.3734e+22
8.99496e+21
-2.22609e+20
-8.94316e+19
2.58661e+19
4.88425e+18
4.35751e+18
3.40997e+18
2.4885e+18
1.75948e+18
1.19835e+18
7.51486e+17
4.09021e+17
1.53388e+17
8.24541e+24
-1.11256e+24
6.27651e+22
8.17798e+21
-1.87362e+20
-7.78697e+19
2.33312e+19
-1.12223e+18
-3.54759e+18
-4.79809e+18
-4.92654e+18
-4.02764e+18
-2.52549e+18
-1.05593e+18
-3.20241e+17
-4.49953e+24
7.07962e+24
-1.02168e+24
6.10438e+22
7.84031e+21
-2.80111e+20
-1.28835e+20
6.65855e+17
4.34503e+17
1.31515e+19
1.81478e+19
1.65182e+19
1.11006e+19
5.26588e+18
1.94694e+18
-3.91005e+26
-5.89812e+23
6.27592e+24
-9.63172e+23
6.02365e+22
8.24848e+21
1.52289e+20
1.9257e+20
2.10029e+20
1.15198e+20
6.22944e+19
3.25295e+19
1.71878e+19
1.06068e+19
4.82398e+18
-2.759e+27
-3.62821e+26
1.61138e+24
5.76928e+24
-9.32179e+23
4.31492e+22
-8.43382e+21
-1.69051e+22
-1.64482e+22
-1.50343e+22
-1.30008e+22
-1.04422e+22
-7.51038e+21
-4.65429e+21
-2.28602e+21
1.63526e+29
-7.40888e+27
-1.01297e+27
-4.24412e+24
1.6979e+25
-3.52138e+24
-4.74132e+23
-4.79504e+23
-4.01921e+23
-3.0634e+23
-2.21855e+23
-1.60122e+23
-1.12088e+23
-7.74931e+22
-5.86105e+22
-1.27583e+30
1.53208e+29
-6.66038e+27
-1.00468e+27
-1.73665e+25
1.6246e+25
-4.58212e+24
-1.15888e+24
-9.17627e+23
-7.34515e+23
-5.11615e+23
-3.25561e+23
-2.10169e+23
-1.47171e+23
-9.00971e+22
1.7072e+30
-1.09997e+30
1.42581e+29
-6.39206e+27
-1.08953e+27
-2.91132e+25
1.82832e+25
-2.14343e+24
5.10845e+23
3.9068e+23
1.93757e+23
4.49612e+22
-3.80786e+22
-5.7377e+22
-3.66352e+22
7.02722e+31
9.54642e+29
-9.94893e+29
1.30972e+29
5.21385e+26
-1.7071e+27
-7.80487e+25
7.70146e+25
3.4474e+25
1.88765e+25
1.12974e+25
5.83051e+24
2.57078e+24
8.94983e+23
4.05782e+23
3.05254e+32
6.65579e+31
5.50384e+29
-8.8629e+29
1.20186e+29
-4.4452e+27
-4.28245e+26
1.09648e+26
7.27542e+25
3.59511e+25
2.31647e+25
1.48621e+25
8.92975e+24
4.44942e+24
2.21493e+24
7.18768e+31
5.97433e+29
-9.76023e+29
1.47103e+29
-3.77339e+27
-1.92683e+26
3.15468e+26
1.899e+26
8.76114e+25
4.64636e+25
2.45909e+25
1.53557e+25
1.17516e+25
7.72218e+24
4.47189e+24
1.83205e+30
-1.25587e+30
1.33545e+29
5.91213e+27
1.25678e+27
7.46438e+26
4.12327e+26
2.18129e+26
1.17945e+26
6.28792e+25
3.16242e+25
1.71681e+25
1.23153e+25
8.35622e+24
4.85116e+24
-9.32809e+29
-1.68899e+28
1.15592e+28
5.08083e+27
2.13528e+27
9.69608e+26
4.64246e+26
2.3408e+26
1.22632e+26
6.50824e+25
3.46987e+25
2.05102e+25
1.08674e+25
4.92928e+24
1.62715e+24
7.16899e+28
1.30682e+28
3.44418e+27
1.21253e+27
4.71381e+26
1.99784e+26
8.95886e+25
4.11999e+25
1.82395e+25
7.54698e+24
2.00348e+24
-5.16765e+23
-3.53332e+24
-1.65028e+24
-6.55071e+23
-1.15312e+27
-3.45549e+26
-2.30362e+26
-1.34819e+26
-8.31566e+25
-5.49321e+25
-3.79845e+25
-2.79254e+25
-2.83789e+25
-4.66605e+25
-7.81167e+24
2.81078e+24
3.20462e+23
4.5249e+22
2.61731e+22
-1.55735e+26
-4.77116e+25
-2.7826e+25
-1.91604e+25
-1.30407e+25
-9.00833e+24
-6.63573e+24
-5.09863e+24
-9.13931e+24
-3.57454e+25
-3.1589e+25
-1.12811e+25
-1.65958e+24
-6.87729e+23
-3.18958e+23
-1.68822e+25
-7.31667e+24
-1.87299e+24
-5.16638e+22
6.01339e+23
6.6108e+23
-3.4758e+23
-1.24372e+24
-1.25303e+24
-1.741e+25
-2.6945e+25
-1.8404e+25
-1.09333e+25
-6.4556e+24
-3.73482e+24
5.0756e+24
1.96937e+24
7.98034e+23
4.03364e+23
2.36588e+23
1.27344e+23
6.47943e+22
2.03431e+22
-2.61247e+22
-2.02754e+23
-2.71293e+24
-4.00949e+24
-3.53766e+24
-2.68977e+24
-1.98066e+24
-5.15156e+23
-1.94587e+23
-9.63573e+22
-6.10511e+22
-4.45703e+22
-3.10562e+22
-1.37117e+22
2.38079e+20
6.76739e+21
3.45343e+22
-4.94609e+22
-1.15357e+23
-1.18411e+23
-1.0295e+23
-8.86688e+22
1.03548e+22
3.24729e+21
3.09988e+21
2.668e+21
2.41158e+21
1.96735e+21
6.09732e+20
-4.82295e+20
-9.00117e+20
-1.5249e+21
1.2517e+22
1.76335e+22
1.51151e+22
1.20526e+22
9.80404e+21
3.3236e+21
1.16749e+21
6.64576e+20
5.02465e+20
4.18468e+20
3.31691e+20
2.24788e+20
1.0805e+20
-1.13562e+20
-5.556e+20
-8.81983e+20
-5.01797e+20
-2.11826e+20
-9.44737e+19
-5.17552e+19
2.25523e+20
1.08781e+20
2.38368e+19
-6.27183e+18
-1.64305e+19
-1.37159e+19
7.29921e+18
2.84531e+19
4.0321e+19
1.97861e+19
-1.68972e+20
-2.49349e+20
-2.25801e+20
-1.81888e+20
-1.39888e+20
-9.34251e+19
-3.71987e+19
-1.53111e+19
-7.77391e+18
-4.53412e+18
-2.53544e+18
-9.97064e+17
1.62212e+18
8.55253e+18
2.34069e+19
4.20258e+19
3.94744e+19
3.06225e+19
2.31908e+19
1.75585e+19
1.05015e+19
3.96213e+18
1.99694e+18
1.28723e+18
9.21385e+17
5.67814e+17
1.49629e+17
-1.85816e+17
-2.47916e+17
5.32777e+17
2.47081e+18
3.09011e+18
2.70985e+18
2.1582e+18
1.66799e+18
-1.45168e+17
-5.35298e+16
-5.78253e+16
-4.96437e+16
-3.96538e+16
-2.00501e+16
6.90654e+15
7.03793e+15
-5.54555e+16
-2.08965e+17
-4.02417e+17
-4.01455e+17
-3.18385e+17
-2.32292e+17
-1.53191e+17
-6.60689e+16
-2.29512e+16
-1.42288e+16
-1.13781e+16
-9.48816e+15
-6.70422e+15
-2.13338e+15
4.84515e+15
1.41314e+16
1.95067e+16
1.61299e+16
1.01508e+16
9.6843e+15
1.57862e+16
3.04815e+16
-6.90952e+15
-2.96771e+15
-6.72934e+14
6.81735e+13
2.5019e+14
4.62302e+13
-4.70614e+14
-7.35984e+14
3.79454e+13
2.62847e+15
5.73984e+15
6.68099e+15
8.06458e+15
1.30104e+16
2.45734e+16
2.21853e+15
8.654e+14
3.6377e+14
1.94611e+14
1.19375e+14
6.46461e+13
9.51452e+11
-1.20426e+14
-3.64219e+14
-6.97828e+14
-8.41803e+14
-2.64072e+14
1.38327e+15
5.71869e+15
1.51802e+16
-2.04774e+14
-7.74651e+13
-4.1225e+13
-2.80058e+13
-2.05183e+13
-1.24064e+13
-2.56613e+12
4.69565e+12
1.25392e+12
-2.75994e+13
-7.45464e+13
-6.66115e+13
2.87127e+14
2.37155e+15
8.25403e+15
-2.31803e+12
-1.16214e+12
3.85662e+11
7.63788e+11
7.71847e+11
4.87657e+11
5.95504e+10
2.05635e+11
1.54892e+12
2.80379e+12
3.47711e+12
3.4128e+10
6.55243e+12
1.24832e+14
6.01123e+14
2.26058e+12
8.82808e+11
4.70267e+11
3.19762e+11
2.43134e+11
1.74854e+11
9.32884e+10
1.59427e+10
-3.42986e+11
-3.17614e+12
-6.69642e+12
-1.05114e+13
-1.58415e+13
-2.08759e+13
-1.36846e+13
9.88512e+09
9.65465e+09
-6.11038e+09
-1.1001e+10
-1.06698e+10
-4.94369e+09
1.49778e+10
8.36449e+10
-1.43134e+11
-3.63643e+12
-7.95697e+12
-1.22301e+13
-1.72395e+13
-2.37895e+13
-3.23715e+13
-2.77096e+10
-1.16154e+10
-5.1908e+09
-2.8611e+09
-1.80655e+09
-5.30874e+08
1.08141e+10
8.08967e+10
-1.70887e+11
-4.33285e+12
-9.29339e+12
-1.42718e+13
-1.9997e+13
-2.67578e+13
-3.43345e+13
2.4422e+09
9.63291e+08
5.75832e+08
4.22981e+08
3.45438e+08
8.44676e+08
1.19133e+10
9.13361e+10
-2.11174e+11
-4.73595e+12
-1.01651e+13
-1.61183e+13
-2.30568e+13
-3.11975e+13
-4.01038e+13
1.33141e+08
6.4061e+07
1.59754e+07
-1.89191e+06
4.87884e+06
5.92891e+08
1.2603e+10
1.06538e+11
-2.468e+11
-4.31724e+12
-9.51051e+12
-1.5744e+13
-2.34203e+13
-3.27397e+13
-4.34332e+13
-4.24811e+07
-1.86079e+07
-1.1185e+07
-9.60299e+06
821662
5.40818e+08
1.3065e+10
1.2515e+11
2.00411e+10
-3.0617e+12
-7.64936e+12
-1.32139e+13
-2.00954e+13
-2.86844e+13
-3.91158e+13
-85179.2
-925899
-1.58246e+06
-3.38222e+06
1.91654e+06
4.6058e+08
1.27312e+10
1.46687e+11
1.39192e+11
-1.59091e+12
-4.86732e+12
-8.84768e+12
-1.36129e+13
-1.94919e+13
-2.67277e+13
12502.3
-824926
-1.96064e+06
-4.17762e+06
-1.62252e+06
3.76632e+08
1.15366e+10
1.67592e+11
1.98511e+11
-4.44752e+11
-1.98131e+12
-4.12748e+12
-6.77257e+12
-9.94282e+12
-1.37632e+13
-645839
-1.26696e+06
-2.40788e+06
-4.82399e+06
-4.15903e+06
3.1815e+08
1.02085e+10
2.05343e+11
2.85636e+11
1.06e+11
-4.01804e+11
-1.24291e+12
-2.38023e+12
-3.78748e+12
-5.51854e+12
-672818
-1.45435e+06
-2.8144e+06
-5.56941e+06
-6.92681e+06
2.78671e+08
1.04426e+10
1.96902e+11
3.35063e+11
3.26125e+11
2.09927e+11
-1.93107e+10
-3.70466e+11
-8.50493e+11
-1.47863e+12
-796403
-1.74025e+06
-3.38299e+06
-6.58254e+06
-1.03668e+07
2.18191e+08
1.09472e+10
1.46425e+11
2.76997e+11
3.33404e+11
3.5145e+11
3.34272e+11
2.81623e+11
1.89403e+11
4.59301e+10
-928654
-2.05056e+06
-4.00759e+06
-7.68453e+06
-1.3546e+07
1.3036e+08
1.21676e+10
9.5483e+10
1.6721e+11
2.18061e+11
2.58073e+11
2.89362e+11
3.14105e+11
3.31756e+11
3.37572e+11
-1.06373e+06
-2.37042e+06
-4.65189e+06
-8.80553e+06
-1.58823e+07
4.51988e+07
8.66162e+09
4.56531e+10
7.55256e+10
1.00868e+11
1.23857e+11
1.46529e+11
1.70155e+11
1.94391e+11
2.17814e+11
-1.21555e+06
-2.73273e+06
-5.38553e+06
-1.00754e+07
-1.77035e+07
1.08491e+06
2.3212e+09
1.52455e+10
2.54619e+10
3.40732e+10
4.22183e+10
5.09035e+10
6.07359e+10
7.1576e+10
8.30312e+10
-1.38495e+06
-3.14667e+06
-6.25146e+06
-1.16339e+07
-1.95905e+07
-8.0289e+06
8.54668e+08
3.38928e+09
5.76846e+09
7.81258e+09
9.75453e+09
1.19449e+10
1.44645e+10
1.72637e+10
2.02957e+10
-1.56276e+06
-3.58084e+06
-7.16634e+06
-1.33473e+07
-2.25618e+07
-1.14749e+07
1.18492e+08
3.93789e+08
6.78528e+08
9.50448e+08
1.22633e+09
1.53653e+09
1.89029e+09
2.28485e+09
2.71872e+09
-1.72004e+06
-4.04236e+06
-8.33373e+06
-1.58684e+07
-2.78026e+07
-4.20203e+07
-5.2358e+07
-5.15634e+07
-4.38797e+07
-3.42577e+07
-2.32891e+07
-1.08392e+07
3.5514e+06
2.03729e+07
4.02747e+07
-1.51901e+06
-3.52473e+06
-7.05842e+06
-1.26159e+07
-2.03243e+07
-2.93814e+07
-3.71645e+07
-4.15207e+07
-4.37678e+07
-4.562e+07
-4.75183e+07
-4.971e+07
-5.21781e+07
-5.4764e+07
-5.73444e+07
-985022
-2.14969e+06
-3.9609e+06
-6.36489e+06
-9.01878e+06
-1.15195e+07
-1.3369e+07
-1.42989e+07
-1.46128e+07
-1.47602e+07
-1.49015e+07
-1.50474e+07
-1.51863e+07
-1.53032e+07
-1.54e+07
-420264
-838313
-1.38695e+06
-1.99977e+06
-2.55928e+06
-3.01397e+06
-3.32654e+06
-3.48597e+06
-3.53625e+06
-3.53814e+06
-3.52238e+06
-3.49213e+06
-3.44308e+06
-3.37389e+06
-3.28762e+06
-115566
-212870
-307328
-392924
-459358
-507123
-538033
-554213
-560146
-561155
-559800
-555864
-548527
-537441
-522937
-8181.9
-26619.4
-39834.7
-47626.6
-51208.1
-52469.2
-52405.9
-51652.8
-50746.5
-49929.5
-49160.2
-48319
-47317.5
-46120.9
-44720.2
8701.52
5195.57
1875.06
-158.356
-1279.46
-1830.1
-2034.22
-2050.35
-1986.53
-1891.74
-1779.42
-1657.74
-1534.51
-1416.63
-1300.41
4544.71
4198.36
3272.31
2486.53
1868.21
1404.8
1063.78
812.615
630.846
502.357
410.123
341.544
289.079
248.004
216.869
1004.25
1077.57
948.526
799.615
658.552
537.447
437.306
355.889
292.693
244.704
206.49
174.794
148.125
125.603
106.743
78.2961
108.62
110.962
103.388
91.7286
79.2919
67.5547
57.5227
49.5735
43.1842
37.7034
32.8429
28.5118
24.6695
21.2802
-10.0859
-5.58218
-1.87281
0.236276
1.33999
1.8567
2.04581
2.07934
2.04718
1.97063
1.85706
1.71913
1.56849
1.41456
1.26178
-3.29719
-2.80648
-2.10165
-1.57164
-1.1826
-0.900219
-0.693646
-0.544496
-0.436778
-0.355339
-0.2907
-0.238072
-0.194848
-0.159293
-0.130491
-0.480691
-0.396524
-0.295079
-0.223178
-0.171332
-0.133458
-0.105903
-0.0862916
-0.0718643
-0.0604873
-0.0510629
-0.0430883
-0.0362951
-0.0305084
-0.025637
-0.062012
-0.0475729
-0.0325624
-0.0229025
-0.0165532
-0.0123084
-0.00943145
-0.0074724
-0.006078
-0.00501171
-0.00415607
-0.00345419
-0.00287274
-0.00238923
-0.00199022
-0.0064698
-0.00520071
-0.00357446
-0.00247559
-0.00174478
-0.0012626
-0.000944404
-0.000731674
-0.000580077
-0.000464914
-0.00037439
-0.000302229
-0.00024432
-0.000197734
-0.000160403
-0.00023335
-0.000256216
-0.000203867
-0.000154053
-0.000114501
-8.62468e-05
-6.70246e-05
-5.35936e-05
-4.33934e-05
-3.5228e-05
-2.85939e-05
-2.31911e-05
-1.87916e-05
-1.52208e-05
-1.23247e-05
5.77438e-05
3.14428e-05
1.58135e-05
8.33344e-06
4.57955e-06
2.59258e-06
1.49502e-06
8.69496e-07
5.03736e-07
2.83932e-07
1.49289e-07
6.67764e-08
1.71468e-08
-1.19718e-08
-2.55154e-08
1.38625e-05
8.62047e-06
4.92901e-06
3.00206e-06
1.93016e-06
1.30707e-06
9.30456e-07
6.88888e-07
5.21786e-07
3.99775e-07
3.08267e-07
2.38714e-07
1.85444e-07
1.44466e-07
1.1318e-07
1.75099e-06
1.12181e-06
6.41855e-07
3.92533e-07
2.5421e-07
1.73978e-07
1.25095e-07
9.31485e-08
7.07093e-08
5.41892e-08
4.1751e-08
3.22827e-08
2.50279e-08
1.94534e-08
1.51856e-08
1.18319e-07
8.65474e-08
5.25178e-08
3.32558e-08
2.20593e-08
1.53941e-08
1.12063e-08
8.36772e-09
6.33187e-09
4.82133e-09
3.6814e-09
2.81605e-09
2.15717e-09
1.65581e-09
1.27486e-09
-2.15294e-09
-4.19769e-11
5.97491e-10
6.58244e-10
5.82676e-10
4.90021e-10
4.05061e-10
3.30899e-10
2.66884e-10
2.12696e-10
1.67938e-10
1.3159e-10
1.02414e-10
7.93775e-11
6.13091e-11
-9.9345e-10
-6.95733e-10
-4.02983e-10
-2.40733e-10
-1.50582e-10
-9.87076e-11
-6.7376e-11
-4.7387e-11
-3.38927e-11
-2.44246e-11
-1.76635e-11
-1.28006e-11
-9.29444e-12
-6.76682e-12
-4.97016e-12
-1.14762e-10
-6.87124e-11
-4.13764e-11
-2.60476e-11
-1.74187e-11
-1.22513e-11
-8.96058e-12
-6.73186e-12
-5.12004e-12
-3.90356e-12
-2.97029e-12
-2.25277e-12
-1.70375e-12
-1.28704e-12
-9.77177e-13
-3.21007e-11
-1.40175e-11
-6.05545e-12
-2.9849e-12
-1.65319e-12
-1.00368e-12
-6.5723e-13
-4.56149e-13
-3.28562e-13
-2.41437e-13
-1.79209e-13
-1.33744e-13
-1.00189e-13
-7.53445e-14
-5.73078e-14
-4.9356e-12
-2.61928e-12
-1.22096e-12
-6.43657e-13
-3.71024e-13
-2.28828e-13
-1.48714e-13
-1.00279e-13
-6.9037e-14
-4.80264e-14
-3.36191e-14
-2.3662e-14
-1.67547e-14
-1.19583e-14
-8.64759e-15
8.97631e-14
-4.35127e-14
-4.65865e-14
-3.70798e-14
-2.74219e-14
-2.00542e-14
-1.46972e-14
-1.07902e-14
-7.89736e-15
-5.7502e-15
-4.16827e-15
-3.01487e-15
-2.18242e-15
-1.58878e-15
-1.16723e-15
1.09054e-13
4.97973e-14
2.0813e-14
9.7643e-15
5.02723e-15
2.78077e-15
1.62938e-15
9.97656e-16
6.29023e-16
4.0386e-16
2.62649e-16
1.72752e-16
1.14808e-16
7.70095e-17
5.26287e-17
9.31681e-15
5.66637e-15
2.87877e-15
1.61685e-15
9.7838e-16
6.26493e-16
4.18099e-16
2.86661e-16
1.99292e-16
1.39414e-16
9.7905e-17
6.9047e-17
4.89781e-17
3.50631e-17
2.54284e-17
-5.89354e-16
-1.77037e-16
-3.92842e-17
5.30324e-19
1.12315e-17
1.27722e-17
1.14603e-17
9.4322e-18
7.41905e-18
5.67738e-18
4.27275e-18
3.18753e-18
2.37325e-18
1.77634e-18
1.33655e-18
-1.45594e-16
-7.87354e-17
-3.78616e-17
-1.97451e-17
-1.10955e-17
-6.65228e-18
-4.20656e-18
-2.76318e-18
-1.85801e-18
-1.26708e-18
-8.72573e-19
-6.05784e-19
-4.23998e-19
-2.99589e-19
-2.14717e-19
-1.14063e-17
-7.36745e-18
-3.7573e-18
-1.99731e-18
-1.15277e-18
-7.18717e-19
-4.74186e-19
-3.24134e-19
-2.25953e-19
-1.59187e-19
-1.12919e-19
-8.05753e-20
-5.78889e-20
-4.19501e-20
-3.07325e-20
-2.80975e-18
-1.17818e-18
-4.14875e-19
-1.6454e-19
-7.79819e-20
-4.32081e-20
-2.63036e-20
-1.70262e-20
-1.14468e-20
-7.86238e-21
-5.47566e-21
-3.85739e-21
-2.74742e-21
-1.97995e-21
-1.44539e-21
-8.13268e-19
-2.02403e-19
-5.70589e-20
-2.15978e-20
-1.08844e-20
-6.0446e-21
-3.507e-21
-2.1112e-21
-1.29787e-21
-8.07761e-22
-5.08401e-22
-3.23615e-22
-2.08262e-22
-1.3591e-22
-8.94335e-23
-1.72371e-20
1.40828e-20
6.3809e-21
1.66622e-21
2.80101e-22
-6.26243e-24
-6.4187e-23
-6.33834e-23
-4.80094e-23
-3.31456e-23
-2.21585e-23
-1.46426e-23
-9.63472e-24
-6.34989e-24
-3.87372e-24
5.6921e-20
1.28981e-20
3.6469e-21
1.20836e-21
5.6056e-22
3.0408e-22
1.77341e-22
1.09282e-22
6.98163e-23
4.56572e-23
3.03558e-23
2.04333e-23
1.39046e-23
9.57231e-24
6.70921e-24
1.09245e-20
1.88147e-21
3.63379e-22
1.51686e-22
8.7749e-23
5.09852e-23
3.11061e-23
1.9838e-23
1.30151e-23
8.72433e-24
5.95467e-24
4.12093e-24
2.88294e-24
2.03753e-24
1.45254e-24
-2.1781e-21
-3.17169e-22
-5.65442e-23
2.98602e-24
6.09505e-24
3.97306e-24
2.4128e-24
1.45348e-24
8.85411e-25
5.52041e-25
3.53134e-25
2.30622e-25
1.53493e-25
1.04523e-25
7.17009e-26
-8.35927e-22
-1.55994e-22
-2.58064e-23
-6.00517e-24
-2.08804e-24
-7.81263e-25
-2.99899e-25
-1.15899e-25
-4.28916e-26
-1.3883e-26
-3.30883e-27
-2.37746e-28
2.10344e-28
-1.58563e-28
-9.14059e-28
4.93083e-23
1.16297e-24
-9.28603e-25
-1.48994e-24
-9.55751e-25
-5.45271e-25
-3.10382e-25
-1.79027e-25
-1.04895e-25
-6.25399e-26
-3.79303e-26
-2.3337e-26
-1.45515e-26
-9.23267e-27
-5.94333e-27
4.28273e-23
9.12361e-24