/*--------------------------------*- C++ -*----------------------------------*\
  =========                 |
  \\      /  F ield         | OpenFOAM: The Open Source CFD Toolbox
   \\    /   O peration     | Website:  https://openfoam.org
    \\  /    A nd           | Version:  7
     \\/     M anipulation  |
\*---------------------------------------------------------------------------*/
FoamFile
{
    version     2.0;
    format      ascii;
    class       volVectorField;
    location    "1.2";
    object      U;
}
// * * * * * * * * * * * * * * * * * * * * * * * * * * * * * * * * * * * * * //

dimensions      [0 1 -1 0 0 0 0];

internalField   nonuniform List<vector> 
32100
(
(-74.7591 -8.70708e-10 -2237.57)
(-191.02 -2.47655e-09 -2199.73)
(-304.462 -4.10417e-09 -2112.9)
(-417.284 -5.73464e-09 -1970.96)
(-511.668 -7.36671e-09 -1782.39)
(-589.339 -8.99935e-09 -1548.15)
(-646.375 -1.06322e-08 -1269.25)
(-678.383 -1.22648e-08 -947.557)
(-682.209 -1.38975e-08 -583.689)
(-652.429 -1.55301e-08 -175.097)
(-575.177 -1.71624e-08 281.618)
(-421.834 -1.87946e-08 780.699)
(-124.291 -2.04265e-08 1283.47)
(463.093 -2.20584e-08 1608.44)
(1786.66 -2.36901e-08 1360.52)
(-75.5075 -8.70769e-10 -1914.04)
(-202.259 -2.47644e-09 -1885.24)
(-325.52 -4.10356e-09 -1808.15)
(-444.572 -5.73458e-09 -1691.75)
(-550.159 -7.36678e-09 -1535.61)
(-640.935 -8.99949e-09 -1340.46)
(-713.546 -1.06323e-08 -1107.11)
(-764.27 -1.22648e-08 -836.241)
(-789.815 -1.38975e-08 -527.279)
(-784.911 -1.55301e-08 -179.159)
(-738.725 -1.71625e-08 209.249)
(-633.046 -1.87946e-08 636.996)
(-438.501 -2.04266e-08 1104.45)
(-124.686 -2.20584e-08 1683.98)
(-121.149 -2.36902e-08 2582.12)
(-80.8375 -8.70066e-10 -1959.46)
(-219.595 -2.47631e-09 -1929.67)
(-354.704 -4.10354e-09 -1854.24)
(-484.667 -5.7345e-09 -1738.71)
(-604.393 -7.36679e-09 -1583.59)
(-711.449 -8.99956e-09 -1389.47)
(-803.125 -1.06322e-08 -1156.68)
(-876.556 -1.22649e-08 -885.382)
(-928.753 -1.38976e-08 -575.043)
(-955.876 -1.55301e-08 -224.477)
(-953.101 -1.71625e-08 168.095)
(-912.939 -1.87946e-08 606.438)
(-836.138 -2.04266e-08 1106.49)
(-751.987 -2.20585e-08 1733.99)
(-792.238 -2.36902e-08 2592.19)
(-88.9176 -8.70136e-10 -2008.54)
(-241.622 -2.47627e-09 -1978.5)
(-391.238 -4.10348e-09 -1904.22)
(-536.883 -5.73445e-09 -1791.14)
(-673.817 -7.3668e-09 -1638.17)
(-800.224 -8.99955e-09 -1446.08)
(-913.892 -1.06323e-08 -1215.13)
(-1012.67 -1.22649e-08 -945.079)
(-1094.5 -1.38976e-08 -635.193)
(-1157.78 -1.55302e-08 -284.178)
(-1200.51 -1.71624e-08 110.86)
(-1226.57 -1.87945e-08 556.659)
(-1244.55 -2.04266e-08 1069.92)
(-1286.54 -2.20585e-08 1692.13)
(-1390.48 -2.36904e-08 2429.27)
(-98.4736 -8.69689e-10 -2083.17)
(-268.061 -2.47573e-09 -2053.84)
(-434.639 -4.10303e-09 -1980.93)
(-598.224 -5.73411e-09 -1868.98)
(-755.047 -7.36669e-09 -1716.65)
(-903.162 -8.99947e-09 -1525.31)
(-1040.92 -1.06322e-08 -1294.82)
(-1166.87 -1.22649e-08 -1024.69)
(-1279.9 -1.38977e-08 -713.909)
(-1379.21 -1.55302e-08 -360.7)
(-1468.21 -1.71624e-08 38.0477)
(-1551.57 -1.87946e-08 488.621)
(-1637.46 -2.04266e-08 1003.9)
(-1750.33 -2.20585e-08 1602.28)
(-1895.45 -2.36902e-08 2254.53)
(-109.235 -8.69098e-10 -2179.82)
(-297.21 -2.47511e-09 -2150.67)
(-482.166 -4.10263e-09 -2076.46)
(-667.167 -5.73399e-09 -1967.82)
(-845.729 -7.3667e-09 -1816.15)
(-1017.33 -8.99945e-09 -1624.77)
(-1180.66 -1.06322e-08 -1393.92)
(-1334.82 -1.22649e-08 -1122.91)
(-1479.39 -1.38977e-08 -810.599)
(-1615.28 -1.55302e-08 -455.101)
(-1746.56 -1.71624e-08 -53.3981)
(-1876.43 -1.87946e-08 399.098)
(-2012.61 -2.04267e-08 910.673)
(-2170.13 -2.20584e-08 1485.19)
(-2345.5 -2.36902e-08 2085.06)
(-121.263 -8.69842e-10 -2297.87)
(-330.034 -2.47575e-09 -2271.14)
(-536.065 -4.10228e-09 -2200.05)
(-741.906 -5.73343e-09 -2089.86)
(-943.916 -7.36668e-09 -1936.05)
(-1140.21 -8.99953e-09 -1743.92)
(-1330.1 -1.06323e-08 -1512.24)
(-1513.1 -1.22649e-08 -1239.96)
(-1689.16 -1.38976e-08 -925.681)
(-1860.29 -1.55302e-08 -567.907)
(-2029.11 -1.71625e-08 -164.575)
(-2198.34 -1.87947e-08 287.988)
(-2373.46 -2.04266e-08 794.314)
(-2563.07 -2.20584e-08 1350.38)
(-2763.49 -2.36898e-08 1919.12)
(-133.509 -8.67511e-10 -2433.95)
(-363.756 -2.47122e-09 -2407.45)
(-593.401 -4.1008e-09 -2340.08)
(-822.212 -5.73358e-09 -2228.31)
(-1048.29 -7.36667e-09 -2075.33)
(-1270.08 -8.99958e-09 -1882.31)
(-1487.09 -1.06324e-08 -1649.53)
(-1698.98 -1.22648e-08 -1375.81)
(-1906.2 -1.38975e-08 -1059.67)
(-2110.59 -1.55301e-08 -700.354)
(-2313.74 -1.71625e-08 -296.228)
(-2517.66 -1.87947e-08 155.574)
(-2725.38 -2.04266e-08 657.911)
(-2940.72 -2.20584e-08 1202.14)
(-3164.27 -2.36906e-08 1754.79)
(-146.543 -8.70249e-10 -2590.4)
(-397.259 -2.46984e-09 -2570.18)
(-651.914 -4.099e-09 -2504.02)
(-906.414 -5.73268e-09 -2389.73)
(-1157.52 -7.36675e-09 -2234.06)
(-1405.34 -8.99968e-09 -2039.68)
(-1649.86 -1.06325e-08 -1805.77)
(-1890.76 -1.22648e-08 -1530.59)
(-2128.51 -1.38973e-08 -1212.53)
(-2364.45 -1.55301e-08 -851.706)
(-2599.72 -1.71625e-08 -447.31)
(-2835.33 -1.87947e-08 3.75589)
(-3073.29 -2.04266e-08 503.116)
(-3311.84 -2.20582e-08 1041.34)
(-3558.46 -2.36896e-08 1587.05)
(-156.168 -8.52102e-10 -2756.25)
(-429.695 -2.45175e-09 -2746.18)
(-713.74 -4.09786e-09 -2683.93)
(-994.573 -5.73417e-09 -2567.64)
(-1270.96 -7.3671e-09 -2412.04)
(-1544.86 -8.9999e-09 -2215.89)
(-1817.11 -1.06327e-08 -1980.9)
(-2087.01 -1.22647e-08 -1704.35)
(-2354.53 -1.38972e-08 -1384.43)
(-2620.68 -1.553e-08 -1022.33)
(-2886.42 -1.71624e-08 -618.004)
(-3152.64 -1.87946e-08 -166.286)
(-3419.97 -2.04266e-08 331.965)
(-3680.05 -2.20583e-08 867.498)
(-3959.08 -2.369e-08 1411.28)
(-164.686 -8.02905e-10 -2930.21)
(-457.111 -2.39078e-09 -2935.78)
(-774.574 -4.09255e-09 -2878.72)
(-1085.44 -5.73551e-09 -2762.6)
(-1386.9 -7.36794e-09 -2607.16)
(-1687.37 -9.00028e-09 -2410.81)
(-1988.1 -1.06327e-08 -2176.21)
(-2287.04 -1.22646e-08 -1897.69)
(-2583.66 -1.38971e-08 -1575.33)
(-2878.83 -1.55299e-08 -1212.1)
(-3173.55 -1.71623e-08 -807.181)
(-3468.82 -1.87945e-08 -355.076)
(-3760.39 -2.04264e-08 139.413)
(-4048.52 -2.20578e-08 659.22)
(-4355.9 -2.36895e-08 1184.37)
(-168.438 -7.27025e-10 -3115.63)
(-469.534 -2.06701e-09 -3117.68)
(-804.888 -3.84178e-09 -3113.86)
(-1169.75 -5.71498e-09 -2993.58)
(-1503.83 -7.36818e-09 -2822.25)
(-1831.84 -9.00047e-09 -2623.12)
(-2161.75 -1.06325e-08 -2389.03)
(-2490.08 -1.22645e-08 -2108.01)
(-2815.65 -1.3897e-08 -1782.99)
(-3138.49 -1.55296e-08 -1416.42)
(-3459.6 -1.71621e-08 -1005.39)
(-3785.46 -1.87944e-08 -554.566)
(-4095.43 -2.04263e-08 -57.6321)
(-4391.56 -2.20577e-08 445.404)
(-4668.12 -2.36895e-08 880.857)
(-169.257 -7.26582e-10 -3309.26)
(-499.023 -2.08023e-09 -3376.34)
(-852.465 -3.84736e-09 -3533.46)
(-1257.25 -5.71331e-09 -3269.18)
(-1609.57 -7.36876e-09 -3066.38)
(-1976.37 -9.00043e-09 -2856)
(-2338.56 -1.06324e-08 -2621.8)
(-2696.94 -1.22643e-08 -2335.16)
(-3052.8 -1.3897e-08 -2007.02)
(-3413.38 -1.55285e-08 -1620.1)
(-3735.93 -1.71565e-08 -1075.99)
(-4014.79 -1.87889e-08 -596.076)
(-4401.07 -2.04252e-08 -239.2)
(-4639.13 -2.2055e-08 341.279)
(-4521.86 -2.36866e-08 693.024)
(-162.879 -7.40639e-10 -3711.95)
(-584.118 -2.2434e-09 -4551.46)
(-886.356 -3.98732e-09 -4962.57)
(-1271.14 -5.70709e-09 -4539.21)
(-1624.55 -7.36027e-09 -3958.04)
(-2113.55 -8.99923e-09 -3181.04)
(-2532.16 -1.06296e-08 -2952.96)
(-2920.94 -1.2263e-08 -2599.18)
(-3312.41 -1.38961e-08 -2254.73)
(-3762.1 -1.55243e-08 -1805.5)
(-4071.82 -1.7143e-08 -969.193)
(-4324.27 -1.87731e-08 -265.279)
(-4705.59 -2.04223e-08 -351.856)
(-4869.05 -2.20364e-08 1104.75)
(-4513.76 -2.36665e-08 1690.25)
(-361.887 -8.29547e-10 -6027.69)
(-862.992 -2.39094e-09 -6167.98)
(-1020.9 -4.047e-09 -6036.97)
(-1375.12 -5.71163e-09 -5728.12)
(-1710.02 -7.35304e-09 -5123.82)
(-2383.19 -8.98449e-09 -4443.27)
(-3011.66 -1.06148e-08 -3798.02)
(-3536.6 -1.22434e-08 -3185.92)
(-3979.32 -1.38721e-08 -2534.41)
(-4357.78 -1.55061e-08 -1880.32)
(-4681.46 -1.71295e-08 -917.524)
(-4968 -1.87566e-08 93.0865)
(-5198.6 -2.03897e-08 896.866)
(-5432.07 -2.20221e-08 1613.03)
(-5277.66 -2.36499e-08 2585.44)
(-349.989 -8.56622e-10 -7025.42)
(-911.774 -2.45133e-09 -7297.26)
(-1219.04 -4.08324e-09 -7181.83)
(-1626.99 -5.71764e-09 -6685.61)
(-2142.8 -7.34838e-09 -6012.14)
(-2828.92 -8.97812e-09 -5135.33)
(-3474.37 -1.06067e-08 -4384.59)
(-4043.93 -1.22335e-08 -3643.21)
(-4560.41 -1.38617e-08 -2854.5)
(-4986.27 -1.54947e-08 -2073.3)
(-5365.91 -1.71226e-08 -1071.93)
(-5741.76 -1.87503e-08 -2.51507)
(-6072.27 -2.03787e-08 1106.01)
(-6184.75 -2.20112e-08 1933.26)
(-6255.22 -2.36405e-08 3138.26)
(-319.509 -8.87748e-10 -7837.04)
(-934.645 -2.47255e-09 -7946.02)
(-1459 -4.09245e-09 -7775.1)
(-2012.77 -5.71897e-09 -7262.83)
(-2654.39 -7.34685e-09 -6530.33)
(-3341.78 -8.97522e-09 -5692.54)
(-4001.3 -1.06028e-08 -4890.1)
(-4604.73 -1.22285e-08 -4085.26)
(-5172.06 -1.3857e-08 -3210.56)
(-5659.68 -1.54889e-08 -2349.43)
(-6093.73 -1.7118e-08 -1309.96)
(-6548.04 -1.87452e-08 -167.312)
(-6957.31 -2.0373e-08 985.236)
(-7062.09 -2.20037e-08 2022.52)
(-7319.91 -2.36298e-08 3351.59)
(-351.811 -9.04861e-10 -8597.07)
(-1041.5 -2.4785e-09 -8554.76)
(-1701.4 -4.0956e-09 -8348.5)
(-2411.47 -5.71812e-09 -7803.03)
(-3145.71 -7.34537e-09 -7073.07)
(-3875.51 -8.97268e-09 -6232.03)
(-4553.44 -1.06007e-08 -5388.33)
(-5196.12 -1.2227e-08 -4533.08)
(-5818.98 -1.38541e-08 -3609.89)
(-6384.34 -1.54833e-08 -2677.43)
(-6853.1 -1.71145e-08 -1608.07)
(-7367.7 -1.87418e-08 -434.947)
(-7862.28 -2.0369e-08 783.489)
(-7982.4 -2.19982e-08 1987.81)
(-8337.1 -2.36258e-08 3394.19)
(-404.309 -9.13248e-10 -9347.77)
(-1186.89 -2.48166e-09 -9228.78)
(-1977.25 -4.09704e-09 -9015.06)
(-2809.5 -5.71767e-09 -8441.11)
(-3641.29 -7.34313e-09 -7702.87)
(-4442.69 -8.9699e-09 -6829.24)
(-5170.57 -1.05977e-08 -5937.6)
(-5821.27 -1.2225e-08 -5011.14)
(-6493.68 -1.38518e-08 -4039.42)
(-7126.96 -1.54807e-08 -3046.61)
(-7645.48 -1.71109e-08 -1929.22)
(-8203.19 -1.8738e-08 -681.937)
(-8698.67 -2.03645e-08 592.77)
(-8964.16 -2.19918e-08 1933.51)
(-9367.53 -2.36171e-08 3416.16)
(-455.666 -9.06412e-10 -10107.7)
(-1335.14 -2.48239e-09 -9976.85)
(-2246.83 -4.09657e-09 -9803.41)
(-3223.69 -5.71512e-09 -9217.49)
(-4173.54 -7.34018e-09 -8416.3)
(-5054 -8.96648e-09 -7497.45)
(-5846.42 -1.05935e-08 -6558.95)
(-6531.67 -1.222e-08 -5566.01)
(-7239.72 -1.38482e-08 -4505.22)
(-7924.84 -1.54781e-08 -3440.89)
(-8499.85 -1.7107e-08 -2279.5)
(-9122.41 -1.87318e-08 -924.95)
(-9723.21 -2.03564e-08 446.606)
(-9987.43 -2.19854e-08 1832.96)
(-10459.1 -2.36093e-08 3360.53)
(-500.76 -9.01705e-10 -11006.5)
(-1479.11 -2.48304e-09 -10908.7)
(-2544.45 -4.09269e-09 -10758.3)
(-3682.75 -5.71128e-09 -10106.1)
(-4755.01 -7.33587e-09 -9239.63)
(-5721.32 -8.96153e-09 -8262.33)
(-6602.65 -1.05867e-08 -7265.71)
(-7337.46 -1.22126e-08 -6176.13)
(-8090.11 -1.38421e-08 -4997.78)
(-8818.03 -1.54723e-08 -3836.96)
(-9413.32 -1.71021e-08 -2662.14)
(-10068.6 -1.8728e-08 -1278.85)
(-10729 -2.03535e-08 175.241)
(-11029.7 -2.19793e-08 1718.69)
(-11529.4 -2.36061e-08 3278.77)
(-540.523 -9.0069e-10 -12073.4)
(-1623.48 -2.48555e-09 -12028.3)
(-2880.1 -4.08904e-09 -11824.9)
(-4199.33 -5.70734e-09 -11102.8)
(-5406.52 -7.33118e-09 -10178.6)
(-6446.79 -8.95588e-09 -9111.99)
(-7428.83 -1.05772e-08 -8075.39)
(-8267.34 -1.22007e-08 -6842.15)
(-9080.76 -1.38325e-08 -5512.3)
(-9838.95 -1.54646e-08 -4229.86)
(-10408.5 -1.70955e-08 -3034.27)
(-11073.4 -1.87221e-08 -1575.34)
(-11713.6 -2.0346e-08 35.9062)
(-12096.8 -2.1972e-08 1643.2)
(-12571.7 -2.35971e-08 3253.35)
(-590.501 -8.95797e-10 -13361.9)
(-1791.98 -2.48337e-09 -13340.6)
(-3260.67 -4.08753e-09 -13044)
(-4774.15 -5.70233e-09 -12247.4)
(-6144.13 -7.32415e-09 -11244.9)
(-7237.61 -8.94808e-09 -10084)
(-8313.04 -1.05663e-08 -8985.14)
(-9321.3 -1.21877e-08 -7559.14)
(-10238.8 -1.38184e-08 -6048.18)
(-11032.2 -1.54496e-08 -4609.25)
(-11533.3 -1.70855e-08 -3367.12)
(-12203.7 -1.87126e-08 -1749.85)
(-12814.9 -2.03359e-08 90.9663)
(-13206.5 -2.19627e-08 1666.5)
(-13617.1 -2.35879e-08 3381.25)
(-658.485 -8.9475e-10 -14880.1)
(-1986.84 -2.48105e-09 -14868.7)
(-3696.33 -4.08353e-09 -14431.9)
(-5426.79 -5.69559e-09 -13564)
(-6991.04 -7.31514e-09 -12478.5)
(-8131.29 -8.93757e-09 -11255.1)
(-9318.71 -1.05538e-08 -9987.9)
(-10508 -1.21723e-08 -8338.12)
(-11574.8 -1.38015e-08 -6621.41)
(-12394.8 -1.54353e-08 -5017.44)
(-12849.7 -1.70716e-08 -3641.36)
(-13524.1 -1.86986e-08 -1816.16)
(-14111.4 -2.032e-08 298.607)
(-14414.5 -2.19502e-08 1850.78)
(-14731.3 -2.35721e-08 3786.71)
(-752.647 -8.87573e-10 -16640.4)
(-2218.32 -2.4764e-09 -16546.2)
(-4175.76 -4.07813e-09 -15979.2)
(-6146.59 -5.68896e-09 -15035.6)
(-7926.63 -7.30655e-09 -13867.4)
(-9130.49 -8.92528e-09 -12587.1)
(-10458.7 -1.05407e-08 -11121.8)
(-11854.9 -1.21569e-08 -9218.55)
(-13124.4 -1.37815e-08 -7236.92)
(-13947.6 -1.54145e-08 -5479.34)
(-14369.4 -1.70546e-08 -3909.09)
(-15078.7 -1.8681e-08 -1773.32)
(-15649 -2.03039e-08 598.048)
(-15822.7 -2.19351e-08 2245.67)
(-16038.7 -2.35572e-08 4557.28)
(-880.799 -8.79651e-10 -18682.7)
(-2490.99 -2.47731e-09 -18494.1)
(-4714.5 -4.07174e-09 -17807.3)
(-6961.39 -5.67596e-09 -16734)
(-8989.07 -7.29278e-09 -15439.1)
(-10266.5 -8.91337e-09 -14100.9)
(-11766.4 -1.05269e-08 -12397.7)
(-13370.2 -1.21419e-08 -10227.7)
(-14879.8 -1.37612e-08 -7927.72)
(-15759.8 -1.53926e-08 -5960.26)
(-16125.8 -1.70358e-08 -4197.6)
(-16896.7 -1.86601e-08 -1659.01)
(-17503.7 -2.02851e-08 950.978)
(-17537.6 -2.19162e-08 2851.46)
(-17683.6 -2.35412e-08 5630.5)
(-1049.51 -8.71244e-10 -20892.9)
(-2863.92 -2.46883e-09 -20678.9)
(-5349.02 -4.05869e-09 -19860)
(-7882.47 -5.66562e-09 -18621.5)
(-10183.8 -7.28336e-09 -17194.3)
(-11559 -8.89878e-09 -15798.9)
(-13262.9 -1.05112e-08 -13831.2)
(-15079.9 -1.21254e-08 -11370.7)
(-16811.4 -1.37424e-08 -8729.31)
(-17842.9 -1.5376e-08 -6477.59)
(-18114.9 -1.70185e-08 -4569.39)
(-18960.8 -1.864e-08 -1705.75)
(-19710.3 -2.02584e-08 1320.2)
(-19576.4 -2.18922e-08 3628.96)
(-19636.2 -2.35079e-08 6835.3)
(-1225.58 -8.68166e-10 -23219.5)
(-3324.23 -2.46749e-09 -23004.2)
(-6073.01 -4.05615e-09 -22079.5)
(-8901.51 -5.65956e-09 -20674.3)
(-11519.5 -7.271e-09 -19169.9)
(-13023 -8.88121e-09 -17718.7)
(-14988.9 -1.04937e-08 -15446.5)
(-17034.7 -1.21093e-08 -12676.2)
(-18964 -1.37253e-08 -9709.14)
(-20350.2 -1.5351e-08 -6908.03)
(-20332.8 -1.69989e-08 -4995.99)
(-21248.5 -1.86196e-08 -1836.07)
(-22100.6 -2.02355e-08 1697.73)
(-21867.8 -2.18631e-08 4697.23)
(-21707.2 -2.3479e-08 8300.49)
(-1390.46 -8.65612e-10 -25767.4)
(-3763.05 -2.46726e-09 -25408.1)
(-6819.7 -4.05516e-09 -24404.9)
(-9969.64 -5.64868e-09 -22891.1)
(-12940.1 -7.24867e-09 -21379.1)
(-14705 -8.86147e-09 -19823.5)
(-16955.8 -1.04742e-08 -17225.1)
(-19236.6 -1.20915e-08 -14128.6)
(-21362.1 -1.37041e-08 -10810.2)
(-22925.6 -1.5318e-08 -7615.03)
(-22947.2 -1.69709e-08 -5379.62)
(-23914.3 -1.85924e-08 -1822.02)
(-24864.6 -2.02102e-08 2306.5)
(-24441.8 -2.18224e-08 6257.83)
(-24026.8 -2.34382e-08 10328.1)
(-1529.35 -8.60126e-10 -28764.7)
(-4078.36 -2.45439e-09 -28211.4)
(-7515.96 -4.03891e-09 -27060.6)
(-11077.9 -5.63393e-09 -25412.8)
(-14437.4 -7.23266e-09 -23883.4)
(-16664.2 -8.83958e-09 -22169.7)
(-19226.5 -1.04471e-08 -19221.5)
(-21776.3 -1.20641e-08 -15754.8)
(-24155.7 -1.36737e-08 -12003)
(-25921.2 -1.52817e-08 -8333.09)
(-26065.8 -1.69329e-08 -5736.8)
(-27004.4 -1.85613e-08 -1852.93)
(-28131.6 -2.018e-08 2986.28)
(-27362.7 -2.177e-08 8248.19)
(-26700.1 -2.33794e-08 12940.8)
(-1657.27 -8.5146e-10 -32555.8)
(-4312.13 -2.43695e-09 -31960.7)
(-8214.73 -4.02127e-09 -30498.4)
(-12315.5 -5.61744e-09 -28364.1)
(-16096.3 -7.21159e-09 -26638.4)
(-18858.5 -8.80804e-09 -24766.8)
(-21828.2 -1.04128e-08 -21441.6)
(-24728.9 -1.20254e-08 -17566.4)
(-27372.7 -1.36273e-08 -13347.5)
(-29319.3 -1.52296e-08 -9203.83)
(-29755.7 -1.68835e-08 -5983.26)
(-30513.4 -1.85239e-08 -1922.51)
(-31690.7 -2.0131e-08 3886.78)
(-30775.7 -2.16988e-08 10801)
(-29727.4 -2.33022e-08 16595.5)
(-1824.97 -8.52303e-10 -37174.2)
(-4654.79 -2.42885e-09 -36859.9)
(-9145.16 -4.00149e-09 -35073.6)
(-13820.8 -5.59689e-09 -31712.9)
(-17979 -7.1811e-09 -29762.6)
(-21298.2 -8.77201e-09 -27655.3)
(-24739.8 -1.03707e-08 -23957.5)
(-28178.3 -1.19654e-08 -19665.6)
(-31221.7 -1.35584e-08 -14880)
(-33334.3 -1.51643e-08 -10159.4)
(-34084.4 -1.68163e-08 -6093.76)
(-34704.2 -1.84664e-08 -1587.08)
(-35745.1 -2.00617e-08 5778.75)
(-35182.6 -2.16039e-08 14094.6)
(-33833.2 -2.32032e-08 21749.7)
(-2169.65 -8.52199e-10 -42088.5)
(-5768.61 -2.42244e-09 -41953.8)
(-10909.9 -3.96663e-09 -39457)
(-15779.7 -5.56026e-09 -35692.8)
(-20183.6 -7.13928e-09 -33423.7)
(-24032.1 -8.72911e-09 -30875.3)
(-27952.9 -1.03246e-08 -26840.4)
(-31982.9 -1.18984e-08 -22170.4)
(-35553.6 -1.34812e-08 -16795.4)
(-38028.2 -1.50851e-08 -11309)
(-39220.1 -1.67297e-08 -6222.82)
(-40235.3 -1.83578e-08 -321.046)
(-41319.9 -1.99391e-08 8413.49)
(-41105.6 -2.14835e-08 17685.6)
(-39912 -2.30764e-08 27721.5)
(-2613.63 -8.4545e-10 -46943)
(-7191.57 -2.406e-09 -46155.4)
(-12831.4 -3.93381e-09 -43469)
(-18121.7 -5.49906e-09 -40363.9)
(-22734.6 -7.08996e-09 -37534.7)
(-27089.4 -8.68108e-09 -34413)
(-31427.8 -1.02755e-08 -30116)
(-36160.5 -1.18145e-08 -25151.1)
(-40409.8 -1.33854e-08 -19135.5)
(-43522.6 -1.49859e-08 -12773)
(-45426 -1.66185e-08 -6616.97)
(-47115.8 -1.82174e-08 844.149)
(-48623.5 -1.97951e-08 10791.2)
(-48724.5 -2.13378e-08 21087.5)
(-48140.1 -2.29127e-08 33603.8)
(-2979.94 -8.31173e-10 -52085.3)
(-8011.67 -2.36575e-09 -50657.4)
(-14644.3 -3.8928e-09 -47906.2)
(-20569.1 -5.42901e-09 -45449.8)
(-25751.3 -7.02607e-09 -42031.7)
(-30525.6 -8.6232e-09 -38286.7)
(-35206.1 -1.0213e-08 -34010.7)
(-40720.7 -1.17141e-08 -28773.4)
(-45848.1 -1.32738e-08 -22047.8)
(-49912.2 -1.48655e-08 -14695.7)
(-52703.9 -1.64767e-08 -7482.77)
(-55061.2 -1.80592e-08 1163.72)
(-57389.3 -1.96227e-08 12360.4)
(-57994.3 -2.11691e-08 23893.1)
(-58372 -2.27315e-08 38740.7)
(-3372.78 -8.15051e-10 -57762.3)
(-8932.92 -2.3439e-09 -56607)
(-16418.4 -3.84765e-09 -53869.8)
(-23310.5 -5.36142e-09 -50921.9)
(-29340.4 -6.93879e-09 -46904.6)
(-34314.7 -8.54414e-09 -42767.5)
(-39588.1 -1.00978e-08 -39183)
(-45685.3 -1.16112e-08 -33002.1)
(-51738.3 -1.31626e-08 -25602.9)
(-56837.8 -1.47298e-08 -17417.6)
(-60849.1 -1.63097e-08 -9151.01)
(-63972.7 -1.78857e-08 517.441)
(-67376.5 -1.94414e-08 12949)
(-68759.1 -2.09789e-08 25776)
(-70370.6 -2.25219e-08 42693.4)
(-3904.09 -8.13707e-10 -63828.7)
(-10442.3 -2.29604e-09 -62954.2)
(-18444 -3.78452e-09 -59915.5)
(-26179.3 -5.29671e-09 -56417.2)
(-33334.6 -6.82789e-09 -52190.6)
(-38466.4 -8.43479e-09 -48111.5)
(-44277.6 -9.98186e-09 -44939)
(-51111.5 -1.15064e-08 -37850.6)
(-58154.1 -1.30288e-08 -29904.9)
(-64288 -1.45786e-08 -21003.8)
(-69519 -1.61271e-08 -11926.5)
(-73637.7 -1.77028e-08 -1289.89)
(-78326.4 -1.92419e-08 12303.2)
(-80822.3 -2.07656e-08 26478.4)
(-83863.5 -2.2296e-08 45194.8)
(-4482.1 -8.00561e-10 -70190.4)
(-12136.1 -2.25216e-09 -69426.4)
(-20734.7 -3.72557e-09 -66158.5)
(-29197.7 -5.24333e-09 -62257.7)
(-37320.7 -6.74971e-09 -58014.9)
(-42968 -8.28258e-09 -54588.6)
(-49227.1 -9.85403e-09 -51269.5)
(-56918 -1.13888e-08 -43373.2)
(-65131.7 -1.28409e-08 -35139.5)
(-72446.1 -1.4377e-08 -25503.4)
(-78771.7 -1.58962e-08 -15963.6)
(-84035.1 -1.74969e-08 -4285.72)
(-90079.5 -1.90108e-08 10352.8)
(-94015.7 -2.05276e-08 25813.3)
(-98644.6 -2.20583e-08 46075.2)
(-5082.14 -8.03835e-10 -76764.8)
(-13846.7 -2.27452e-09 -75844.7)
(-23118.2 -3.7037e-09 -72496.1)
(-32338 -5.17676e-09 -68816.8)
(-41303.6 -6.6069e-09 -65259.9)
(-47908.6 -8.02551e-09 -62931)
(-54949.9 -9.635e-09 -58334)
(-63020.9 -1.1241e-08 -49697.8)
(-72713 -1.25522e-08 -41737.8)
(-81634.3 -1.40377e-08 -31430)
(-89035.8 -1.55541e-08 -21363.6)
(-95417.6 -1.72318e-08 -8456.94)
(-102764 -1.87556e-08 6963.47)
(-108166 -2.02637e-08 23598)
(-114567 -2.17818e-08 45111)
(-5533.96 -7.79426e-10 -83568.6)
(-15051.8 -2.21692e-09 -82202.2)
(-25414.4 -3.67109e-09 -79126)
(-35377.9 -5.09839e-09 -76076.6)
(-45097.3 -6.30816e-09 -75385.4)
(-53137.7 -7.63954e-09 -72670.8)
(-61603.8 -9.21201e-09 -67094.2)
(-69430.6 -1.1001e-08 -57351.6)
(-80455.4 -1.21748e-08 -49834.7)
(-91099 -1.35847e-08 -39308.5)
(-99907.5 -1.51281e-08 -28327.2)
(-107840 -1.68746e-08 -14064.4)
(-116267 -1.84463e-08 1597.28)
(-123050 -1.99834e-08 19665.7)
(-131362 -2.14505e-08 42228.1)
(-5721.13 -7.69818e-10 -91677.8)
(-15563.5 -2.17365e-09 -89799.4)
(-27314.2 -3.56718e-09 -87127.3)
(-38234.6 -4.86781e-09 -85770)
(-48609 -5.83813e-09 -87029)
(-58577.7 -7.09863e-09 -84102.6)
(-68544.8 -8.62428e-09 -77885.2)
(-76728.6 -1.0481e-08 -68033.2)
(-88117.1 -1.17674e-08 -59085.9)
(-100227 -1.31032e-08 -48788.6)
(-111112 -1.46067e-08 -37188.1)
(-121134 -1.63983e-08 -21686.1)
(-130313 -1.8137e-08 -6578.65)
(-138619 -1.97291e-08 13954.1)
(-148838 -2.12085e-08 37911.3)
(-5766.13 -7.02751e-10 -102173)
(-15668.4 -2.01474e-09 -99875.2)
(-28589.5 -3.32745e-09 -97128.4)
(-40470 -4.40996e-09 -98253.3)
(-51656.2 -5.32041e-09 -99374.7)
(-63522.7 -6.45484e-09 -96736.4)
(-75172.6 -7.86617e-09 -90752.4)
(-83786 -9.9238e-09 -79794.8)
(-95467.8 -1.14814e-08 -68416.2)
(-108798 -1.26296e-08 -59420.7)
(-122265 -1.38883e-08 -48977.7)
(-135173 -1.56465e-08 -33091.6)
(-144580 -1.79883e-08 -18212.2)
(-155385 -1.95631e-08 6553.41)
(-167111 -2.09937e-08 32390.3)
(-5946.19 -6.36869e-10 -114759)
(-16025.7 -1.80148e-09 -112767)
(-29381.4 -2.97022e-09 -110618)
(-42175.4 -3.87828e-09 -112243)
(-54317.3 -4.76593e-09 -112365)
(-67536.8 -5.72461e-09 -110587)
(-80662.8 -6.919e-09 -105670)
(-92076.5 -8.4833e-09 -97456.8)
(-102220 -1.12402e-08 -77886.5)
(-115880 -1.2071e-08 -71388.7)
(-131777 -1.28464e-08 -65058.9)
(-146807 -1.44531e-08 -51339.2)
(-160927 -1.76418e-08 -30750.1)
(-173488 -1.94343e-08 -1878.45)
(-186651 -2.08641e-08 26467.8)
(-6193.45 -5.39282e-10 -128535)
(-16556.1 -1.55386e-09 -127278)
(-30294.6 -2.53519e-09 -125876)
(-43593.3 -3.40373e-09 -125997)
(-56388.4 -4.18684e-09 -125985)
(-70403.1 -4.95027e-09 -125171)
(-84491.8 -5.93737e-09 -121270)
(-96893.2 -7.22716e-09 -114079)
(-108521 -8.85031e-09 -103511)
(-121604 -1.13903e-08 -84693.7)
(-137838 -1.24826e-08 -76718.3)
(-153360 -1.36742e-08 -68007.5)
(-177482 -1.6853e-08 -46703.2)
(-193636 -1.93027e-08 -11453.3)
(-208215 -2.0735e-08 20528)
(-6504.65 -4.77675e-10 -142886)
(-17388.2 -1.33061e-09 -142106)
(-31400.2 -2.17449e-09 -140591)
(-44860.8 -2.9697e-09 -139805)
(-57692.4 -3.63654e-09 -139716)
(-72044.3 -4.21657e-09 -139868)
(-86647 -4.92229e-09 -137502)
(-98608.4 -5.41125e-09 -135628)
(-111518 -7.12536e-09 -122806)
(-126173 -8.56079e-09 -112653)
(-143620 -1.20609e-08 -88809.9)
(-166194 -1.2084e-08 -90888.1)
(-193927 -1.36812e-08 -78803.8)
(-216638 -1.92051e-08 -22409.1)
(-267675 -2.06359e-08 6775.39)
(-6839.95 -4.24443e-10 -156028)
(-18501.2 -1.16216e-09 -155828)
(-32535.5 -1.88159e-09 -155122)
(-46061 -2.57934e-09 -153791)
(-58423.9 -3.17061e-09 -153250)
(-72633 -3.63342e-09 -153738)
(-86460.1 -4.09936e-09 -152125)
(-98026.9 -4.2289e-09 -152208)
(-110713 -4.95629e-09 -146300)
(-125118 -6.13466e-09 -134844)
(-141446 -7.09343e-09 -128595)
(-166598 -8.38894e-09 -125984)
(-195894 -9.83834e-09 -124792)
(-233136 -1.21527e-08 -118187)
(-302525 -1.30344e-08 -129374)
(-7042.71 -3.76021e-10 -168467)
(-18941.1 -1.04479e-09 -168815)
(-33538.8 -1.69611e-09 -167723)
(-47255.5 -2.30486e-09 -166494)
(-59068 -2.79979e-09 -166561)
(-73131 -3.2324e-09 -166520)
(-86351.9 -3.57088e-09 -164678)
(-96677.2 -3.48702e-09 -164831)
(-105728 -3.34227e-09 -163339)
(-118068 -3.79383e-09 -154502)
(-136313 -4.98013e-09 -147466)
(-154912 -5.71321e-09 -150097)
(-176242 -6.72226e-09 -158430)
(-201775 -7.96326e-09 -175824)
(-233717 -8.53908e-09 -225739)
(-7265.67 -3.31726e-10 -181007)
(-19869.7 -9.24463e-10 -181547)
(-34652.5 -1.52933e-09 -180295)
(-48228.7 -2.09114e-09 -179088)
(-59645.8 -2.49389e-09 -180273)
(-74054 -2.88558e-09 -179946)
(-86433.7 -3.12405e-09 -177051)
(-96208.9 -3.01177e-09 -175753)
(-107027 -3.00663e-09 -172374)
(-117796 -3.09866e-09 -164707)
(-133327 -3.89993e-09 -159098)
(-147072 -4.50263e-09 -159369)
(-158444 -5.09496e-09 -165175)
(-165915 -5.73328e-09 -182303)
(-165708 -6.18167e-09 -218351)
(-7441.73 -2.97528e-10 -193465)
(-20361.8 -8.55224e-10 -194674)
(-36030.3 -1.37954e-09 -194779)
(-49858.2 -1.88209e-09 -193473)
(-60606.1 -2.19252e-09 -195800)
(-75753 -2.491e-09 -195479)
(-88549 -2.70329e-09 -192007)
(-97677.8 -2.69548e-09 -187650)
(-109162 -2.74448e-09 -182270)
(-122286 -2.99005e-09 -173026)
(-134324 -3.30272e-09 -165981)
(-145327 -3.86357e-09 -162030)
(-152394 -4.35071e-09 -159973)
(-153150 -4.735e-09 -161430)
(-141450 -5.05929e-09 -165624)
(-7585.53 -2.8115e-10 -206117)
(-20866.2 -8.04757e-10 -207889)
(-37090.2 -1.28109e-09 -208450)
(-51315.1 -1.72065e-09 -208141)
(-62100.9 -1.90334e-09 -212144)
(-77896.8 -2.18067e-09 -211032)
(-91754.7 -2.37111e-09 -207984)
(-101139 -2.39992e-09 -201377)
(-114311 -2.60195e-09 -192701)
(-127335 -2.84457e-09 -180109)
(-140131 -3.18543e-09 -170934)
(-150329 -3.60966e-09 -161965)
(-157558 -4.02242e-09 -153115)
(-160205 -4.35133e-09 -139704)
(-153722 -4.69585e-09 -120461)
(-7651.15 -2.65054e-10 -218685)
(-21212.4 -7.29829e-10 -220007)
(-37157.5 -1.16559e-09 -220336)
(-52457.2 -1.56101e-09 -222137)
(-64165.4 -1.72049e-09 -228028)
(-80721.8 -2.01771e-09 -225211)
(-95790.4 -2.23552e-09 -220488)
(-107513 -2.28261e-09 -213925)
(-121895 -2.53927e-09 -202883)
(-136265 -2.84706e-09 -189741)
(-150661 -3.16304e-09 -176471)
(-161856 -3.52008e-09 -164483)
(-170909 -3.90112e-09 -151874)
(-179033 -4.20253e-09 -131071)
(-183748 -4.50341e-09 -102866)
(-7515.29 -2.31148e-10 -232534)
(-20519.2 -6.69171e-10 -233132)
(-36789.3 -1.05702e-09 -232062)
(-53231 -1.3792e-09 -239774)
(-67572.9 -1.61326e-09 -243816)
(-84713 -1.92922e-09 -239182)
(-100804 -2.18418e-09 -232450)
(-114789 -2.30577e-09 -224463)
(-130053 -2.56416e-09 -212948)
(-145220 -2.85192e-09 -199676)
(-160379 -3.13942e-09 -186327)
(-174143 -3.4669e-09 -172341)
(-185696 -3.84685e-09 -157064)
(-198171 -4.1712e-09 -135786)
(-210480 -4.46987e-09 -109626)
(-7537.65 -2.53761e-10 -248992)
(-20355 -5.55812e-10 -250443)
(-37645.6 -9.19909e-10 -250345)
(-55645.6 -1.27289e-09 -257555)
(-72189.4 -1.58786e-09 -259448)
(-89693.1 -1.89933e-09 -252326)
(-106596 -2.15427e-09 -245024)
(-122107 -2.31824e-09 -235214)
(-138209 -2.57527e-09 -223567)
(-154256 -2.86218e-09 -210101)
(-170363 -3.1519e-09 -196564)
(-185722 -3.46948e-09 -181771)
(-199576 -3.83054e-09 -165286)
(-214234 -4.15666e-09 -144766)
(-228229 -4.43504e-09 -121547)
(-7853.09 -1.99348e-10 -265520)
(-21727.2 -5.54852e-10 -266576)
(-38418.6 -8.90784e-10 -267331)
(-57963.2 -1.22638e-09 -275105)
(-76382.3 -1.55426e-09 -272231)
(-94899.5 -1.90462e-09 -265379)
(-112850 -2.21037e-09 -257448)
(-129420 -2.33956e-09 -246580)
(-146417 -2.5815e-09 -234933)
(-163464 -2.89108e-09 -221283)
(-180599 -3.21309e-09 -207511)
(-197404 -3.52211e-09 -192324)
(-213325 -3.8429e-09 -174890)
(-229320 -4.17002e-09 -153114)
(-242356 -4.45882e-09 -128279)
(-8366.56 -1.56855e-10 -280325)
(-22869.5 -5.86139e-10 -281432)
(-39403 -9.41976e-10 -283379)
(-59720 -1.21831e-09 -288397)
(-80171.8 -1.52616e-09 -285926)
(-100216 -1.92674e-09 -279292)
(-119197 -2.29743e-09 -271034)
(-137099 -2.43771e-09 -259205)
(-154742 -2.63733e-09 -247089)
(-172814 -2.91979e-09 -233158)
(-190877 -3.23855e-09 -219191)
(-210188 -3.54383e-09 -203475)
(-228882 -3.86388e-09 -185475)
(-247743 -4.19125e-09 -159237)
(-281422 -4.48106e-09 -181842)
(-8749.73 -1.85952e-10 -294865)
(-24084.1 -5.57093e-10 -297251)
(-41197.6 -9.05296e-10 -300155)
(-62114 -1.23305e-09 -303838)
(-84579 -1.58753e-09 -302669)
(-106077 -1.95801e-09 -294294)
(-126318 -2.31209e-09 -284272)
(-145491 -2.64358e-09 -272892)
(-162728 -2.83771e-09 -260393)
(-182281 -2.94819e-09 -245540)
(-204359 -3.30881e-09 -234410)
(-226203 -3.63845e-09 -222237)
(-248749 -3.8932e-09 -201114)
(-203028 -4.99326e-09 -216944)
(-246170 -5.35164e-09 -396071)
(-8932.48 -1.87753e-10 -309451)
(-25066.2 -5.42422e-10 -312814)
(-42979.2 -8.70807e-10 -317068)
(-64630.1 -1.25611e-09 -320710)
(-88923.7 -1.64495e-09 -321083)
(-112681 -2.01519e-09 -310679)
(-133817 -2.33825e-09 -297989)
(-151920 -2.79497e-09 -284640)
(-167324 -3.19056e-09 -275181)
(-188278 -3.58033e-09 -273308)
(-207146 -3.82551e-09 -259901)
(-228324 -4.01971e-09 -262633)
(-262690 -4.43332e-09 -323919)
(-8317.41 -6.27276e-09 -230621)
(-839.748 -6.7449e-09 -532229)
(-8857.63 -1.907e-10 -323218)
(-25308.5 -5.56245e-10 -328018)
(-44772.5 -9.24935e-10 -334574)
(-67337.7 -1.31623e-09 -339613)
(-94198.8 -1.75356e-09 -343425)
(-121141 -2.1294e-09 -330094)
(-144425 -2.52873e-09 -316251)
(-158546 -3.09308e-09 -299147)
(-165185 -3.72101e-09 -288580)
(-184635 -4.19578e-09 -292230)
(-163498 -4.91815e-09 -272403)
(-132506 -5.64499e-09 -312427)
(-22804.7 -6.36552e-09 -350838)
(204054 -7.5972e-09 -120007)
(339771 -8.12134e-09 -354296)
(-8863.84 -2.10942e-10 -335388)
(-25202.1 -5.91025e-10 -342321)
(-45886.1 -1.02722e-09 -351790)
(-70543.6 -1.38721e-09 -360844)
(-101517 -1.89083e-09 -369763)
(-131967 -2.27349e-09 -352781)
(-158091 -2.76894e-09 -337769)
(-168128 -3.56721e-09 -321935)
(-162251 -4.4375e-09 -297577)
(-176000 -4.98702e-09 -275508)
(-92788.8 -6.17478e-09 -215683)
(13541.2 -7.09088e-09 -184050)
(174781 -7.72991e-09 -298381)
(308717 -8.77185e-09 145145)
(586866 -9.46541e-09 159560)
(-9205.43 -2.12118e-10 -339920)
(-24945.7 -6.02199e-10 -353005)
(-46905 -1.00382e-09 -368015)
(-74148.5 -1.44935e-09 -383135)
(-111801 -1.9458e-09 -398706)
(-145522 -2.43696e-09 -378636)
(-175947 -3.06435e-09 -364611)
(-188773 -4.16593e-09 -359875)
(-192083 -5.39008e-09 -296559)
(-129399 -7.5564e-09 -92577.3)
(-84531.7 -8.05532e-09 -23383.9)
(52167 -8.56582e-09 101471)
(257249 -9.28593e-09 242271)
(181068 -9.81e-09 555300)
(480055 -1.05491e-08 956728)
(-8361.41 -2.29598e-10 -326161)
(-23418 -6.24598e-10 -352602)
(-45665 -1.02923e-09 -380050)
(-77040.9 -1.53474e-09 -403416)
(-124490 -2.10612e-09 -426612)
(-160491 -2.60049e-09 -406887)
(-197421 -3.3236e-09 -398266)
(-236329 -4.71831e-09 -419911)
(-289263 -6.33514e-09 -326913)
(-274429 -8.07945e-09 -68877.6)
(-297608 -8.93542e-09 203019)
(-164449 -9.2959e-09 365774)
(-40616.9 -1.00179e-08 747429)
(-242055 -1.03745e-08 808613)
(-148511 -1.117e-08 1.43484e+06)
(-3806.53 -2.03296e-10 -289341)