/*--------------------------------*- C++ -*----------------------------------*\
  =========                 |
  \\      /  F ield         | OpenFOAM: The Open Source CFD Toolbox
   \\    /   O peration     | Website:  https://openfoam.org
    \\  /    A nd           | Version:  8
     \\/     M anipulation  |
\*---------------------------------------------------------------------------*/
FoamFile
{
    version     2.0;
    format      ascii;
    class       volScalarField;
    location    "150";
    object      epsilon;
}
// * * * * * * * * * * * * * * * * * * * * * * * * * * * * * * * * * * * * * //

dimensions      [0 2 -3 0 0 0 0];

internalField   nonuniform List<scalar> 
7320
(
11589.5
10055.5
9415.8
10324.3
12249.7
13728.7
14869.3
15866.6
16796
17682.9
18540.8
19376.5
20193.1
20992.2
21775.7
22541.7
23286.7
24005.8
24697.7
25354.7
25970.1
26538.3
27058.9
27529
27947.9
28315.3
28640.6
28923.7
29167
29373.4
29551.2
29702.6
29829.8
29933.2
30025.6
30104.1
30168.3
30218.3
30262.5
30299.5
30328.8
30348.1
30370.7
30390.4
30404.9
30412.1
30421.6
30429.6
30434.2
30432.4
30438.8
30445.2
30448.3
30445.7
30447.9
30450
30449.9
30444
30447.8
30452.2
30453.4
30449
30450.1
30451.3
30450.7
30445
30449.1
30453.3
30454.3
30449.7
30450.8
30452
30451.6
30446.9
30451.6
30456.1
30457.2
30453.7
30455.4
30456.7
30456.3
30452.7
30457.2
30461.3
30462.3
30459.6
30462.1
30463.5
30463.4
30460.9
30465.3
30468.9
30469.7
30467.9
30470.1
30471.6
30471.8
30470.3
30474
30476.8
30477.6
30476.7
30478.4
30479.9
30480.4
30479.8
30482.1
30484.1
30485
30485.1
30486
30486.9
30487.6
30488.1
30488.2
30488.6
30489.3
30490
30489.6
30489.2
30489.6
30487.5
3743.12
3881.62
3479.91
3392.47
4109.15
4683.26
5114.19
5484.29
5826.05
6150.31
6462.85
6766.2
7061.79
7350.35
7632.82
7908.47
8176.17
8434.12
8682.22
8917.41
9137.32
9339.98
9525.57
9692.79
9841.52
9971.67
10087.1
10187.3
10273.2
10345.8
10408.6
10461.8
10506.4
10542.4
10575.2
10602.7
10625.2
10642.4
10658.1
10670.9
10681
10687.3
10695.7
10702.7
10707.7
10709.8
10713.3
10716
10717.5
10716.4
10719.1
10721.5
10722.6
10721.2
10722.2
10722.9
10722.7
10720.2
10722.1
10723.8
10724.2
10722.2
10722.9
10723.2
10722.9
10720.5
10722.4
10724.1
10724.4
10722.3
10723
10723.3
10723.1
10721.1
10723.3
10725
10725.3
10723.7
10724.6
10725
10724.7
10723
10725.2
10726.7
10727
10725.7
10726.9
10727.3
10727.1
10726
10728
10729.3
10729.5
10728.6
10729.6
10730.1
10730.1
10729.3
10731
10732
10732.2
10731.7
10732.5
10732.9
10733
10732.7
10733.7
10734.4
10734.7
10734.6
10735
10735.3
10735.5
10735.6
10735.6
10735.7
10735.9
10736.1
10735.9
10735.7
10736.1
10735
1526.47
1970.7
1799.37
1978.48
2540.89
2937.19
3223.83
3466.92
3690.29
3901.55
4104.76
4301.54
4492.92
4679.43
4861.81
5039.47
5211.72
5377.38
5536.57
5687.04
5827.39
5956.34
6074.24
6180.12
6274.04
6355.94
6428.71
6491.59
6545.34
6590.6
6629.83
6662.92
6690.6
6712.74
6733.28
6750.4
6764.26
6774.68
6784.43
6792.31
6798.43
6802.02
6807.45
6811.81
6814.86
6815.9
6818.18
6819.82
6820.6
6819.6
6821.62
6823.18
6823.78
6822.69
6823.47
6823.88
6823.67
6821.77
6823.3
6824.5
6824.69
6823.2
6823.76
6823.97
6823.7
6821.9
6823.49
6824.64
6824.78
6823.25
6823.79
6824.01
6823.77
6822.27
6824.01
6825.2
6825.38
6824.15
6824.82
6825.04
6824.77
6823.56
6825.22
6826.28
6826.39
6825.43
6826.3
6826.55
6826.34
6825.48
6827.03
6827.93
6828
6827.3
6828.08
6828.35
6828.26
6827.67
6828.94
6829.62
6829.72
6829.29
6829.86
6830.14
6830.16
6829.87
6830.62
6831.08
6831.24
6831.13
6831.39
6831.57
6831.69
6831.73
6831.69
6831.76
6831.92
6832.05
6831.85
6831.71
6832
6831.26
719.857
1158.01
1127.46
1462.01
1944.37
2254.42
2473.9
2659.73
2830.84
2992.85
3148.8
3299.79
3446.61
3589.62
3729.43
3865.5
3997.3
4123.88
4245.42
4360.06
4466.75
4564.55
4653.84
4733.82
4804.61
4866.16
4920.92
4968.07
5008.29
5042.03
5071.35
5095.98
5116.53
5132.85
5148.24
5160.94
5171.18
5178.77
5186.03
5191.82
5196.28
5198.76
5202.93
5206.18
5208.39
5209.01
5210.76
5211.96
5212.46
5211.53
5213.22
5214.43
5214.84
5213.87
5214.54
5214.84
5214.63
5213.04
5214.39
5215.35
5215.46
5214.2
5214.72
5214.87
5214.62
5213.12
5214.52
5215.45
5215.52
5214.22
5214.72
5214.88
5214.66
5213.4
5214.92
5215.87
5215.98
5214.93
5215.53
5215.68
5215.43
5214.41
5215.85
5216.69
5216.75
5215.92
5216.67
5216.85
5216.64
5215.92
5217.25
5217.96
5217.99
5217.37
5218.04
5218.24
5218.13
5217.63
5218.72
5219.25
5219.3
5218.92
5219.41
5219.6
5219.6
5219.34
5219.98
5220.34
5220.45
5220.34
5220.55
5220.68
5220.77
5220.79
5220.74
5220.79
5220.92
5221.02
5220.84
5220.73
5220.99
5220.4
358.397
719.886
789.251
1206.14
1632.85
1887.07
2064.1
2214.6
2354.03
2486.57
2614.49
2738.47
2859.13
2976.7
3091.69
3203.58
3311.91
3415.86
3515.66
3609.65
3697.01
3776.97
3849.94
3915.18
3972.85
4022.91
4067.5
4105.8
4138.42
4165.73
4189.5
4209.4
4225.99
4239.09
4251.6
4261.86
4270.09
4276.12
4282
4286.64
4290.19
4292.07
4295.54
4298.18
4299.94
4300.34
4301.8
4302.75
4303.11
4302.24
4303.73
4304.74
4305.06
4304.17
4304.78
4305.02
4304.81
4303.41
4304.64
4305.47
4305.54
4304.42
4304.9
4305.02
4304.79
4303.47
4304.75
4305.54
4305.58
4304.42
4304.9
4305.02
4304.81
4303.7
4305.08
4305.9
4305.96
4305.01
4305.57
4305.68
4305.44
4304.55
4305.85
4306.56
4306.58
4305.83
4306.52
4306.65
4306.45
4305.8
4307.01
4307.6
4307.6
4307.05
4307.65
4307.8
4307.68
4307.24
4308.22
4308.66
4308.68
4308.33
4308.76
4308.92
4308.9
4308.66
4309.24
4309.53
4309.61
4309.5
4309.69
4309.79
4309.86
4309.86
4309.82
4309.86
4309.97
4310.05
4309.88
4309.79
4310.02
4309.54
180.836
451.582
589.975
1053.91
1439.82
1653.14
1799.08
1924.07
2040.97
2152.78
2261.15
2366.42
2469.04
2569.14
2667.13
2762.5
2854.86
2943.47
3028.57
3108.67
3183.1
3251.18
3313.33
3368.87
3417.96
3460.54
3498.53
3531.13
3558.86
3582.05
3602.28
3619.19
3633.26
3644.33
3655.02
3663.73
3670.7
3675.77
3680.79
3684.72
3687.71
3689.24
3692.27
3694.53
3696
3696.28
3697.57
3698.37
3698.65
3697.84
3699.2
3700.09
3700.34
3699.52
3700.09
3700.29
3700.09
3698.82
3699.98
3700.7
3700.75
3699.73
3700.19
3700.29
3700.06
3698.87
3700.06
3700.77
3700.78
3699.73
3700.18
3700.28
3700.08
3699.07
3700.35
3701.06
3701.09
3700.23
3700.75
3700.84
3700.61
3699.79
3701
3701.62
3701.61
3700.93
3701.56
3701.66
3701.46
3700.87
3701.98
3702.5
3702.48
3701.96
3702.52
3702.64
3702.52
3702.11
3703.01
3703.38
3703.38
3703.06
3703.46
3703.58
3703.55
3703.33
3703.85
3704.1
3704.16
3704.05
3704.22
3704.31
3704.36
3704.35
3704.31
3704.34
3704.44
3704.5
3704.35
3704.26
3704.48
3704.07
91.0768
276.978
456.528
949.801
1306.14
1487.67
1608.9
1713.7
1812.97
1908.75
2002.09
2093.09
2182
2268.87
2354.04
2437.01
2517.4
2594.58
2668.77
2738.63
2803.57
2863.02
2917.36
2965.95
3008.93
3046.24
3079.61
3108.23
3132.58
3152.94
3170.75
3185.61
3197.98
3207.69
3217.15
3224.82
3230.95
3235.39
3239.84
3243.3
3245.92
3247.25
3249.98
3251.99
3253.28
3253.5
3254.67
3255.38
3255.61
3254.87
3256.14
3256.93
3257.15
3256.39
3256.92
3257.1
3256.91
3255.76
3256.84
3257.5
3257.52
3256.58
3257.02
3257.11
3256.89
3255.8
3256.92
3257.55
3257.55
3256.58
3257
3257.09
3256.89
3255.97
3257.16
3257.8
3257.81
3257.01
3257.5
3257.57
3257.34
3256.59
3257.71
3258.26
3258.24
3257.6
3258.19
3258.27
3258.08
3257.53
3258.56
3259.02
3258.98
3258.5
3259.01
3259.11
3258.99
3258.6
3259.43
3259.76
3259.75
3259.44
3259.81
3259.91
3259.87
3259.66
3260.14
3260.36
3260.41
3260.3
3260.45
3260.52
3260.56
3260.54
3260.5
3260.52
3260.61
3260.66
3260.51
3260.44
3260.64
3260.28
46.1482
162.236
356.858
868.56
1205.09
1361.59
1462.31
1550.21
1634.83
1717.38
1798.44
1877.82
1955.64
2031.85
2106.73
2179.76
2250.62
2318.72
2384.3
2446.12
2503.68
2556.46
2604.83
2648.16
2686.56
2719.95
2749.91
2775.62
2797.53
2815.87
2831.94
2845.35
2856.52
2865.3
2873.89
2880.84
2886.4
2890.42
2894.48
2897.63
2900.01
2901.22
2903.74
2905.58
2906.76
2906.96
2908.04
2908.69
2908.91
2908.23
2909.42
2910.15
2910.35
2909.65
2910.16
2910.32
2910.14
2909.08
2910.1
2910.7
2910.72
2909.85
2910.26
2910.34
2910.14
2909.13
2910.17
2910.75
2910.74
2909.84
2910.24
2910.31
2910.12
2909.27
2910.38
2910.96
2910.95
2910.21
2910.66
2910.72
2910.5
2909.81
2910.84
2911.34
2911.31
2910.71
2911.26
2911.31
2911.13
2910.62
2911.57
2911.98
2911.94
2911.49
2911.96
2912.03
2911.91
2911.55
2912.32
2912.62
2912.59
2912.3
2912.64
2912.72
2912.67
2912.47
2912.92
2913.11
2913.14
2913.03
2913.17
2913.22
2913.25
2913.23
2913.19
2913.2
2913.28
2913.32
2913.18
2913.12
2913.3
2912.98
24.1871
89.4478
275.897
796.264
1122.22
1259.68
1343.14
1416.43
1488.38
1559.57
1630.15
1699.67
1768.11
1835.34
1901.56
1966.29
2029.2
2089.77
2148.24
2203.48
2255.04
2302.45
2346.04
2385.21
2420.03
2450.41
2477.76
2501.28
2521.36
2538.21
2553
2565.37
2575.68
2583.81
2591.78
2598.23
2603.39
2607.14
2610.93
2613.86
2616.1
2617.25
2619.62
2621.34
2622.45
2622.65
2623.68
2624.3
2624.52
2623.91
2625.03
2625.72
2625.9
2625.26
2625.74
2625.9
2625.73
2624.77
2625.72
2626.27
2626.29
2625.48
2625.87
2625.94
2625.75
2624.82
2625.79
2626.32
2626.3
2625.47
2625.84
2625.9
2625.72
2624.93
2625.96
2626.49
2626.47
2625.78
2626.2
2626.24
2626.03
2625.38
2626.35
2626.8
2626.76
2626.2
2626.7
2626.74
2626.56
2626.09
2626.96
2627.34
2627.29
2626.86
2627.3
2627.36
2627.24
2626.9
2627.61
2627.87
2627.84
2627.56
2627.87
2627.94
2627.88
2627.69
2628.1
2628.27
2628.29
2628.18
2628.3
2628.35
2628.37
2628.34
2628.3
2628.31
2628.37
2628.4
2628.27
2628.21
2628.38
2628.09
13.5432
46.6182
206.925
724.144
1048.36
1172.88
1242.04
1302.57
1363.31
1424.48
1485.83
1546.73
1606.98
1666.41
1725.14
1782.68
1838.76
1892.88
1945.28
1994.92
2041.43
2084.35
2123.99
2159.76
2191.7
2219.68
2244.96
2266.78
2285.47
2301.19
2315.04
2326.63
2336.33
2344
2351.52
2357.61
2362.5
2366.08
2369.69
2372.49
2374.64
2375.78
2378.04
2379.68
2380.75
2380.98
2381.97
2382.57
2382.8
2382.27
2383.33
2383.98
2384.16
2383.59
2384.04
2384.19
2384.04
2383.16
2384.05
2384.56
2384.58
2383.84
2384.2
2384.26
2384.08
2383.22
2384.12
2384.61
2384.59
2383.81
2384.16
2384.21
2384.03
2383.31
2384.25
2384.74
2384.72
2384.07
2384.45
2384.49
2384.29
2383.68
2384.57
2384.98
2384.94
2384.41
2384.87
2384.9
2384.73
2384.28
2385.09
2385.43
2385.38
2384.98
2385.38
2385.42
2385.3
2384.98
2385.63
2385.87
2385.83
2385.57
2385.85
2385.9
2385.85
2385.66
2386.03
2386.18
2386.2
2386.09
2386.2
2386.23
2386.24
2386.21
2386.16
2386.17
2386.22
2386.25
2386.12
2386.06
2386.23
2385.95
8.25616
23.7893
147.846
646.498
976.775
1095.06
1153.06
1202.53
1253.29
1305.47
1358.56
1411.75
1464.72
1517.21
1569.29
1620.49
1670.53
1718.98
1766.06
1810.83
1852.95
1892.01
1928.28
1961.17
1990.7
2016.7
2040.31
2060.76
2078.36
2093.23
2106.35
2117.37
2126.62
2133.98
2141.16
2147.01
2151.72
2155.2
2158.68
2161.41
2163.5
2164.67
2166.84
2168.44
2169.49
2169.77
2170.73
2171.33
2171.57
2171.12
2172.12
2172.75
2172.94
2172.42
2172.85
2173
2172.87
2172.07
2172.89
2173.37
2173.39
2172.71
2173.04
2173.1
2172.93
2172.15
2172.97
2173.42
2173.4
2172.69
2173
2173.04
2172.87
2172.2
2173.06
2173.51
2173.49
2172.89
2173.24
2173.26
2173.07
2172.51
2173.32
2173.7
2173.65
2173.16
2173.58
2173.6
2173.43
2173.02
2173.75
2174.06
2174.01
2173.63
2173.99
2174.03
2173.91
2173.61
2174.2
2174.42
2174.38
2174.13
2174.38
2174.42
2174.36
2174.19
2174.52
2174.65
2174.66
2174.55
2174.64
2174.67
2174.67
2174.64
2174.59
2174.59
2174.63
2174.65
2174.53
2174.47
2174.63
2174.37
5.49458
12.6123
98.984
560.253
901.968
1021.5
1072.02
1112.25
1154.17
1198.25
1243.88
1290.09
1336.48
1382.71
1428.8
1474.28
1518.91
1562.27
1604.58
1645
1683.22
1718.87
1752.16
1782.54
1809.99
1834.32
1856.5
1875.84
1892.55
1906.74
1919.29
1929.88
1938.79
1945.94
1952.88
1958.55
1963.15
1966.59
1969.99
1972.67
1974.75
1975.96
1978.06
1979.63
1980.7
1981.03
1981.97
1982.57
1982.84
1982.47
1983.41
1984.02
1984.22
1983.78
1984.17
1984.32
1984.22
1983.5
1984.24
1984.7
1984.72
1984.11
1984.4
1984.45
1984.3
1983.59
1984.33
1984.75
1984.73
1984.08
1984.35
1984.39
1984.24
1983.62
1984.4
1984.81
1984.79
1984.24
1984.54
1984.56
1984.38
1983.87
1984.59
1984.94
1984.89
1984.44
1984.81
1984.83
1984.67
1984.28
1984.94
1985.23
1985.17
1984.83
1985.14
1985.17
1985.06
1984.78
1985.31
1985.51
1985.47
1985.23
1985.45
1985.49
1985.43
1985.26
1985.56
1985.67
1985.67
1985.57
1985.65
1985.66
1985.66
1985.62
1985.57
1985.56
1985.6
1985.61
1985.5
1985.44
1985.59
1985.34
3.96845
7.30275
61.2966
465.222
819.312
948.116
995.615
1028.77
1063.07
1099.92
1138.78
1178.66
1219.05
1259.57
1300.2
1340.48
1380.16
1418.9
1456.87
1493.33
1528.01
1560.56
1591.15
1619.28
1644.86
1667.71
1688.64
1707
1722.97
1736.59
1748.68
1758.92
1767.59
1774.6
1781.33
1786.89
1791.42
1794.84
1798.19
1800.85
1802.94
1804.22
1806.26
1807.82
1808.9
1809.3
1810.22
1810.83
1811.14
1810.86
1811.74
1812.33
1812.54
1812.17
1812.54
1812.69
1812.6
1811.97
1812.64
1813.06
1813.1
1812.55
1812.81
1812.86
1812.72
1812.08
1812.74
1813.12
1813.11
1812.52
1812.76
1812.79
1812.65
1812.09
1812.78
1813.15
1813.14
1812.64
1812.9
1812.91
1812.74
1812.28
1812.92
1813.23
1813.19
1812.78
1813.1
1813.11
1812.96
1812.61
1813.19
1813.45
1813.4
1813.09
1813.36
1813.39
1813.28
1813.02
1813.49
1813.66
1813.62
1813.41
1813.59
1813.62
1813.56
1813.41
1813.67
1813.77
1813.76
1813.66
1813.73
1813.74
1813.73
1813.69
1813.64
1813.62
1813.65
1813.65
1813.55
1813.49
1813.63
1813.39
3.0839
4.7013
34.953
364.523
725.291
871.023
920.898
949.686
977.823
1008.37
1041.16
1075.28
1110.21
1145.51
1181.12
1216.63
1251.78
1286.26
1320.23
1353.03
1384.43
1414.1
1442.19
1468.21
1492.07
1513.55
1533.33
1550.81
1566.1
1579.24
1590.91
1600.87
1609.33
1616.23
1622.8
1628.27
1632.75
1636.19
1639.5
1642.16
1644.27
1645.62
1647.62
1649.17
1650.27
1650.74
1651.65
1652.28
1652.61
1652.42
1653.24
1653.82
1654.05
1653.75
1654.09
1654.24
1654.18
1653.63
1654.22
1654.62
1654.66
1654.19
1654.41
1654.45
1654.33
1653.76
1654.33
1654.68
1654.68
1654.16
1654.36
1654.38
1654.25
1653.75
1654.35
1654.69
1654.68
1654.23
1654.45
1654.46
1654.31
1653.89
1654.44
1654.73
1654.7
1654.33
1654.6
1654.61
1654.47
1654.14
1654.65
1654.89
1654.84
1654.56
1654.79
1654.81
1654.71
1654.47
1654.88
1655.04
1655
1654.8
1654.96
1654.98
1654.92
1654.78
1655
1655.09
1655.08
1654.99
1655.03
1655.04
1655.03
1654.98
1654.93
1654.91
1654.93
1654.93
1654.84
1654.78
1654.9
1654.67
2.5551
3.34569
18.6115
264.558
618.25
786.513
844.975
872.837
896.642
921.985
949.466
978.435
1008.4
1038.94
1069.95
1101.05
1132.02
1162.55
1192.8
1222.19
1250.5
1277.46
1303.17
1327.18
1349.38
1369.54
1388.21
1404.84
1419.48
1432.16
1443.45
1453.13
1461.41
1468.22
1474.64
1480.02
1484.47
1487.93
1491.21
1493.87
1496.01
1497.44
1499.39
1500.94
1502.06
1502.61
1503.5
1504.15
1504.52
1504.42
1505.18
1505.74
1505.99
1505.76
1506.08
1506.23
1506.2
1505.73
1506.24
1506.61
1506.67
1506.26
1506.44
1506.48
1506.38
1505.88
1506.37
1506.68
1506.69
1506.24
1506.39
1506.42
1506.3
1505.86
1506.36
1506.67
1506.67
1506.28
1506.45
1506.46
1506.32
1505.94
1506.41
1506.67
1506.65
1506.32
1506.54
1506.55
1506.42
1506.13
1506.56
1506.77
1506.74
1506.49
1506.68
1506.69
1506.6
1506.39
1506.73
1506.87
1506.84
1506.66
1506.79
1506.81
1506.75
1506.62
1506.8
1506.88
1506.87
1506.78
1506.82
1506.81
1506.8
1506.75
1506.7
1506.68
1506.69
1506.68
1506.6
1506.54
1506.65
1506.42
2.23586
2.59637
9.66712
173.964
499.543
691.378
764.846
796.044
817.877
839.39
862.468
886.946
912.486
938.716
965.528
992.585
1019.68
1046.56
1073.32
1099.5
1124.89
1149.25
1172.66
1194.71
1215.28
1234.12
1251.67
1267.44
1281.43
1293.63
1304.52
1313.92
1322
1328.71
1334.97
1340.27
1344.68
1348.16
1351.4
1354.07
1356.22
1357.73
1359.63
1361.17
1362.32
1362.94
1363.83
1364.48
1364.89
1364.88
1365.58
1366.12
1366.39
1366.24
1366.52
1366.68
1366.67
1366.28
1366.72
1367.06
1367.13
1366.79
1366.93
1366.98
1366.89
1366.46
1366.86
1367.15
1367.17
1366.78
1366.89
1366.91
1366.81
1366.43
1366.84
1367.11
1367.12
1366.79
1366.92
1366.92
1366.8
1366.47
1366.86
1367.08
1367.07
1366.79
1366.96
1366.97
1366.86
1366.6
1366.95
1367.14
1367.12
1366.9
1367.05
1367.06
1366.98
1366.79
1367.07
1367.2
1367.17
1367.01
1367.11
1367.12
1367.07
1366.95
1367.1
1367.17
1367.16
1367.08
1367.1
1367.09
1367.07
1367.03
1366.98
1366.95
1366.96
1366.94
1366.87
1366.81
1366.9
1366.68
2.04594
2.16651
5.25679
101.17
374.692
583.744
677.48
716.954
739.829
759.289
779.092
799.869
821.584
844
867.029
890.404
913.945
937.434
960.947
984.101
1006.71
1028.57
1049.73
1069.84
1088.76
1106.26
1122.65
1137.51
1150.79
1162.47
1172.92
1182.01
1189.85
1196.43
1202.51
1207.7
1212.05
1215.54
1218.73
1221.39
1223.55
1225.13
1226.97
1228.5
1229.67
1230.36
1231.23
1231.9
1232.34
1232.41
1233.05
1233.57
1233.86
1233.78
1234.04
1234.2
1234.21
1233.9
1234.27
1234.57
1234.65
1234.38
1234.5
1234.54
1234.46
1234.11
1234.43
1234.68
1234.71
1234.39
1234.46
1234.48
1234.39
1234.06
1234.39
1234.63
1234.65
1234.37
1234.46
1234.46
1234.36
1234.07
1234.38
1234.58
1234.58
1234.34
1234.47
1234.47
1234.37
1234.16
1234.43
1234.6
1234.59
1234.4
1234.51
1234.52
1234.45
1234.28
1234.51
1234.62
1234.6
1234.46
1234.53
1234.54
1234.49
1234.39
1234.5
1234.56
1234.55
1234.48
1234.49
1234.48
1234.45
1234.41
1234.36
1234.33
1234.33
1234.32
1234.25
1234.19
1234.27
1234.06
1.93766
1.91833
3.20436
51.0289
253.735
464.481
580.272
633.025
660.608
680.301
698.28
716.341
734.952
754.123
773.835
793.916
814.234
834.616
855.116
875.432
895.403
914.853
933.804
951.98
969.226
985.329
1000.49
1014.37
1026.87
1037.95
1047.9
1056.6
1064.16
1070.57
1076.43
1081.47
1085.73
1089.19
1092.32
1094.94
1097.1
1098.72
1100.5
1102.01
1103.19
1103.94
1104.79
1105.47
1105.93
1106.08
1106.66
1107.16
1107.47
1107.45
1107.69
1107.85
1107.88
1107.65
1107.94
1108.21
1108.31
1108.1
1108.19
1108.22
1108.17
1107.88
1108.12
1108.33
1108.37
1108.12
1108.17
1108.17
1108.1
1107.83
1108.08
1108.28
1108.31
1108.09
1108.15
1108.14
1108.05
1107.81
1108.04
1108.21
1108.22
1108.03
1108.12
1108.12
1108.04
1107.85
1108.06
1108.2
1108.2
1108.05
1108.12
1108.13
1108.07
1107.93
1108.1
1108.19
1108.18
1108.07
1108.11
1108.12
1108.07
1107.98
1108.06
1108.11
1108.1
1108.04
1108.04
1108.03
1108
1107.96
1107.92
1107.89
1107.88
1107.86
1107.8
1107.75
1107.81
1107.61
1.88026
1.7792
2.25925
22.423
149.607
338.952
472.098
541.777
578.088
600.846
618.864
635.467
651.876
668.483
685.428
702.661
720.127
737.71
755.456
773.14
790.626
807.767
824.572
840.819
856.362
871.007
884.875
897.672
909.301
919.689
929.044
937.289
944.489
950.644
956.235
961.077
965.199
968.592
971.624
974.187
976.319
977.967
979.671
981.136
982.309
983.108
983.936
984.609
985.099
985.315
985.839
986.31
986.623
986.669
986.884
987.043
987.098
986.937
987.167
987.401
987.501
987.357
987.42
987.451
987.411
987.185
987.361
987.537
987.582
987.388
987.411
987.412
987.35
987.137
987.316
987.483
987.517
987.344
987.377
987.368
987.292
987.101
987.265
987.403
987.418
987.27
987.326
987.324
987.255
987.103
987.255
987.369
987.373
987.253
987.303
987.305
987.253
987.138
987.259
987.336
987.332
987.242
987.269
987.266
987.229
987.151
987.208
987.242
987.236
987.184
987.177
987.16
987.138
987.099
987.057
987.025
987.012
986.991
986.943
986.892
986.936
986.745
1.85287
1.70643
1.82184
9.14221
73.6689
218.151
355.11
441.565
490.08
519.094
539.458
556.207
571.557
586.444
601.299
616.221
631.269
646.412
661.705
676.997
692.183
707.149
721.891
736.24
750.066
763.199
775.697
787.322
797.968
807.555
816.219
823.903
830.654
836.476
841.731
846.311
850.239
853.513
856.412
858.88
860.95
862.591
864.208
865.614
866.762
867.588
868.388
869.049
869.549
869.821
870.293
870.731
871.045
871.142
871.341
871.496
871.567
871.468
871.646
871.844
871.946
871.857
871.903
871.93
871.902
871.734
871.854
871.994
872.041
871.902
871.908
871.903
871.853
871.689
871.81
871.94
871.977
871.852
871.864
871.852
871.79
871.64
871.748
871.856
871.876
871.766
871.797
871.792
871.736
871.615
871.717
871.806
871.815
871.726
871.753
871.751
871.709
871.617
871.698
871.758
871.759
871.689
871.701
871.695
871.663
871.599
871.633
871.657
871.652
871.609
871.597
871.58
871.557
871.522
871.483
871.452
871.436
871.413
871.372
871.326
871.355
871.18
1.84149
1.67239
1.6235
3.98902
29.531
117.262
236.94
333.186
394.977
433.132
458.433
477.289
493.019
507.259
520.848
534.127
547.291
560.427
573.628
586.822
599.943
612.91
625.714
638.233
650.359
661.951
673.023
683.39
692.949
701.62
709.482
716.498
722.698
728.09
732.935
737.18
740.849
743.944
746.666
748.997
750.968
752.566
754.079
755.403
756.505
757.334
758.099
758.737
759.234
759.545
759.972
760.372
760.678
760.815
761
761.149
761.232
761.186
761.323
761.485
761.584
761.54
761.576
761.599
761.582
761.464
761.54
761.646
761.691
761.599
761.595
761.586
761.546
761.425
761.498
761.595
761.631
761.546
761.546
761.531
761.481
761.368
761.432
761.511
761.532
761.456
761.469
761.461
761.417
761.325
761.386
761.451
761.463
761.4
761.412
761.407
761.373
761.303
761.351
761.394
761.398
761.347
761.348
761.339
761.313
761.262
761.278
761.293
761.289
761.255
761.24
761.222
761.2
761.168
761.134
761.104
761.086
761.062
761.029
760.987
761.002
760.84
1.8375
1.65874
1.53978
2.20116
10.1583
49.4111
131.661
222.351
293.262
341.599
374.118
397.22
415.044
429.962
443.304
455.772
467.719
479.385
490.94
502.401
513.756
524.961
536.01
546.822
557.315
567.378
577
586.046
594.427
602.075
609.029
615.267
620.81
625.67
630.023
633.858
637.197
640.045
642.542
644.692
646.524
648.038
649.429
650.65
651.682
652.489
653.208
653.811
654.294
654.627
655.011
655.371
655.66
655.823
655.996
656.137
656.227
656.223
656.329
656.459
656.55
656.541
656.571
656.591
656.583
656.506
656.551
656.625
656.666
656.611
656.602
656.591
656.56
656.475
656.514
656.58
656.612
656.56
656.553
656.537
656.498
656.416
656.449
656.5
656.52
656.471
656.473
656.463
656.429
656.362
656.394
656.437
656.449
656.408
656.409
656.402
656.376
656.323
656.348
656.376
656.38
656.346
656.34
656.33
656.308
656.268
656.273
656.279
656.275
656.249
656.233
656.215
656.196
656.168
656.138
656.11
656.091
656.068
656.04
656.005
656.007
655.865
1.83635
1.65424
1.5087
1.61241
3.67105
16.0326
55.8913
121.833
190.123
245.265
285.542
314.578
336.252
353.356
367.686
380.32
391.891
402.761
413.226
423.415
433.384
443.139
452.688
461.985
470.974
479.578
487.776
495.478
502.623
509.162
515.117
520.477
525.265
529.494
533.28
536.631
539.571
542.107
544.331
546.256
547.91
549.3
550.552
551.65
552.591
553.351
554.014
554.572
555.027
555.365
555.709
556.027
556.293
556.467
556.63
556.761
556.853
556.88
556.965
557.066
557.146
557.16
557.189
557.206
557.206
557.16
557.185
557.234
557.267
557.239
557.231
557.219
557.195
557.138
557.156
557.195
557.22
557.192
557.184
557.168
557.139
557.082
557.094
557.123
557.139
557.111
557.107
557.096
557.071
557.024
557.036
557.061
557.07
557.045
557.042
557.033
557.013
556.976
556.985
557.001
557.004
556.981
556.974
556.962
556.944
556.915
556.912
556.912
556.907
556.888
556.873
556.856
556.838
556.815
556.79
556.765
556.746
556.725
556.701
556.672
556.666
556.538
1.8361
1.65306
1.49905
1.42861
1.84996
4.72567
17.1137
49.1255
98.1525
149.878
194.252
228.983
255.558
276.207
292.822
306.75
318.896
329.803
339.869
349.359
358.424
367.132
375.52
383.575
391.268
398.554
405.416
411.81
417.711
423.098
427.995
432.409
436.367
439.887
443.044
445.854
448.341
450.514
452.426
454.093
455.539
456.774
457.873
458.837
459.671
460.364
460.963
461.467
461.886
462.215
462.523
462.8
463.038
463.212
463.364
463.486
463.576
463.623
463.695
463.772
463.84
463.868
463.896
463.913
463.917
463.895
463.909
463.938
463.962
463.951
463.946
463.936
463.919
463.883
463.887
463.908
463.924
463.912
463.905
463.891
463.87
463.833
463.833
463.846
463.855
463.841
463.836
463.825
463.806
463.775
463.777
463.787
463.793
463.78
463.775
463.765
463.75
463.726
463.726
463.731
463.733
463.719
463.711
463.701
463.686
463.665
463.658
463.654
463.648
463.634
463.622
463.607
463.592
463.572
463.552
463.531
463.513
463.494
463.475
463.452
463.44
463.333
1.83605
1.65283
1.49665
1.37746
1.38282
1.89217
4.44124
13.5218
35.1565
69.0702
107.557
143.369
173.539
197.996
217.762
233.999
247.681
259.53
270.013
279.498
288.25
296.414
304.072
311.246
317.936
324.126
329.821
335.019
339.737
343.997
347.839
351.294
354.399
357.181
359.688
361.939
363.954
365.742
367.33
368.73
369.959
371.027
371.973
372.805
373.532
374.15
374.684
375.136
375.516
375.827
376.105
376.348
376.559
376.726
376.867
376.98
377.069
377.127
377.191
377.253
377.308
377.342
377.371
377.388
377.397
377.39
377.4
377.416
377.432
377.431
377.43
377.422
377.41
377.389
377.388
377.395
377.405
377.4
377.396
377.385
377.37
377.347
377.343
377.345
377.349
377.342
377.338
377.328
377.315
377.296
377.292
377.294
377.296
377.289
377.284
377.276
377.265
377.249
377.246
377.245
377.244
377.236
377.23
377.221
377.21
377.195
377.187
377.181
377.175
377.165
377.155
377.143
377.13
377.115
377.099
377.083
377.067
377.051
377.035
377.017
377.003
376.912
1.83604
1.65279
1.49617
1.36561
1.27412
1.28579
1.64624
3.20661
8.25907
20.35
41.0825
67.6856
95.406
120.919
143.019
161.721
177.515
190.992
202.681
212.913
222.018
230.225
237.666
244.402
250.462
255.865
260.646
264.853
268.552
271.813
274.708
277.293
279.62
281.725
283.644
285.391
286.983
288.425
289.728
290.895
291.937
292.861
293.684
294.411
295.052
295.609
296.093
296.507
296.859
297.156
297.415
297.637
297.83
297.99
298.125
298.234
298.321
298.389
298.45
298.504
298.552
298.588
298.617
298.636
298.648
298.652
298.662
298.671
298.681
298.685
298.687
298.682
298.675
298.664
298.662
298.663
298.666
298.664
298.662
298.655
298.645
298.632
298.627
298.624
298.624
298.62
298.617
298.61
298.601
298.59
298.586
298.583
298.582
298.578
298.574
298.568
298.56
298.551
298.547
298.543
298.541
298.536
298.531
298.524
298.516
298.507
298.5
298.494
298.488
298.481
298.473
298.464
298.454
298.443
298.432
298.419
298.407
298.394
298.382
298.369
298.355
298.283
1.83604
1.65279
1.49609
1.36339
1.25287
1.17065
1.14898
1.29815
1.96152
4.04771
9.27336
19.4297
34.8191
53.7078
73.5312
92.3547
109.316
124.266
137.362
148.851
158.882
167.691
175.439
182.212
188.066
193.061
197.28
200.826
203.821
206.381
208.611
210.592
212.386
214.034
215.565
216.989
218.316
219.548
220.685
221.724
222.67
223.523
224.292
224.977
225.586
226.123
226.595
227.002
227.353
227.655
227.916
228.139
228.331
228.494
228.633
228.747
228.84
228.917
228.983
229.037
229.084
229.122
229.154
229.177
229.193
229.205
229.217
229.225
229.233
229.238
229.242
229.241
229.238
229.234
229.234
229.232
229.231
229.231
229.23
229.226
229.22
229.213
229.209
229.205
229.203
229.2
229.198
229.193
229.188
229.182
229.178
229.174
229.172
229.169
229.167
229.162
229.158
229.152
229.149
229.145
229.142
229.139
229.136
229.132
229.126
229.121
229.116
229.111
229.106
229.101
229.096
229.09
229.083
229.075
229.068
229.059
229.051
229.041
229.033
229.023
229.012
228.956
1.83604
1.65278
1.49606
1.36301
1.24955
1.15262
1.07345
1.02241
1.03356
1.20599
1.80091
3.39311
6.91626
13.3203
22.9558
35.2389
48.9373
62.7843
75.9215
87.9589
98.8149
108.388
116.729
123.882
129.915
134.933
139.075
142.498
145.362
147.808
149.95
151.87
153.63
155.266
156.802
158.245
159.601
160.87
162.051
163.14
164.138
165.047
165.868
166.605
167.262
167.844
168.358
168.806
169.196
169.534
169.826
170.076
170.29
170.473
170.63
170.76
170.869
170.961
171.039
171.102
171.155
171.199
171.237
171.266
171.288
171.307
171.322
171.333
171.342
171.349
171.355
171.358
171.358
171.358
171.359
171.358
171.357
171.357
171.357
171.355
171.352
171.349
171.347
171.343
171.34
171.339
171.337
171.334
171.331
171.328
171.326
171.323
171.32
171.318
171.317
171.314
171.311
171.309
171.307
171.304
171.302
171.3
171.298
171.295
171.292
171.289
171.287
171.283
171.28
171.277
171.274
171.27
171.266
171.262
171.257
171.252
171.247
171.241
171.236
171.23
171.222
171.181
1.83603
1.65278
1.49604
1.3629
1.24904
1.15034
1.06432
0.989992
0.928677
0.886892
0.883782
0.969612
1.26509
2.02074
3.65345
6.67258
11.483
18.1711
26.4222
35.6205
45.069
54.1945
62.5284
69.9089
76.3438
81.9263
86.777
91.0133
94.7411
98.0492
101.01
103.682
106.11
108.329
110.367
112.239
113.961
115.542
116.99
118.31
119.509
120.592
121.565
122.435
123.208
123.892
124.494
125.021
125.48
125.878
126.223
126.518
126.772
126.988
127.173
127.33
127.461
127.573
127.666
127.744
127.808
127.862
127.908
127.944
127.974
127.998
128.019
128.034
128.046
128.056
128.064
128.069
128.073
128.076
128.079
128.079
128.079
128.079
128.08
128.079
128.078
128.077
128.076
128.074
128.072
128.07
128.069
128.068
128.066
128.064
128.063
128.061
128.06
128.058
128.057
128.056
128.055
128.054
128.053
128.051
128.05
128.049
128.048
128.047
128.045
128.044
128.043
128.041
128.04
128.038
128.037
128.035
128.033
128.031
128.028
128.026
128.023
128.02
128.017
128.014
128.009
127.979
1.83603
1.65278
1.49603
1.36285
1.24894
1.15007
1.06345
0.987151
0.919734
0.860343
0.809037
0.767694
0.742136
0.747146
0.817698
1.02848
1.51801
2.49957
4.23465
6.96471
10.8304
15.826
21.7886
28.3786
35.2242
41.9954
48.4457
54.4208
59.8475
64.713
69.0436
72.8867
76.2978
79.3318
82.0387
84.4607
86.6334
88.5854
90.3397
91.9152
93.3276
94.5908
95.7169
96.7171
97.602
98.3821
99.0669
99.6653
100.186
100.638
101.028
101.364
101.652
101.898
102.108
102.286
102.437
102.564
102.671
102.761
102.835
102.898
102.95
102.993
103.028
103.057
103.081
103.1
103.115
103.127
103.137
103.145
103.15
103.155
103.158
103.16
103.162
103.163
103.163
103.163
103.163
103.163
103.162
103.161
103.16
103.159
103.158
103.157
103.156
103.155
103.154
103.153
103.152
103.151
103.15
103.15
103.149
103.148
103.148
103.147
103.147
103.146
103.146
103.145
103.145
103.144
103.144
103.143
103.142
103.142
103.141
103.14
103.14
103.139
103.138
103.136
103.135
103.133
103.132
103.13
103.127
103.104
1.83603
1.65278
1.49603
1.36286
1.24894
1.15007
1.06346
0.987158
0.919745
0.860361
0.809059
0.76771
0.742096
0.746877
0.81667
1.02532
1.50938
2.4784
4.1892
6.88041
10.6934
15.6314
21.5303
28.0605
34.856
41.5896
48.0142
53.9738
59.3931
64.257
68.59
72.4384
75.8565
78.8984
81.6135
84.044
86.2249
88.1847
89.9462
91.5285
92.9473
94.2161
95.3473
96.3522
97.2414
98.0252
98.7133
99.3149
99.8388
100.293
100.686
101.023
101.313
101.561
101.772
101.952
102.104
102.232
102.34
102.431
102.506