/*--------------------------------*- C++ -*----------------------------------*\
  =========                 |
  \\      /  F ield         | OpenFOAM: The Open Source CFD Toolbox
   \\    /   O peration     | Website:  https://openfoam.org
    \\  /    A nd           | Version:  8
     \\/     M anipulation  |
\*---------------------------------------------------------------------------*/
FoamFile
{
    version     2.0;
    format      ascii;
    class       volScalarField;
    location    "150";
    object      k;
}
// * * * * * * * * * * * * * * * * * * * * * * * * * * * * * * * * * * * * * //

dimensions      [0 2 -2 0 0 0 0];

internalField   nonuniform List<scalar> 
7320
(
6.07071
5.52382
5.28022
5.57995
6.23705
6.72641
7.09196
7.40392
7.68895
7.95624
8.21074
8.45502
8.69048
8.91795
9.13829
9.35133
9.55643
9.75254
9.93962
10.116
10.2802
10.4309
10.5684
10.6921
10.802
10.8982
10.9832
11.057
11.1204
11.1742
11.2204
11.2598
11.2929
11.3199
11.3439
11.3643
11.381
11.3941
11.4056
11.4153
11.423
11.4281
11.434
11.4391
11.443
11.4449
11.4474
11.4495
11.4508
11.4504
11.452
11.4537
11.4545
11.4539
11.4545
11.455
11.455
11.4536
11.4545
11.4556
11.4559
11.4548
11.4551
11.4554
11.4553
11.4539
11.4548
11.4559
11.4561
11.455
11.4553
11.4556
11.4555
11.4543
11.4554
11.4565
11.4568
11.456
11.4564
11.4567
11.4566
11.4557
11.4568
11.4578
11.458
11.4574
11.458
11.4583
11.4583
11.4577
11.4587
11.4596
11.4598
11.4594
11.4599
11.4603
11.4603
11.46
11.4609
11.4616
11.4618
11.4615
11.462
11.4623
11.4624
11.4623
11.4628
11.4633
11.4635
11.4636
11.4638
11.464
11.4642
11.4643
11.4643
11.4644
11.4646
11.4647
11.4646
11.4645
11.4646
11.4641
4.83607
5.64219
5.59069
7.29795
9.57338
10.963
11.8807
12.6031
13.2318
13.8031
14.3356
14.8377
15.3154
15.7718
16.2108
16.6322
17.0358
17.4201
17.7868
18.1315
18.4518
18.7454
19.0137
19.2546
19.4685
19.6553
19.8217
19.9657
20.0891
20.1932
20.2838
20.3603
20.4246
20.4762
20.5242
20.5643
20.597
20.6216
20.6447
20.6635
20.6781
20.6869
20.6999
20.7104
20.7178
20.7206
20.7261
20.7301
20.7321
20.73
20.7348
20.7386
20.7401
20.7377
20.7396
20.7405
20.7401
20.7358
20.7393
20.7421
20.7426
20.7392
20.7404
20.7408
20.7402
20.736
20.7397
20.7422
20.7425
20.739
20.7401
20.7405
20.7399
20.7364
20.7403
20.7429
20.7433
20.7404
20.7418
20.7422
20.7415
20.7386
20.7423
20.7446
20.7448
20.7424
20.7443
20.7447
20.7442
20.7421
20.7455
20.7474
20.7475
20.7458
20.7474
20.7479
20.7476
20.7461
20.7489
20.7503
20.7504
20.7493
20.7505
20.751
20.7509
20.7501
20.7517
20.7526
20.7529
20.7525
20.753
20.7533
20.7534
20.7534
20.7532
20.7532
20.7535
20.7536
20.7532
20.7527
20.7536
20.7513
3.59127
5.01921
5.4306
8.74274
11.9779
13.8265
15.0253
15.9619
16.7737
17.5094
18.1939
18.8385
19.4508
20.0355
20.5974
21.1364
21.6525
22.1437
22.6124
23.0526
23.4617
23.8365
24.1792
24.4868
24.76
24.9984
25.2111
25.395
25.5527
25.6856
25.8014
25.8992
25.9813
26.0471
26.1087
26.16
26.2017
26.2332
26.2628
26.2867
26.3054
26.3165
26.3334
26.3468
26.3563
26.3597
26.3669
26.372
26.3745
26.3717
26.3781
26.3829
26.3849
26.3816
26.3842
26.3854
26.3847
26.3791
26.3839
26.3874
26.388
26.3835
26.3853
26.3857
26.3849
26.3793
26.3843
26.3876
26.3879
26.3832
26.3848
26.3853
26.3844
26.3798
26.3851
26.3884
26.3888
26.3849
26.387
26.3873
26.3864
26.3825
26.3875
26.3904
26.3906
26.3875
26.3901
26.3905
26.3897
26.3869
26.3915
26.394
26.394
26.3917
26.394
26.3945
26.394
26.3921
26.3958
26.3976
26.3977
26.3962
26.3978
26.3984
26.3982
26.3972
26.3993
26.4004
26.4007
26.4002
26.4008
26.4012
26.4013
26.4012
26.401
26.401
26.4014
26.4015
26.4009
26.4002
26.4015
26.3984
2.74412
4.45606
5.38741
9.99298
13.8953
16.0592
17.4525
18.5392
19.4809
20.3342
21.1283
21.8759
22.5861
23.2642
23.916
24.5413
25.14
25.7098
26.2537
26.7647
27.2396
27.6749
28.0732
28.4308
28.7485
29.026
29.2738
29.4881
29.6719
29.8269
29.9622
30.0762
30.1721
30.2489
30.3211
30.381
30.4298
30.4665
30.5013
30.5293
30.5512
30.5642
30.5841
30.5998
30.6109
30.6148
30.6234
30.6293
30.6323
30.629
30.6367
30.6423
30.6445
30.6407
30.6438
30.6452
30.6444
30.6377
30.6435
30.6476
30.6483
30.6429
30.6451
30.6456
30.6446
30.6381
30.644
30.6478
30.6482
30.6425
30.6446
30.6451
30.644
30.6385
30.6449
30.6488
30.6492
30.6446
30.647
30.6474
30.6462
30.6417
30.6477
30.651
30.6512
30.6475
30.6506
30.6511
30.6501
30.6468
30.6523
30.6551
30.6551
30.6523
30.655
30.6556
30.655
30.6527
30.6572
30.6592
30.6593
30.6575
30.6594
30.66
30.6599
30.6586
30.6611
30.6624
30.6627
30.6621
30.6628
30.6632
30.6634
30.6633
30.6629
30.663
30.6634
30.6636
30.6628
30.662
30.6635
30.6599
2.1016
3.88404
5.37409
11.0928
15.5521
17.9748
19.5253
20.733
21.78
22.7292
23.6129
24.4451
25.236
25.9913
26.7175
27.4144
28.0818
28.7173
29.3243
29.8948
30.4255
30.9125
31.3586
31.7595
32.1161
32.4279
32.7067
32.948
33.1551
33.33
33.4827
33.6116
33.7199
33.8069
33.8887
33.9565
34.0118
34.0536
34.0931
34.1249
34.1498
34.1647
34.1874
34.2052
34.2179
34.2225
34.2323
34.2391
34.2425
34.2388
34.2476
34.254
34.2565
34.2523
34.2558
34.2574
34.2565
34.249
34.2556
34.2603
34.2609
34.2549
34.2574
34.258
34.2568
34.2495
34.2562
34.2605
34.2608
34.2545
34.2568
34.2573
34.2562
34.25
34.2571
34.2615
34.2619
34.2567
34.2595
34.2599
34.2585
34.2534
34.2602
34.2639
34.2641
34.2599
34.2634
34.2639
34.2627
34.259
34.2652
34.2683
34.2683
34.2652
34.2682
34.2688
34.2682
34.2655
34.2706
34.2728
34.2729
34.2708
34.273
34.2737
34.2734
34.272
34.2748
34.2763
34.2766
34.2758
34.2767
34.2771
34.2773
34.2771
34.2767
34.2767
34.2772
34.2774
34.2765
34.2756
34.2773
34.2733
1.6154
3.29314
5.33443
12.0576
17.0339
19.6902
21.3777
22.6894
23.8267
24.8584
25.8195
26.725
27.5859
28.4084
29.1996
29.9591
30.6869
31.3804
32.0434
32.6673
33.2483
33.7823
34.2723
34.7134
35.1064
35.4507
35.7591
36.0263
36.256
36.4503
36.6202
36.7636
36.8844
36.9816
37.0729
37.1487
37.2106
37.2574
37.3019
37.3375
37.3655
37.3825
37.4081
37.4281
37.4423
37.4477
37.4588
37.4664
37.4704
37.4666
37.4765
37.4835
37.4864
37.4818
37.4858
37.4875
37.4866
37.4785
37.4858
37.4909
37.4916
37.4851
37.4879
37.4885
37.4871
37.4791
37.4865
37.4912
37.4915
37.4846
37.4872
37.4877
37.4864
37.4796
37.4875
37.4921
37.4926
37.4868
37.4899
37.4903
37.4888
37.4832
37.4906
37.4946
37.4948
37.4902
37.494
37.4945
37.4932
37.4891
37.4959
37.4993
37.4992
37.4958
37.4991
37.4998
37.499
37.4961
37.5016
37.504
37.5041
37.5018
37.5042
37.5048
37.5046
37.5029
37.5061
37.5076
37.5079
37.5071
37.508
37.5084
37.5086
37.5083
37.5079
37.5079
37.5084
37.5086
37.5076
37.5067
37.5085
37.5041
1.26795
2.69778
5.22534
12.8776
18.3699
21.2533
23.0667
24.4711
25.6881
26.7927
27.8223
28.7928
29.716
30.5984
31.4477
32.2634
33.0457
33.7918
34.506
35.1789
35.8069
36.3852
36.917
37.3969
37.8255
38.2019
38.5397
38.8329
39.0855
39.2996
39.487
39.6455
39.7793
39.8872
39.9885
40.0726
40.1414
40.1939
40.2434
40.2832
40.3147
40.3341
40.3626
40.3849
40.4009
40.4073
40.4198
40.4284
40.433
40.4292
40.4402
40.4479
40.4512
40.4464
40.4509
40.4528
40.4519
40.4432
40.4512
40.4567
40.4575
40.4504
40.4535
40.4541
40.4526
40.444
40.452
40.457
40.4574
40.4499
40.4527
40.4532
40.4517
40.4444
40.4529
40.4579
40.4583
40.4521
40.4554
40.4558
40.4541
40.4481
40.4561
40.4604
40.4605
40.4555
40.4596
40.4601
40.4587
40.4542
40.4615
40.4651
40.465
40.4613
40.4649
40.4655
40.4646
40.4615
40.4674
40.47
40.47
40.4675
40.47
40.4707
40.4704
40.4686
40.472
40.4736
40.4739
40.4729
40.4739
40.4743
40.4744
40.4742
40.4737
40.4736
40.4741
40.4743
40.4732
40.4722
40.4742
40.4693
1.04457
2.12983
5.01292
13.523
19.5597
22.6801
24.616
26.1056
27.3945
28.5644
29.6554
30.6842
31.6633
32.5997
33.5014
34.3681
35.2001
35.9945
36.7561
37.4751
38.1474
38.7682
39.3407
39.8587
40.3228
40.7317
41.0994
41.4194
41.6958
41.9307
42.1365
42.3111
42.4586
42.5781
42.6901
42.7832
42.8596
42.9182
42.9734
43.0178
43.0531
43.0753
43.107
43.1319
43.1499
43.1575
43.1716
43.1813
43.1867
43.1831
43.1951
43.2036
43.2074
43.2025
43.2074
43.2096
43.2087
43.1995
43.2081
43.214
43.2149
43.2074
43.2107
43.2114
43.2098
43.2006
43.2091
43.2144
43.2148
43.2068
43.2098
43.2103
43.2087
43.2009
43.2099
43.2152
43.2156
43.209
43.2125
43.2129
43.211
43.2045
43.213
43.2176
43.2176
43.2123
43.2166
43.2171
43.2155
43.2107
43.2185
43.2223
43.2222
43.2181
43.2219
43.2226
43.2215
43.2181
43.2245
43.2271
43.2271
43.2244
43.2271
43.2278
43.2273
43.2254
43.2289
43.2306
43.2309
43.2298
43.2308
43.2312
43.2313
43.231
43.2304
43.2303
43.2308
43.231
43.2298
43.2287
43.2309
43.2256
0.919947
1.63281
4.67459
13.9474
20.5822
23.9676
26.0307
27.6023
28.9573
30.1865
31.3329
32.4142
33.4436
34.4287
35.378
36.2911
37.1686
38.0075
38.8132
39.5754
40.29
40.952
41.5643
42.1203
42.6202
43.0622
43.4608
43.8087
44.1101
44.367
44.5926
44.7843
44.9468
45.079
45.2025
45.3055
45.3903
45.4558
45.5172
45.5668
45.6064
45.632
45.6671
45.6949
45.7152
45.7243
45.74
45.7511
45.7574
45.7542
45.7673
45.7767
45.781
45.7762
45.7816
45.784
45.7832
45.7737
45.7828
45.789
45.7901
45.7823
45.7857
45.7864
45.7848
45.7752
45.7841
45.7896
45.79
45.7817
45.7847
45.7852
45.7835
45.7752
45.7847
45.7902
45.7907
45.7837
45.7873
45.7876
45.7856
45.7788
45.7876
45.7923
45.7924
45.7867
45.7912
45.7917
45.79
45.7849
45.793
45.7969
45.7968
45.7925
45.7964
45.797
45.7959
45.7923
45.7989
45.8016
45.8016
45.7987
45.8014
45.8021
45.8016
45.7995
45.8032
45.8049
45.8052
45.8039
45.8049
45.8053
45.8054
45.8049
45.8043
45.8042
45.8047
45.8048
45.8035
45.8023
45.8046
45.7989
0.860498
1.24928
4.20503
14.0917
21.3973
25.0975
27.3033
28.9583
30.3764
31.6602
32.8569
33.9857
35.0606
36.0896
37.0818
38.037
38.9559
39.8358
40.6823
41.4852
42.2402
42.9419
43.5934
44.1873
44.7234
45.1994
45.6298
46.007
46.3347
46.6153
46.8619
47.0722
47.2509
47.3972
47.5332
47.6471
47.7412
47.8144
47.8827
47.9382
47.9826
48.0121
48.0511
48.082
48.1049
48.1161
48.1336
48.1462
48.1537
48.1511
48.1653
48.1756
48.1806
48.176
48.1818
48.1846
48.1839
48.1742
48.1838
48.1903
48.1916
48.1835
48.1871
48.1879
48.1861
48.1762
48.1854
48.1912
48.1916
48.1829
48.186
48.1865
48.1847
48.1761
48.1858
48.1915
48.1919
48.1847
48.1883
48.1886
48.1865
48.1793
48.1884
48.1933
48.1933
48.1874
48.192
48.1924
48.1906
48.1852
48.1935
48.1976
48.1974
48.1929
48.1969
48.1975
48.1963
48.1925
48.1992
48.2021
48.202
48.1989
48.2017
48.2023
48.2017
48.1995
48.2033
48.205
48.2052
48.2039
48.2049
48.2051
48.2052
48.2047
48.204
48.2038
48.2042
48.2042
48.2029
48.2016
48.2041
48.1979
0.836863
0.999364
3.62296
13.8906
21.9459
26.0365
28.4148
30.1616
31.643
32.9787
34.2219
35.3937
36.5096
37.5781
38.6088
39.6018
40.5582
41.4756
42.3598
43.2006
43.9939
44.7339
45.4236
46.0552
46.6278
47.1385
47.6019
48.0095
48.3652
48.6708
48.9401
49.1704
49.3668
49.5284
49.6781
49.8039
49.9083
49.9903
50.0662
50.1282
50.1782
50.2123
50.2554
50.29
50.3159
50.3293
50.349
50.3633
50.3721
50.3706
50.3859
50.3972
50.4029
50.3987
50.405
50.4082
50.4078
50.398
50.4078
50.4148
50.4162
50.4081
50.4118
50.4126
50.4108
50.4006
50.4099
50.4159
50.4164
50.4075
50.4106
50.411
50.4091
50.4002
50.41
50.416
50.4164
50.4089
50.4125
50.4128
50.4105
50.4031
50.4123
50.4173
50.4174
50.4113
50.4158
50.4162
50.4142
50.4087
50.4171
50.4212
50.421
50.4164
50.4204
50.4209
50.4196
50.4156
50.4224
50.4253
50.4252
50.422
50.4248
50.4254
50.4247
50.4223
50.4261
50.4278
50.428
50.4266
50.4275
50.4277
50.4277
50.4271
50.4263
50.426
50.4264
50.4263
50.4249
50.4235
50.4261
50.4194
0.830461
0.865108
2.974
13.2836
22.1497
26.7344
29.3341
31.1907
32.7406
34.1282
35.4155
36.6272
37.7801
38.884
39.9491
40.9759
41.966
42.9171
43.8357
44.7115
45.5406
46.3172
47.0439
47.7125
48.3215
48.8676
49.3646
49.804
50.1888
50.5211
50.8144
51.0662
51.2817
51.4601
51.6247
51.7636
51.8794
51.9712
52.0556
52.1248
52.1811
52.2204
52.2681
52.3068
52.3361
52.3523
52.3743
52.3906
52.4011
52.4008
52.4172
52.4296
52.4363
52.4326
52.4394
52.443
52.4429
52.4334
52.4434
52.4506
52.4523
52.4443
52.4479
52.4488
52.447
52.4367
52.446
52.4521
52.4527
52.4437
52.4467
52.4471
52.4451
52.4361
52.4458
52.4519
52.4524
52.4448
52.4483
52.4485
52.4461
52.4385
52.4476
52.4527
52.4528
52.4466
52.451
52.4514
52.4493
52.4436
52.4519
52.4561
52.456
52.4512
52.4551
52.4556
52.4542
52.4501
52.4568
52.4598
52.4596
52.4563
52.459
52.4595
52.4588
52.4563
52.46
52.4617
52.4618
52.4603
52.4612
52.4613
52.4612
52.4605
52.4596
52.4592
52.4595
52.4594
52.458
52.4564
52.4591
52.4519
0.831667
0.805414
2.32547
12.2321
21.9133
27.1212
30.0157
32.0139
33.6446
35.0882
36.4197
37.6693
38.8565
39.9923
41.0879
42.1447
43.1646
44.1459
45.0951
46.0028
46.865
47.6759
48.4379
49.1424
49.7874
50.3689
50.9
51.3718
51.7871
52.1473
52.466
52.7407
52.9767
53.1734
53.3539
53.507
53.6353
53.7379
53.8316
53.909
53.9723
54.0177
54.0703
54.1135
54.1467
54.1662
54.1907
54.2093
54.2217
54.223
54.2406
54.2542
54.2619
54.2592
54.2664
54.2706
54.2709
54.2617
54.2717
54.2793
54.2813
54.2735
54.2771
54.278
54.2762
54.266
54.275
54.2813
54.282
54.2731
54.2759
54.2762
54.2742
54.2651
54.2746
54.2807
54.2813
54.2737
54.277
54.2771
54.2747
54.267
54.2758
54.281
54.2811
54.2749
54.2791
54.2794
54.2773
54.2714
54.2796
54.2838
54.2837
54.2788
54.2826
54.2831
54.2816
54.2774
54.2839
54.2869
54.2867
54.2834
54.2859
54.2864
54.2856
54.2829
54.2865
54.2882
54.2883
54.2867
54.2874
54.2874
54.2872
54.2864
54.2855
54.285
54.2852
54.285
54.2835
54.2818
54.2846
54.2769
0.835942
0.784263
1.75198
10.7424
21.1323
27.1045
30.3967
32.5869
34.3213
35.8307
37.2101
38.4982
39.7182
40.8835
42.0065
43.0897
44.1357
45.1435
46.1199
47.056
47.9481
48.7905
49.5855
50.3242
51.0041
51.6205
52.1855
52.6902
53.1365
53.5256
53.8707
54.1696
54.4273
54.6435
54.8411
55.0095
55.1513
55.266
55.3698
55.4561
55.5271
55.5794
55.6374
55.6856
55.7231
55.7464
55.7738
55.795
55.8096
55.813
55.8316
55.8466
55.8556
55.854
55.8617
55.8664
55.8673
55.8587
55.8686
55.8765
55.8789
55.8714
55.8749
55.8759
55.8742
55.8642
55.8728
55.8791
55.88
55.8713
55.8738
55.8741
55.872
55.863
55.872
55.8781
55.8789
55.8714
55.8744
55.8745
55.872
55.8643
55.8727
55.8779
55.8781
55.8719
55.8758
55.8761
55.8739
55.868
55.8758
55.88
55.8799
55.8751
55.8786
55.879
55.8775
55.8732
55.8795
55.8824
55.8823
55.8789
55.8812
55.8816
55.8808
55.8781
55.8814
55.883
55.8831
55.8814
55.882
55.8819
55.8817
55.8808
55.8797
55.8791
55.8792
55.8789
55.8774
55.8756
55.8783
55.8702
0.841184
0.780632
1.31312
8.88988
19.71
26.5691
30.3918
32.849
34.725
36.319
37.7553
39.0858
40.3396
41.5335
42.6819
43.7888
44.8578
45.8886
46.8884
47.8493
48.7678
49.6387
50.4636
51.2342
51.947
52.5971
53.1951
53.7322
54.2097
54.6284
55.0005
55.3243
55.6047
55.8417
56.0571
56.2418
56.3982
56.5258
56.6406
56.7366
56.8162
56.8761
56.94
56.9936
57.036
57.0637
57.0942
57.1183
57.1355
57.1413
57.161
57.1775
57.1879
57.1876
57.1959
57.2013
57.2029
57.1951
57.2047
57.2128
57.2157
57.2089
57.2121
57.2132
57.2117
57.2021
57.2101
57.2164
57.2175
57.2091
57.2112
57.2115
57.2094
57.2007
57.209
57.215
57.2159
57.2087
57.2113
57.2113
57.2088
57.2013
57.209
57.2141
57.2144
57.2085
57.212
57.2122
57.21
57.2042
57.2113
57.2155
57.2155
57.2109
57.214
57.2143
57.2128
57.2086
57.2144
57.2173
57.2172
57.2139
57.2159
57.2162
57.2153
57.2126
57.2156
57.2171
57.2171
57.2155
57.2159
57.2157
57.2153
57.2143
57.2132
57.2124
57.2124
57.212
57.2105
57.2085
57.2112
57.2026
0.846381
0.784338
1.03002
6.83529
17.5885
25.3827
29.8904
32.7192
34.7945
36.5045
38.0147
39.3968
40.689
41.9133
43.0868
44.2158
45.3054
46.3565
47.3764
48.3585
49.2998
50.1955
51.0469
51.8461
52.5892
53.2708
53.9002
54.4686
54.9766
55.4246
55.8238
56.173
56.4767
56.7351
56.9691
57.1708
57.3426
57.4841
57.6105
57.7171
57.8059
57.8742
57.9444
58.0039
58.0516
58.0842
58.1182
58.1455
58.1655
58.1742
58.1952
58.2131
58.2251
58.2266
58.2355
58.2416
58.2439
58.2373
58.2465
58.2548
58.2582
58.2522
58.2552
58.2564
58.2551
58.246
58.2533
58.2594
58.2608
58.253
58.2547
58.2548
58.2528
58.2445
58.2519
58.2578
58.2588
58.2521
58.2542
58.2541
58.2517
58.2444
58.2513
58.2562
58.2567
58.2511
58.254
58.2542
58.252
58.2464
58.2528
58.2569
58.257
58.2526
58.2552
58.2556
58.254
58.2499
58.2551
58.2579
58.2579
58.2547
58.2564
58.2566
58.2556
58.2529
58.2556
58.257
58.257
58.2553
58.2555
58.2553
58.2548
58.2537
58.2525
58.2516
58.2515
58.2509
58.2494
58.2474
58.2499
58.2408
0.851011
0.790686
0.877747
4.81659
14.7944
23.4138
28.7553
32.0902
34.4488
36.3236
37.9363
39.3868
40.7275
41.9876
43.1887
44.3405
45.4499
46.5193
47.5567
48.5569
49.5175
50.4342
51.3083
52.1324
52.9023
53.6124
54.2703
54.8679
55.4049
55.8811
56.3068
56.681
57.008
57.2883
57.5411
57.7602
57.9479
58.104
58.2427
58.3604
58.459
58.5366
58.6135
58.6792
58.7327
58.7708
58.8086
58.8393
58.8626
58.8745
58.8968
58.9164
58.9301
58.9336
58.9431
58.9501
58.9534
58.948
58.9568
58.9653
58.9692
58.9642
58.967
58.9682
58.9672
58.9589
58.9653
58.9712
58.9728
58.9658
58.9669
58.967
58.9651
58.9573
58.9637
58.9693
58.9705
58.9644
58.9659
58.9658
58.9634
58.9565
58.9625
58.9671
58.9677
58.9626
58.965
58.965
58.963
58.9576
58.9631
58.967
58.9673
58.9632
58.9653
58.9656
58.9641
58.9601
58.9646
58.9673
58.9673
58.9643
58.9656
58.9658
58.9648
58.9622
58.9644
58.9657
58.9656
58.964
58.964
58.9636
58.963
58.9619
58.9606
58.9596
58.9593
58.9586
58.9571
58.955
58.9574
58.9478
0.854791
0.79743
0.807909
3.09858
11.4946
20.5712
26.831
30.8255
33.5808
35.6924
37.4521
38.9989
40.4058
41.7133
42.9488
44.127
45.2577
46.3456
47.3991
48.4152
49.3922
50.3265
51.2193
52.0641
52.8566
53.5913
54.2741
54.8977
55.461
55.9635
56.414
56.8121
57.1616
57.4634
57.7348
57.9714
58.1752
58.3464
58.4977
58.6269
58.7359
58.8232
58.9072
58.9795
59.0391
59.0832
59.1251
59.1597
59.1864
59.2021
59.2258
59.247
59.2626
59.2684
59.2787
59.2866
59.2909
59.2872
59.2955
59.304
59.3084
59.3047
59.3072
59.3086
59.3079
59.3006
59.3059
59.3115
59.3133
59.3073
59.3079
59.3079
59.3061
59.299
59.3042
59.3094
59.3108
59.3054
59.3064
59.3062
59.3039
59.2976
59.3024
59.3067
59.3075
59.3029
59.3047
59.3047
59.3027
59.2977
59.3023
59.3058
59.3062
59.3026
59.3042
59.3043
59.3029
59.2992
59.3029
59.3054
59.3055
59.3028
59.3037
59.3037
59.3027
59.3003
59.302
59.3031
59.303
59.3015
59.3013
59.3008
59.3001
59.2989
59.2976
59.2965
59.296
59.2952
59.2938
59.2916
59.2937
59.2838
0.857601
0.803418
0.779894
1.87914
8.03634
16.8735
23.9709
28.7622
32.0527
34.5003
36.4729
38.1596
39.6617
41.0362
42.3194
43.5325
44.6897
45.7989
46.8696
47.901
48.8927
49.8419
50.75
51.6114
52.422
53.1767
53.8799
54.5251
55.1109
55.6364
56.109
56.5289
56.8994
57.2216
57.5108
57.7642
57.9838
58.1701
58.3342
58.4751
58.5948
58.6923
58.7836
58.8628
58.9288
58.9792
59.0256
59.0643
59.0948
59.1145
59.1398
59.1628
59.1803
59.1887
59.2
59.2089
59.2143
59.2125
59.2203
59.2287
59.2337
59.2314
59.2338
59.2353
59.2349
59.2288
59.233
59.2381
59.2401
59.2351
59.2354
59.2352
59.2336
59.2273
59.2314
59.236
59.2375
59.233
59.2335
59.2331
59.231
59.2253
59.229
59.2328
59.2337
59.2298
59.231
59.2309
59.229
59.2245
59.2281
59.2312
59.2317
59.2286
59.2297
59.2297
59.2284
59.2251
59.2279
59.2301
59.2303
59.2279
59.2285
59.2284
59.2274
59.2251
59.2263
59.2272
59.2271
59.2257
59.2253
59.2247
59.224
59.2227
59.2214
59.2202
59.2196
59.2186
59.2172
59.215
59.2167
59.2066
0.859469
0.808073
0.770631
1.18992
4.92116
12.5475
20.1007
25.7305
29.6968
32.6051
34.8821
36.7723
38.4141
39.8868
41.2402
42.504
43.6985
44.836
45.9283
46.9774
47.9843
48.9476
49.8686
50.7431
51.5677
52.3375
53.0559
53.7175
54.3209
54.865
55.3559
55.7942
56.183
56.5237
56.829
57.098
57.3326
57.5335
57.7101
57.8626
57.993
58.101
58.1999
58.286
58.3586
58.4157
58.4669
58.5098
58.5444
58.5685
58.5956
58.6203
58.6399
58.6511
58.6635
58.6735
58.6802
58.6804
58.6878
58.6961
58.7017
58.7008
58.7032
58.7048
58.7048
58.6999
58.7032
58.7077
58.7099
58.706
58.706
58.7057
58.7042
58.6988
58.7017
58.7056
58.7073
58.7037
58.7038
58.7032
58.7013
58.6964
58.6989
58.7021
58.7031
58.6999
58.7006
58.7003
58.6987
58.6948
58.6972
58.6999
58.7005
58.6979
58.6986
58.6985
58.6973
58.6943
58.6964
58.6982
58.6985
58.6965
58.6967
58.6964
58.6955
58.6934
58.6942
58.6948
58.6947
58.6934
58.6929
58.6922
58.6914
58.6901
58.6887
58.6875
58.6867
58.6857
58.6844
58.6822
58.6835
58.6733
0.860554
0.811226
0.769045
0.887301
2.64191
8.11929
15.3351
21.6124
26.3331
29.8333
32.5295
34.711
36.5568
38.175
39.6336
40.9739
42.2245
43.4041
44.5277
45.601
46.6271
47.6063
48.5403
49.4262
50.2613
51.0419
51.7702
52.4426
53.0577
53.6149
54.1191
54.5714
54.9748
55.3308
55.65
55.9326
56.1807
56.3952
56.5838
56.7475
56.8884
57.0067
57.1133
57.2064
57.2857
57.3497
57.4059
57.4533
57.4921
57.5209
57.5501
57.5766
57.5983
57.6124
57.6261
57.6373
57.6454
57.6477
57.655
57.6632
57.6692
57.6699
57.6724
57.6742
57.6746
57.6711
57.6735
57.6773
57.6795
57.6769
57.6766
57.6762
57.6749
57.6705
57.6723
57.6755
57.6771
57.6744
57.6742
57.6736
57.6719
57.6677
57.6692
57.6717
57.6727
57.6703
57.6705
57.6702
57.6687
57.6654
57.6669
57.669
57.6696
57.6676
57.6679
57.6677
57.6666
57.6641
57.6654
57.6668
57.6671
57.6655
57.6654
57.6651
57.6642
57.6623
57.6627
57.6631
57.6629
57.6618
57.6611
57.6604
57.6595
57.6583
57.6569
57.6556
57.6547
57.6536
57.6524
57.6503
57.651
57.6407
0.861092
0.813048
0.769984
0.779829
1.38713
4.37873
10.1418
16.4675
21.8292
26.0003
29.2346
31.8154
33.9519
35.7824
37.3972
38.8541
40.1912
41.4357
42.6078
43.7181
44.7727
45.7742
46.7249
47.6234
48.468
49.2563
49.9902
50.6677
51.2884
51.8526
52.3643
52.8254
53.2387
53.6061
53.936
54.2297
54.4893
54.7158
54.9154
55.0896
55.2406
55.3691
55.4835
55.5835
55.6695
55.7404
55.802
55.8541
55.8974
55.9309
55.9627
55.9912
56.015
56.032
56.0473
56.0599
56.0694
56.074
56.0814
56.0894
56.0959
56.098
56.1008
56.1029
56.1038
56.1015
56.1033
56.1065
56.1086
56.1071
56.1068
56.1063
56.1052
56.1018
56.1027
56.1051
56.1065
56.1048
56.1044
56.1036
56.1021
56.0988
56.0994
56.1012
56.1021
56.1004
56.1003
56.0998
56.0986
56.0959
56.0966
56.0981
56.0987
56.0973
56.0972
56.0969
56.0959
56.0939
56.0945
56.0955
56.0958
56.0946
56.0943
56.0939
56.093
56.0915
56.0914
56.0916
56.0914
56.0904
56.0897
56.0889
56.0881
56.0869
56.0855
56.0842
56.0833
56.0821
56.0809
56.079
56.0792
56.0692
0.861313
0.813924
0.771188
0.746566
0.893526
2.01888
5.44781
10.7494
16.2449
20.982
24.8146
27.8984
30.4273
32.5566
34.398
36.0276
37.4972
38.8422
40.0908
41.2598
42.3599
43.3964
44.3731
45.2901
46.147
46.943
47.6802
48.3587
48.9798
49.545
50.0584
50.5225
50.9407
51.3153
51.6525
51.9545
52.2233
52.4602
52.6697
52.8537
53.0144
53.1528
53.2752
53.3823
53.4751
53.553
53.6203
53.6774
53.7254
53.764
53.7988
53.8295
53.8555
53.8755
53.8927
53.9068
53.9178
53.9247
53.9327
53.9407
53.9475
53.951
53.9543
53.9567
53.9581
53.9571
53.9586
53.9611
53.9631
53.9625
53.9623
53.9619
53.961
53.9585
53.9588
53.9603
53.9615
53.9605
53.9601
53.9593
53.958
53.9555
53.9555
53.9565
53.9572
53.9561
53.9559
53.9553
53.9542
53.9522
53.9523
53.9532
53.9537
53.9527
53.9525
53.9521
53.9513
53.9497
53.9498
53.9504
53.9506
53.9497
53.9494
53.9489
53.9481
53.9468
53.9465
53.9464
53.9462
53.9454
53.9447
53.9439
53.943
53.9419
53.9407
53.9394
53.9384
53.9372
53.9361
53.9343
53.9341
53.9241
0.861387
0.814264
0.771942
0.737568
0.747868
1.02409
2.33572
5.52286
10.107
14.8968
19.1823
22.7921
25.7949
28.3152
30.4684
32.3442
34.0084
35.5064
36.8735
38.1352
39.308
40.4013
41.4211
42.3694
43.2474
44.056
44.7984
45.477
46.0956
46.6578
47.1685
47.6314
48.0505
48.4286
48.7705
49.0786
49.3551
49.6013
49.8203
50.014
50.1845
50.333
50.4641
50.5789
50.6789
50.7643
50.838
50.9008
50.954
50.9979
51.0364
51.0698
51.0984
51.1214
51.1408
51.1568
51.1696
51.1788
51.1877
51.196
51.2032
51.2079
51.2119
51.2147
51.2167
51.2169
51.2183
51.2203
51.2222
51.2223
51.2224
51.222
51.2214
51.2197
51.2197
51.2205
51.2214
51.2209
51.2205
51.2198
51.2187
51.2169
51.2165
51.2169
51.2174
51.2167
51.2164
51.2158
51.2149
51.2134
51.2132
51.2135
51.2138
51.2133
51.213
51.2125
51.2118
51.2106
51.2105
51.2107
51.2108
51.2102
51.2098
51.2093
51.2086
51.2076
51.2072
51.2069
51.2066
51.2059
51.2053
51.2045
51.2037
51.2027
51.2016
51.2004
51.1994
51.1983
51.1972
51.1957
51.1951
51.1857
0.861407
0.814369
0.772266
0.735643
0.711733
0.745673
1.04191
2.16925
4.71997
8.46812
12.5981
16.4961
19.9308
22.8857
25.4244
27.6248
29.5565
31.275
32.8196
34.2229
35.5089
36.6927
37.7832
38.7849
39.7011
40.5346
41.2908
41.9749
42.5939
43.1541
43.6624
44.1239
44.5436
44.925
45.2721
45.5871
45.8722
46.1287
46.3588
46.5638
46.7457
46.906
47.0476
47.172
47.2809
47.375
47.4564
47.5261
47.5856
47.6357
47.6789
47.7161
47.7479
47.7743
47.7965
47.8148
47.8298
47.8415
47.8517
47.8607
47.8685
47.8744
47.8791
47.8827
47.8852
47.8866
47.8883
47.89
47.8917
47.8924
47.8928
47.8927
47.8923
47.8913
47.8912
47.8914
47.892
47.8918
47.8916
47.891
47.8902
47.8889
47.8884
47.8883
47.8885
47.8881
47.8879
47.8873
47.8866
47.8855
47.8851
47.8851
47.8852
47.8848
47.8846
47.8841
47.8836
47.8827
47.8825
47.8824
47.8823
47.882
47.8817
47.8812
47.8806
47.8798
47.8794
47.879
47.8787
47.8781
47.8776
47.8769
47.8762
47.8753
47.8743
47.8733
47.8724
47.8713
47.8704
47.8691
47.8682
47.8592
0.86141
0.814394
0.772363
0.735368
0.703999
0.685608
0.715795
0.92739
1.6685
3.3907
6.16648
9.55354
13.0185
16.2517
19.1493
21.7085
23.9663
25.9692
27.7601
29.3677
30.8214
32.1424
33.3436
34.4324
35.4146
36.2962
37.0853
37.7911
38.4242
38.9945
39.511
39.9809
40.4102
40.8032
41.1634
41.4928
41.7936
42.0668
42.3139
42.5359
42.7345
42.9111
43.0677
43.2058
43.3271
43.4329
43.5248
43.604
43.672
43.73
43.7798
43.8223
43.8587
43.8894
43.9153
43.9368
43.9545
43.9691
43.9814
43.9916
44.0004
44.0076
44.0134
44.0178
44.0212
44.0237
44.0259
44.0277
44.0293
44.0305
44.0312
44.0314
44.0313
44.031
44.0309
44.0309
44.0311
44.0312
44.0311
44.0306
44.03
44.0292
44.0287
44.0284
44.0283
44.0281
44.0279
44.0274
44.0268
44.0262
44.0258
44.0255
44.0254
44.0252
44.025
44.0246
44.0242
44.0237
44.0234
44.0231
44.023
44.0228
44.0226
44.0221
44.0217
44.0212
44.0208
44.0204
44.0201
44.0197
44.0192
44.0187
44.0181
44.0174
44.0166
44.0158
44.015
44.0141
44.0133
44.0123
44.0113
44.0032
0.86141
0.814398
0.77238
0.735337
0.702648
0.674601
0.655996
0.665812
0.766785
1.12593
2.03297
3.72251
6.14114
8.97266
11.873
14.6304
17.1641
19.4605
21.5322
23.4008
25.0803
26.593
27.9546
29.1752
30.2642
31.2317
32.0902
32.8534
33.5355
34.1496
34.7068
35.2156
35.6828
36.1131
36.5097
36.8745
37.2094
37.5156
37.7941
38.0458
38.2722
38.4747
38.655
38.8144
38.955
39.0782
39.1856
39.2786
39.3589
39.4279
39.4871
39.5376
39.5807
39.6174
39.6485
39.6744
39.6961
39.7142
39.7293
39.7418
39.7523
39.7611
39.7683
39.7739
39.7784
39.782
39.785
39.7872
39.7891
39.7906
39.7918
39.7924
39.7927
39.7928
39.7929
39.7929
39.793
39.7931
39.7931
39.7928
39.7924
39.792
39.7917
39.7912
39.791
39.7908
39.7907
39.7903
39.7899
39.7895
39.7892
39.7889
39.7887
39.7886
39.7884
39.7881
39.7878
39.7875
39.7874
39.7871
39.7869
39.7868
39.7867
39.7864
39.7861
39.7858
39.7855
39.7852
39.785
39.7847
39.7844
39.784
39.7836
39.783
39.7825
39.782
39.7814
39.7806
39.7801
39.7793
39.7784
39.7709
0.861409
0.814398
0.772376
0.735311
0.702429
0.67293
0.646898
0.626276
0.61804
0.643445
0.759795
1.09144
1.82318
3.10497
4.93827
7.16265
9.55199
11.9208
14.1665
16.2509
18.1674
19.9036
21.4671
22.8673
24.1171
25.2321
26.2292
27.1245
27.9333
28.6684
29.34
29.9559
30.5225
31.0441
31.5242
31.9651
32.3689
32.7375
33.0724
33.375
33.6472
33.8909
34.1078
34.2999
34.4693
34.618
34.7479
34.8607
34.9583
35.0425
35.1148
35.1766
35.2293
35.2743
35.3125
35.3445
35.3715
35.3942
35.4131
35.4288
35.4419
35.4528
35.4619
35.4692
35.4751
35.48
35.4839
35.4869
35.4894
35.4914
35.493
35.494
35.4948
35.4953
35.4958
35.4959
35.496
35.4962
35.4962
35.4961
35.4959
35.4957
35.4956
35.4952
35.495
35.4948
35.4947
35.4945
35.4942
35.494
35.4938
35.4936
35.4934
35.4933
35.4932
35.493
35.4928
35.4927
35.4926
35.4925
35.4924
35.4923
35.4923
35.4921
35.492
35.4919
35.4918
35.4916
35.4915
35.4913
35.4912
35.491
35.4907
35.4904
35.4902
35.4898
35.4895
35.489
35.4886
35.4881
35.4874
35.4809
0.861408
0.814398
0.772369
0.73528
0.702352
0.672668
0.645733
0.621398
0.600034
0.583311
0.576174
0.591823
0.662135
0.852394
1.26527
2.01087
3.15271
4.66889
6.4579
8.38154
10.3152
12.1767
13.9146
15.5236
17.0132
18.3939
19.6732
20.8553
21.9438
22.9423
23.8554
24.6882
25.4465
26.136
26.7622
27.3298
27.8436
28.3075
28.7253
29.1002
29.4354
29.7341
29.9992
30.2333
30.4392
30.6198
30.7774
30.9143
31.0329
31.1353
31.2232
31.2985
31.3627
31.4175
31.464
31.5033
31.5364
31.5643
31.5877
31.6072
31.6234
31.6369
31.6482
31.6573
31.6649
31.6711
31.6762
31.6802
31.6833
31.686
31.6881
31.6896
31.6908
31.6917
31.6924
31.6928
31.6931
31.6933
31.6935
31.6935
31.6935
31.6935
31.6934
31.6932
31.693
31.6929
31.6928
31.6927
31.6925
31.6924
31.6924
31.6922
31.6921
31.692
31.692
31.6919
31.6918
31.6918
31.6918
31.6918
31.6918
31.6918
31.6918
31.6918
31.6918
31.6919
31.6919
31.6919
31.6918
31.6918
31.6918
31.6918
31.6918
31.6917
31.6916
31.6915
31.6913
31.6911
31.6909
31.6907
31.6902
31.6845
0.861408
0.814397
0.772365
0.735263
0.702319
0.67261
0.645588
0.620911
0.598334
0.577738
0.55926
0.543605
0.532753
0.531631
0.551755
0.617352
0.772215
1.08068
1.61562
2.43614
3.56699
4.99091
6.6518
8.45942
10.3217
12.1604
13.9179
15.558
17.0624
18.4261
19.6528
20.7512
21.7325
22.6086
23.3905
24.0886
24.7117
25.2678
25.7636
26.2048
26.5968
26.9441
27.2509
27.521
27.7581
27.9655
28.1462
28.3031
28.4389
28.5561
28.6568
28.743
28.8167
28.8795
28.9328
28.9779
29.016
29.0481
29.0751
29.0976
29.1164
29.1321
29.1451
29.1558
29.1647
29.1719
29.1779
29.1827
29.1865
29.1897
29.1922
29.1941
29.1957
29.1968
29.1978
29.1984
29.1989
29.1992
29.1994
29.1995
29.1996
29.1996
29.1996
29.1996
29.1994
29.1993
29.1993
29.1992
29.1991
29.199
29.1989
29.1989
29.1988
29.1987
29.1987
29.1987
29.1987
29.1987
29.1988
29.1988
29.1989
29.1989
29.199
29.1991
29.1992
29.1993
29.1994
29.1994
29.1995
29.1996
29.1997
29.1997
29.1998
29.1998
29.1999
29.1999
29.1999
29.1998
29.1998
29.1997
29.1994
29.1942
0.861408
0.814397
0.772365
0.735264
0.70232
0.672611
0.645589
0.620913
0.598338
0.577746
0.559275
0.543631
0.532793
0.531669
0.551698
0.616902
0.770552
1.07602
1.60512
2.41652
3.53554
4.94708
6.59522
8.39158
10.245
12.0774
13.8308
15.4688
16.9724
18.3364
19.564
20.6639
21.6471
22.5251
23.309
24.0091
24.6342