/*--------------------------------*- C++ -*----------------------------------*\
  =========                 |
  \\      /  F ield         | OpenFOAM: The Open Source CFD Toolbox
   \\    /   O peration     | Website:  https://openfoam.org
    \\  /    A nd           | Version:  8
     \\/     M anipulation  |
\*---------------------------------------------------------------------------*/
FoamFile
{
    version     2.0;
    format      ascii;
    class       volScalarField;
    location    "150";
    object      nut;
}
// * * * * * * * * * * * * * * * * * * * * * * * * * * * * * * * * * * * * * //

dimensions      [0 2 -1 0 0 0 0];

internalField   nonuniform List<scalar> 
7320
(
0.000286191
0.000273097
0.000266495
0.000271419
0.000285808
0.000296605
0.000304429
0.000310944
0.000316789
0.000322185
0.000327249
0.000332045
0.00033661
0.000340968
0.000345144
0.000349143
0.00035296
0.000356583
0.00036002
0.000363247
0.000366242
0.00036899
0.000371495
0.00037375
0.000375756
0.000377515
0.000379069
0.000380422
0.000381587
0.000382577
0.00038343
0.000384158
0.000384772
0.000385276
0.000385721
0.000386101
0.000386415
0.000386663
0.00038688
0.000387063
0.00038721
0.000387312
0.000387422
0.000387519
0.000387592
0.000387633
0.000387681
0.000387722
0.000387748
0.000387747
0.000387776
0.000387805
0.000387822
0.000387814
0.000387825
0.000387835
0.000387836
0.000387814
0.000387828
0.000387847
0.000387852
0.000387836
0.00038784
0.000387844
0.000387843
0.00038782
0.000387835
0.000387852
0.000387856
0.000387838
0.000387842
0.000387846
0.000387845
0.000387826
0.000387843
0.000387861
0.000387866
0.000387852
0.000387858
0.000387863
0.000387861
0.000387846
0.000387863
0.000387879
0.000387883
0.000387873
0.000387882
0.000387887
0.000387887
0.000387876
0.000387893
0.000387907
0.00038791
0.000387903
0.000387911
0.000387917
0.000387918
0.000387911
0.000387925
0.000387936
0.00038794
0.000387936
0.000387942
0.000387948
0.000387949
0.000387947
0.000387955
0.000387963
0.000387966
0.000387966
0.00038797
0.000387973
0.000387976
0.000387977
0.000387977
0.000387979
0.000387981
0.000387983
0.000387982
0.00038798
0.000387982
0.000387972
0.000562333
0.000738116
0.000808361
0.00141295
0.00200734
0.00230968
0.00248398
0.00260661
0.00270462
0.00278804
0.00286186
0.00292842
0.00298939
0.00304577
0.00309859
0.00314809
0.00319461
0.00323821
0.00327951
0.00331796
0.00335352
0.00338598
0.00341574
0.00344241
0.00346614
0.00348685
0.00350555
0.00352169
0.00353555
0.00354723
0.00355754
0.0035662
0.00357351
0.00357932
0.00358499
0.00358965
0.00359344
0.00359624
0.00359901
0.00360119
0.0036029
0.00360385
0.00360555
0.00360683
0.00360774
0.00360798
0.00360873
0.0036092
0.00360942
0.00360906
0.00360981
0.0036103
0.0036105
0.00361011
0.00361041
0.00361051
0.00361043
0.00360979
0.00361038
0.00361075
0.0036108
0.00361028
0.0036105
0.00361052
0.00361041
0.00360978
0.00361037
0.0036107
0.00361071
0.00361016
0.00361037
0.00361037
0.00361025
0.00360971
0.00361032
0.00361065
0.00361066
0.00361018
0.00361042
0.0036104
0.00361026
0.0036098
0.00361037
0.00361064
0.00361062
0.00361023
0.00361052
0.0036105
0.00361037
0.00361002
0.00361054
0.00361075
0.00361071
0.00361041
0.00361066
0.00361066
0.00361056
0.00361031
0.00361072
0.00361086
0.00361083
0.00361061
0.00361078
0.00361078
0.00361073
0.00361057
0.00361079
0.00361087
0.00361086
0.00361075
0.0036108
0.00361079
0.00361078
0.00361072
0.00361066
0.00361064
0.00361065
0.00361063
0.00361055
0.00361044
0.00361065
0.00361017
0.000760413
0.00115051
0.00147509
0.00347701
0.00508185
0.0058578
0.00630256
0.00661405
0.00686183
0.0070721
0.00725784
0.00742525
0.00757862
0.00772056
0.00785361
0.00797851
0.00809616
0.00820677
0.0083118
0.00841004
0.00850134
0.00858519
0.00866236
0.00873195
0.00879418
0.00884884
0.0088982
0.00894105
0.00897806
0.00900943
0.00903708
0.00906046
0.00908027
0.00909623
0.00911146
0.00912407
0.00913444
0.00914228
0.00914982
0.00915584
0.00916062
0.00916352
0.00916797
0.00917143
0.00917394
0.00917488
0.00917685
0.00917816
0.00917887
0.00917824
0.00918002
0.00918125
0.00918181
0.00918102
0.00918174
0.00918201
0.00918186
0.00918044
0.00918175
0.0091826
0.00918276
0.0091816
0.00918209
0.00918214
0.00918189
0.00918047
0.00918176
0.00918251
0.00918256
0.00918132
0.00918176
0.00918177
0.0091815
0.00918027
0.00918162
0.00918236
0.00918239
0.00918134
0.00918184
0.00918181
0.00918149
0.00918045
0.0091817
0.00918231
0.00918229
0.00918141
0.00918203
0.00918201
0.00918173
0.00918093
0.00918206
0.00918254
0.00918248
0.00918181
0.00918234
0.00918235
0.00918215
0.00918156
0.00918248
0.00918279
0.00918274
0.00918226
0.00918262
0.00918264
0.00918252
0.00918215
0.00918264
0.00918281
0.0091828
0.00918256
0.00918266
0.00918264
0.00918261
0.00918248
0.00918235
0.00918228
0.00918231
0.00918226
0.00918207
0.00918182
0.00918229
0.00918112
0.000941463
0.00154324
0.00231686
0.00614726
0.00893711
0.0102957
0.011081
0.0116302
0.0120655
0.0124341
0.0127593
0.0130523
0.0133209
0.0135697
0.0138032
0.0140227
0.01423
0.0144256
0.0146118
0.0147868
0.0149503
0.0151014
0.015241
0.0153677
0.0154816
0.0155823
0.0156731
0.0157525
0.0158214
0.0158801
0.0159318
0.0159758
0.0160132
0.0160437
0.0160721
0.016096
0.0161157
0.016131
0.0161453
0.0161568
0.0161661
0.0161722
0.0161803
0.0161868
0.0161916
0.0161939
0.0161975
0.0162001
0.0162016
0.016201
0.0162039
0.0162061
0.0162072
0.0162062
0.0162073
0.0162078
0.0162077
0.0162056
0.0162075
0.0162089
0.0162092
0.0162075
0.0162082
0.0162083
0.0162079
0.0162057
0.0162076
0.0162088
0.0162089
0.016207
0.0162076
0.0162076
0.0162072
0.0162053
0.0162073
0.0162084
0.0162086
0.016207
0.0162076
0.0162076
0.0162071
0.0162055
0.0162073
0.0162083
0.0162083
0.016207
0.0162079
0.0162079
0.0162075
0.0162062
0.0162079
0.0162086
0.0162086
0.0162076
0.0162083
0.0162084
0.0162081
0.0162072
0.0162085
0.016209
0.016209
0.0162082
0.0162087
0.0162088
0.0162086
0.016208
0.0162088
0.016209
0.016209
0.0162087
0.0162088
0.0162088
0.0162087
0.0162085
0.0162083
0.0162082
0.0162082
0.0162081
0.0162078
0.0162074
0.0162082
0.0162061
0.00110912
0.00188602
0.00329335
0.00918182
0.0133314
0.0154092
0.0166229
0.0174692
0.0181361
0.0186987
0.0191936
0.019639
0.020047
0.0204251
0.0207797
0.0211137
0.0214296
0.0217284
0.0220135
0.0222828
0.0225355
0.0227702
0.022988
0.0231866
0.0233661
0.0235255
0.0236695
0.0237959
0.0239061
0.0240006
0.0240836
0.0241546
0.0242152
0.0242651
0.0243109
0.0243495
0.0243818
0.0244072
0.0244303
0.0244493
0.0244648
0.0244755
0.0244882
0.0244987
0.0245068
0.0245111
0.0245168
0.0245211
0.0245239
0.0245236
0.0245278
0.0245311
0.024533
0.0245319
0.0245336
0.0245344
0.0245344
0.0245316
0.0245341
0.024536
0.0245366
0.0245344
0.0245352
0.0245353
0.0245349
0.024532
0.0245343
0.0245359
0.0245361
0.0245337
0.0245343
0.0245343
0.0245339
0.0245313
0.0245337
0.0245353
0.0245355
0.0245335
0.0245342
0.0245342
0.0245336
0.0245315
0.0245337
0.024535
0.0245351
0.0245334
0.0245344
0.0245344
0.0245339
0.0245322
0.0245343
0.0245353
0.0245353
0.024534
0.0245349
0.024535
0.0245347
0.0245334
0.0245351
0.0245358
0.0245358
0.0245348
0.0245354
0.0245355
0.0245353
0.0245345
0.0245354
0.0245358
0.0245358
0.0245353
0.0245354
0.0245354
0.0245353
0.024535
0.0245347
0.0245346
0.0245346
0.0245344
0.0245341
0.0245334
0.0245345
0.0245314
0.00129872
0.00216136
0.00434095
0.0124155
0.0181369
0.0211074
0.022862
0.0240806
0.0250341
0.0258338
0.0265345
0.0271636
0.0277389
0.0282715
0.0287708
0.0292413
0.0296869
0.0301092
0.0305128
0.0308954
0.0312559
0.0315923
0.0319053
0.0321923
0.0324526
0.0326851
0.032895
0.0330803
0.0332424
0.0333821
0.0335047
0.03361
0.0337002
0.0337751
0.0338429
0.0339005
0.0339489
0.0339876
0.0340222
0.0340508
0.0340744
0.0340912
0.0341098
0.0341254
0.0341378
0.034145
0.0341534
0.03416
0.0341645
0.034165
0.0341705
0.0341752
0.0341782
0.0341773
0.0341794
0.0341807
0.0341809
0.0341777
0.0341805
0.034183
0.0341839
0.0341814
0.0341822
0.0341824
0.034182
0.0341784
0.0341809
0.0341829
0.0341834
0.0341805
0.034181
0.034181
0.0341805
0.0341774
0.03418
0.0341819
0.0341824
0.0341799
0.0341807
0.0341807
0.03418
0.0341773
0.0341797
0.0341814
0.0341817
0.0341796
0.0341807
0.0341807
0.0341802
0.0341781
0.0341803
0.0341817
0.0341818
0.0341802
0.0341812
0.0341813
0.0341809
0.0341794
0.0341813
0.0341822
0.0341822
0.0341811
0.0341817
0.0341818
0.0341816
0.0341806
0.0341816
0.034182
0.0341821
0.0341815
0.0341816
0.0341815
0.0341814
0.0341811
0.0341807
0.0341804
0.0341804
0.0341802
0.0341798
0.0341788
0.0341803
0.0341759
0.00158869
0.00236489
0.00538275
0.0157138
0.0232522
0.0273268
0.0297636
0.0314495
0.0327578
0.0338476
0.0347974
0.0356471
0.0364224
0.037139
0.0378099
0.0384419
0.0390408
0.0396094
0.0401532
0.0406701
0.0411589
0.0416167
0.0420441
0.0424374
0.0427956
0.0431169
0.0434073
0.0436646
0.0438906
0.0440862
0.0442577
0.0444057
0.0445329
0.0446393
0.0447344
0.0448159
0.0448847
0.0449402
0.0449892
0.0450302
0.0450641
0.0450891
0.0451149
0.045137
0.0451548
0.045166
0.0451777
0.0451872
0.0451941
0.045196
0.0452029
0.0452092
0.0452136
0.0452133
0.0452159
0.0452177
0.0452184
0.0452149
0.0452178
0.0452208
0.0452223
0.0452196
0.0452203
0.0452206
0.0452202
0.0452161
0.0452185
0.0452209
0.0452217
0.0452184
0.0452187
0.0452187
0.0452182
0.0452146
0.0452171
0.0452195
0.0452202
0.0452175
0.0452181
0.045218
0.0452173
0.0452142
0.0452166
0.0452185
0.045219
0.0452168
0.0452178
0.0452179
0.0452173
0.0452148
0.045217
0.0452186
0.045219
0.0452172
0.0452181
0.0452183
0.045218
0.0452162
0.045218
0.0452191
0.0452193
0.0452181
0.0452187
0.0452188
0.0452185
0.0452174
0.0452183
0.0452189
0.045219
0.0452183
0.0452184
0.0452182
0.0452181
0.0452177
0.0452172
0.0452168
0.0452167
0.0452163
0.045216
0.0452147
0.0452165
0.0452106
0.00212797
0.00251645
0.00633765
0.018949
0.0285726
0.0340005
0.0372938
0.0395658
0.041314
0.042759
0.0440104
0.045125
0.0461388
0.0470735
0.047947
0.0487693
0.0495484
0.0502885
0.0509967
0.0516714
0.0523111
0.0529121
0.0534745
0.053994
0.0544689
0.0548966
0.0552834
0.0556276
0.0559308
0.0561945
0.0564256
0.0566259
0.0567984
0.0569437
0.0570725
0.0571833
0.0572773
0.0573541
0.057421
0.0574773
0.0575242
0.0575598
0.0575944
0.0576246
0.0576492
0.0576657
0.0576816
0.0576948
0.0577048
0.0577086
0.0577172
0.0577255
0.0577317
0.0577324
0.0577355
0.057738
0.0577393
0.0577357
0.0577385
0.0577422
0.0577443
0.0577416
0.0577421
0.0577424
0.0577422
0.0577377
0.0577397
0.0577424
0.0577437
0.0577402
0.0577402
0.0577401
0.0577396
0.0577356
0.0577378
0.0577405
0.0577416
0.0577387
0.057739
0.0577389
0.0577383
0.0577348
0.0577368
0.0577391
0.0577399
0.0577375
0.0577383
0.0577384
0.0577379
0.0577351
0.0577371
0.0577389
0.0577396
0.0577377
0.0577384
0.0577387
0.0577384
0.0577364
0.057738
0.0577394
0.0577398
0.0577384
0.0577388
0.057739
0.0577388
0.0577375
0.0577383
0.0577389
0.0577391
0.0577384
0.0577383
0.0577381
0.0577379
0.0577374
0.0577368
0.0577363
0.0577361
0.0577356
0.0577353
0.0577336
0.0577358
0.057728
0.00314909
0.00268253
0.00712822
0.0219871
0.0339743
0.0410421
0.045404
0.04841
0.0507044
0.0525849
0.0542021
0.0556349
0.0569326
0.0581257
0.0592378
0.0602833
0.061273
0.0622133
0.0631129
0.0639712
0.0647865
0.0655545
0.0662747
0.0669422
0.0675543
0.0681077
0.0686085
0.069056
0.0694516
0.0697969
0.0700998
0.070363
0.0705906
0.0707833
0.0709529
0.0710996
0.0712246
0.0713276
0.0714165
0.0714918
0.0715549
0.0716038
0.0716492
0.0716893
0.0717225
0.0717458
0.0717669
0.0717847
0.0717986
0.0718053
0.0718157
0.0718264
0.0718349
0.071837
0.0718409
0.0718442
0.0718463
0.0718429
0.0718455
0.0718498
0.0718527
0.0718502
0.0718504
0.0718508
0.0718508
0.071846
0.0718474
0.0718504
0.0718521
0.0718487
0.0718481
0.071848
0.0718476
0.0718433
0.0718449
0.0718478
0.0718494
0.0718466
0.0718463
0.0718463
0.0718457
0.0718419
0.0718434
0.0718458
0.0718471
0.0718447
0.071845
0.0718453
0.0718448
0.0718419
0.0718433
0.0718454
0.0718463
0.0718445
0.0718449
0.0718452
0.071845
0.0718429
0.0718441
0.0718456
0.0718463
0.071845
0.0718451
0.0718453
0.0718451
0.0718438
0.0718443
0.071845
0.0718452
0.0718445
0.0718442
0.071844
0.0718438
0.0718432
0.0718425
0.0718418
0.0718415
0.0718409
0.0718406
0.0718385
0.0718411
0.0718311
0.00492062
0.00301304
0.00769072
0.02468
0.0393054
0.0483337
0.0540181
0.0579414
0.0609145
0.0633306
0.0653924
0.0672079
0.0688445
0.0703436
0.0717364
0.0730432
0.0742785
0.0754513
0.0765724
0.077643
0.0786611
0.0796222
0.0805248
0.0813639
0.0821355
0.0828356
0.0834701
0.0840389
0.0845435
0.0849856
0.0853738
0.0857124
0.0860059
0.0862559
0.0864746
0.0866646
0.0868272
0.0869622
0.087078
0.0871766
0.0872596
0.087325
0.0873837
0.087436
0.0874798
0.0875117
0.0875392
0.0875629
0.0875818
0.0875922
0.0876048
0.0876184
0.0876297
0.0876339
0.0876386
0.0876431
0.0876462
0.0876434
0.0876454
0.0876503
0.0876543
0.0876524
0.0876522
0.0876527
0.0876529
0.0876481
0.0876485
0.0876517
0.087654
0.0876508
0.0876495
0.0876493
0.0876491
0.0876446
0.0876452
0.0876483
0.0876505
0.0876479
0.087647
0.0876469
0.0876465
0.0876425
0.0876431
0.0876457
0.0876475
0.0876453
0.087645
0.0876453
0.0876451
0.0876419
0.0876426
0.0876448
0.0876462
0.0876445
0.0876444
0.0876449
0.0876448
0.0876426
0.0876433
0.0876449
0.0876459
0.0876446
0.0876445
0.0876447
0.0876446
0.0876432
0.0876433
0.087644
0.0876444
0.0876436
0.0876432
0.0876429
0.0876426
0.0876419
0.0876411
0.0876402
0.0876398
0.087639
0.0876388
0.0876362
0.0876392
0.0876267
0.00763437
0.00377841
0.00799024
0.0268608
0.0443768
0.055715
0.0630202
0.0680855
0.0719029
0.0749797
0.0775839
0.0798616
0.0819035
0.0837655
0.0854891
0.0871017
0.0886229
0.0900653
0.0914421
0.0927567
0.0940078
0.0951903
0.0963023
0.0973385
0.0982939
0.0991637
0.0999528
0.100663
0.101295
0.101851
0.102339
0.102767
0.103139
0.103457
0.103735
0.103976
0.104184
0.104358
0.104507
0.104634
0.104741
0.104827
0.104901
0.104969
0.105025
0.105068
0.105104
0.105135
0.10516
0.105175
0.10519
0.105207
0.105222
0.105229
0.105235
0.105241
0.105246
0.105244
0.105245
0.105251
0.105256
0.105255
0.105254
0.105255
0.105255
0.105251
0.10525
0.105253
0.105256
0.105253
0.105251
0.105251
0.105251
0.105246
0.105246
0.105249
0.105252
0.105249
0.105248
0.105248
0.105247
0.105243
0.105243
0.105245
0.105248
0.105246
0.105245
0.105245
0.105245
0.105242
0.105242
0.105244
0.105246
0.105244
0.105244
0.105244
0.105245
0.105242
0.105242
0.105244
0.105245
0.105244
0.105244
0.105244
0.105244
0.105242
0.105242
0.105243
0.105243
0.105243
0.105242
0.105242
0.105241
0.10524
0.105239
0.105238
0.105238
0.105237
0.105237
0.105234
0.105237
0.105222
0.0112966
0.00534058
0.00804191
0.0283459
0.0489537
0.0629716
0.072241
0.0787206
0.0835882
0.0874822
0.0907512
0.0935897
0.0961185
0.098413
0.100527
0.102499
0.104353
0.106108
0.107779
0.109374
0.110891
0.112327
0.113678
0.114939
0.116104
0.117168
0.118135
0.119008
0.119787
0.120475
0.121081
0.121613
0.122078
0.122477
0.122824
0.123128
0.12339
0.12361
0.123798
0.123959
0.124096
0.124207
0.124301
0.124387
0.124459
0.124515
0.124561
0.124601
0.124634
0.124655
0.124674
0.124695
0.124714
0.124725
0.124732
0.12474
0.124746
0.124746
0.124747
0.124753
0.124759
0.124759
0.124758
0.124759
0.12476
0.124756
0.124753
0.124757
0.12476
0.124759
0.124755
0.124755
0.124755
0.124751
0.124749
0.124752
0.124755
0.124754
0.124751
0.124751
0.124751
0.124747
0.124745
0.124748
0.124751
0.124749
0.124747
0.124748
0.124748
0.124745
0.124743
0.124746
0.124748
0.124747
0.124746
0.124746
0.124747
0.124745
0.124743
0.124745
0.124747
0.124746
0.124745
0.124745
0.124746
0.124744
0.124743
0.124744
0.124745
0.124744
0.124743
0.124743
0.124742
0.124741
0.12474
0.124739
0.124738
0.124737
0.124737
0.124733
0.124737
0.124718
0.0156863
0.00799455
0.00794012
0.0289459
0.0527482
0.069823
0.0814422
0.0896606
0.0958324
0.10074
0.104828
0.108351
0.111468
0.11428
0.116859
0.119253
0.121497
0.123615
0.125626
0.127542
0.129364
0.131087
0.132709
0.134225
0.135629
0.136914
0.138083
0.139142
0.140091
0.140931
0.141673
0.142327
0.142899
0.143394
0.143823
0.1442
0.144526
0.144803
0.145038
0.14524
0.145413
0.145554
0.145673
0.14578
0.145872
0.145945
0.146003
0.146053
0.146096
0.146126
0.146149
0.146175
0.146199
0.146215
0.146224
0.146234
0.146243
0.146244
0.146244
0.146251
0.146259
0.146261
0.146259
0.14626
0.146262
0.146258
0.146254
0.146257
0.146262
0.146261
0.146257
0.146256
0.146257
0.146253
0.146248
0.146251
0.146256
0.146255
0.146252
0.146251
0.146252
0.146248
0.146244
0.146246
0.14625
0.14625
0.146247
0.146247
0.146248
0.146245
0.146242
0.146244
0.146247
0.146246
0.146244
0.146245
0.146246
0.146244
0.146241
0.146243
0.146246
0.146245
0.146244
0.146244
0.146244
0.146243
0.146241
0.146242
0.146243
0.146242
0.146241
0.14624
0.14624
0.146239
0.146238
0.146236
0.146235
0.146234
0.146234
0.14623
0.146234
0.146212
0.0203937
0.0117747
0.0079034
0.028492
0.0554145
0.0759093
0.090299
0.100635
0.10842
0.114586
0.119687
0.124051
0.127885
0.131322
0.134456
0.137351
0.140054
0.142595
0.145001
0.147287
0.149457
0.151507
0.153437
0.155241
0.156915
0.15845
0.159848
0.161118
0.162259
0.163275
0.164173
0.164967
0.165665
0.166271
0.166797
0.16726
0.167662
0.168006
0.168297
0.168549
0.168764
0.168943
0.169091
0.169224
0.16934
0.169433
0.169506
0.169571
0.169625
0.169665
0.169694
0.169726
0.169757
0.169778
0.16979
0.169803
0.169814
0.169819
0.169818
0.169825
0.169835
0.169839
0.169837
0.169839
0.169841
0.169839
0.169832
0.169835
0.16984
0.169841
0.169836
0.169835
0.169836
0.169833
0.169826
0.169828
0.169833
0.169834
0.16983
0.169829
0.16983
0.169827
0.169821
0.169823
0.169827
0.169827
0.169824
0.169824
0.169825
0.169823
0.169818
0.169819
0.169823
0.169823
0.169821
0.169821
0.169822
0.169821
0.169817
0.169819
0.169821
0.169822
0.169819
0.16982
0.16982
0.169819
0.169817
0.169817
0.169818
0.169818
0.169816
0.169816
0.169815
0.169814
0.169813
0.169811
0.16981
0.169808
0.169809
0.169804
0.169808
0.169782
0.024924
0.0163927
0.00833818
0.0268853
0.0565526
0.0807772
0.0983809
0.111264
0.121034
0.128761
0.135119
0.140523
0.145236
0.149434
0.153238
0.156733
0.15998
0.16302
0.165885
0.168599
0.171169
0.173595
0.175873
0.178004
0.179982
0.181798
0.183456
0.184964
0.186323
0.187537
0.188614
0.18957
0.190412
0.191148
0.191787
0.19235
0.192842
0.193265
0.193624
0.193935
0.194202
0.194425
0.19461
0.194775
0.194918
0.195036
0.195129
0.19521
0.195279
0.195332
0.195369
0.195408
0.195446
0.195475
0.195491
0.195507
0.195522
0.19553
0.195529
0.195537
0.195549
0.195556
0.195554
0.195556
0.195559
0.195558
0.19555
0.195551
0.195558
0.19556
0.195554
0.195553
0.195554
0.195551
0.195543
0.195544
0.19555
0.195552
0.195547
0.195546
0.195547
0.195545
0.195537
0.195538
0.195543
0.195544
0.19554
0.19554
0.195542
0.195539
0.195533
0.195534
0.195538
0.195539
0.195536
0.195536
0.195538
0.195537
0.195532
0.195533
0.195536
0.195537
0.195534
0.195534
0.195535
0.195534
0.195531
0.195531
0.195532
0.195532
0.195531
0.19553
0.195529
0.195528
0.195527
0.195525
0.195524
0.195521
0.195522
0.195516
0.195521
0.195491
0.0288357
0.0213247
0.0098773
0.0241711
0.0557347
0.0838689
0.105131
0.121035
0.133222
0.14288
0.150801
0.157495
0.163294
0.168427
0.173048
0.177268
0.181167
0.1848
0.188208
0.191423
0.194457
0.197313
0.199991
0.202493
0.204814
0.206949
0.208897
0.210673
0.212278
0.213717
0.214997
0.216137
0.217145
0.218031
0.218801
0.219482
0.22008
0.220596
0.221035
0.221417
0.221746
0.222024
0.222253
0.222456
0.222634
0.222782
0.222899
0.223001
0.223088
0.223156
0.223203
0.223252
0.223299
0.223336
0.223358
0.223379
0.223398
0.223411
0.22341
0.223419
0.223433
0.223443
0.223442
0.223444
0.223448
0.223449
0.223439
0.22344
0.223447
0.223451
0.223444
0.223443
0.223444
0.223443
0.223432
0.223432
0.223439
0.223442
0.223436
0.223435
0.223437
0.223435
0.223425
0.223425
0.223431
0.223433
0.223428
0.223428
0.22343
0.223429
0.22342
0.223421
0.223425
0.223427
0.223423
0.223424
0.223426
0.223425
0.223419
0.22342
0.223423
0.223425
0.223422
0.223422
0.223423
0.223422
0.223418
0.223418
0.223419
0.22342
0.223418
0.223417
0.223416
0.223415
0.223414
0.223411
0.22341
0.223407
0.223408
0.223402
0.223406
0.223372
0.0318581
0.0259711
0.0131905
0.020638
0.0525732
0.0845207
0.109845
0.129269
0.144364
0.156392
0.166251
0.174552
0.181704
0.187993
0.19362
0.198727
0.203417
0.207763
0.21182
0.215628
0.219207
0.222565
0.225705
0.228633
0.231344
0.233838
0.236114
0.238191
0.240072
0.241764
0.243274
0.244624
0.245823
0.24688
0.247804
0.248623
0.249343
0.24997
0.250506
0.250972
0.251376
0.251719
0.252002
0.252253
0.252472
0.252657
0.252804
0.252931
0.253041
0.253129
0.25319
0.25325
0.253308
0.253356
0.253385
0.253412
0.253437
0.253454
0.253455
0.253466
0.253482
0.253495
0.253495
0.253498
0.253504
0.253506
0.253495
0.253495
0.253502
0.253508
0.253502
0.2535
0.253502
0.253501
0.253489
0.253488
0.253494
0.253499
0.253493
0.253492
0.253494
0.253492
0.253481
0.25348
0.253485
0.253489
0.253484
0.253484
0.253486
0.253485
0.253475
0.253475
0.25348
0.253483
0.253478
0.253479
0.253481
0.253481
0.253473
0.253474
0.253477
0.25348
0.253476
0.253476
0.253477
0.253477
0.253473
0.253472
0.253473
0.253474
0.253472
0.253471
0.25347
0.253469
0.253468
0.253466
0.253464
0.253461
0.253462
0.253455
0.253459
0.253421
0.0339379
0.0298335
0.0183327
0.0169337
0.0468653
0.0819962
0.111657
0.135096
0.153631
0.168536
0.180786
0.191086
0.199927
0.207658
0.214535
0.220738
0.226401
0.231618
0.236461
0.240982
0.245211
0.249164
0.252845
0.256266
0.259428
0.262331
0.26498
0.267397
0.269589
0.271566
0.273336
0.274923
0.276339
0.277595
0.278697
0.279676
0.280541
0.281298
0.28195
0.282518
0.283011
0.283434
0.283784
0.284093
0.284363
0.284593
0.284778
0.284937
0.285074
0.285186
0.285266
0.285341
0.285413
0.285473
0.285512
0.285546
0.285578
0.285602
0.285607
0.285619
0.285638
0.285655
0.285657
0.285662
0.285669
0.285673
0.285661
0.28566
0.285668
0.285675
0.285669
0.285667
0.285669
0.28567
0.285656
0.285653
0.28566
0.285666
0.28566
0.285659
0.285661
0.28566
0.285647
0.285645
0.28565
0.285655
0.28565
0.28565
0.285652
0.285652
0.285641
0.28564
0.285644
0.285648
0.285644
0.285644
0.285646
0.285647
0.285639
0.285638
0.285642
0.285645
0.285642
0.285642
0.285643
0.285643
0.285638
0.285637
0.285638
0.285639
0.285637
0.285636
0.285636
0.285635
0.285633
0.285631
0.285629
0.285625
0.285626
0.285619
0.285623
0.285581
0.0352043
0.0326512
0.0242298
0.0141732
0.0388515
0.0755983
0.109542
0.137425
0.159947
0.178289
0.193459
0.206232
0.21718
0.226718
0.235158
0.24273
0.249603
0.255898
0.261707
0.2671
0.272119
0.276787
0.281116
0.285122
0.28881
0.292189
0.295266
0.29807
0.300615
0.302914
0.30498
0.306838
0.308504
0.309988
0.311298
0.312465
0.313502
0.314414
0.315204
0.315894
0.316497
0.317016
0.31745
0.31783
0.318163
0.318449
0.318681
0.318881
0.319052
0.319195
0.319299
0.319393
0.319482
0.319558
0.319609
0.319654
0.319695
0.319727
0.319737
0.319752
0.319774
0.319795
0.319801
0.319807
0.319816
0.319823
0.319811
0.319809
0.319817
0.319826
0.319821
0.319819
0.319821
0.319822
0.319808
0.319804
0.319809
0.319817
0.319812
0.31981
0.319812
0.319813
0.319799
0.319795
0.3198
0.319806
0.319801
0.3198
0.319803
0.319804
0.319792
0.319789
0.319794
0.319799
0.319794
0.319794
0.319797
0.319798
0.31979
0.319788
0.319792
0.319795
0.319792
0.319792
0.319793
0.319794
0.319789
0.319787
0.319789
0.31979
0.319788
0.319787
0.319786
0.319785
0.319784
0.319782
0.319779
0.319776
0.319777
0.31977
0.319773
0.319726
0.0358805
0.0344392
0.0293377
0.0139388
0.0295865
0.0649533
0.102401
0.134941
0.161955
0.184318
0.202997
0.2188
0.232361
0.244161
0.254563
0.263855
0.272245
0.27989
0.286906
0.293383
0.299378
0.304926
0.310046
0.314759
0.319079
0.323021
0.326601
0.329854
0.332805
0.335476
0.337881
0.340051
0.342005
0.343756
0.34531
0.346701
0.34794
0.349039
0.349997
0.350838
0.351574
0.352212
0.352751
0.353221
0.353632
0.353988
0.354281
0.354532
0.354747
0.354929
0.355065
0.355185
0.355295
0.35539
0.355459
0.355517
0.355569
0.355612
0.35563
0.355649
0.355676
0.355701
0.355711
0.35572
0.355732
0.355741
0.355731
0.355729
0.355736
0.355746
0.355743
0.355741
0.355744
0.355746
0.355732
0.355726
0.35573
0.355738
0.355734
0.355733
0.355735
0.355736
0.355723
0.355717
0.355721
0.355727
0.355723
0.355722
0.355725
0.355727
0.355715
0.355711
0.355715
0.35572
0.355716
0.355716
0.355719
0.355721
0.355712
0.35571
0.355713
0.355717
0.355715
0.355714
0.355716
0.355717
0.355712
0.35571
0.355711
0.355713
0.355711
0.35571
0.355709
0.355709
0.355708
0.355705
0.355703
0.355699
0.3557
0.355693
0.355696
0.355644
0.0361935
0.0354151
0.0327864
0.0177631
0.0212716
0.0505965
0.0893258
0.126172
0.158007
0.184938
0.20774
0.227193
0.243958
0.258566
0.271431
0.282887
0.293193
0.302542
0.31108
0.318922
0.326144
0.332794
0.3389
0.344491
0.349589
0.354217
0.358404
0.362194
0.365626
0.368732
0.371537
0.374075
0.376368
0.378436
0.380284
0.381944
0.383431
0.384757
0.385923
0.386951
0.387854
0.388643
0.389315
0.3899
0.390412
0.390856
0.391227
0.391544
0.391817
0.392048
0.392227
0.392382
0.39252
0.392641
0.392732
0.392808
0.392875
0.392931
0.39296
0.392987
0.393018
0.39305
0.393066
0.393079
0.393093
0.393106
0.393099
0.393097
0.393104
0.393115
0.393113
0.393113
0.393115
0.393118
0.393105
0.393098
0.393101
0.393109
0.393106
0.393105
0.393107
0.393109
0.393096
0.39309
0.393092
0.393099
0.393095
0.393095
0.393097
0.393099
0.393089
0.393084
0.393086
0.393092
0.393089
0.393089
0.393091
0.393094
0.393086
0.393083
0.393085
0.39309
0.393088
0.393088
0.39309
0.393091
0.393087
0.393085
0.393085
0.393087
0.393086
0.393085
0.393084
0.393084
0.393083
0.393081
0.393078
0.393075
0.393075
0.393068
0.393071
0.393014
0.0363174
0.0358672
0.0346536
0.0248651
0.0170473
0.0349232
0.0703098
0.109764
0.146239
0.178108
0.205602
0.229343
0.249963
0.26801
0.283935
0.298105
0.310827
0.322334
0.332806
0.342384
0.351166
0.359217
0.366578
0.373282
0.379361
0.384852
0.389795
0.394251
0.398275
0.401914
0.405206
0.408192
0.410902
0.413358
0.41557
0.417566
0.419364
0.420977
0.422406
0.423672
0.424791
0.425773
0.426618
0.427354
0.427998
0.428558
0.429032
0.429438
0.429786
0.430083
0.43032
0.430521
0.430698
0.430852
0.430973
0.431074
0.431161
0.431235
0.431279
0.431318
0.431357
0.431395
0.431419
0.431438
0.431456
0.431473
0.431471
0.43147
0.431477
0.431489
0.43149
0.43149
0.431493
0.431497
0.431486
0.431478
0.43148
0.431487
0.431486
0.431485
0.431487
0.43149
0.431478
0.431471
0.431472
0.431478
0.431475
0.431475
0.431477
0.43148
0.431471
0.431465
0.431466
0.431471
0.43147
0.43147
0.431472
0.431475
0.431469
0.431465
0.431467
0.431471
0.431471
0.431471
0.431472
0.431474
0.431471
0.431469
0.431469
0.431471
0.43147
0.43147
0.431469
0.431469
0.431469
0.431467
0.431465
0.431461
0.431462
0.431455
0.431458
0.431396
0.0363587
0.0360423
0.0354781
0.0311102
0.0195734
0.0228802
0.0477905
0.0853584
0.124922
0.161548
0.194082
0.222675
0.247802
0.269965
0.289622
0.30716
0.322905
0.337135
0.350061
0.361852
0.372631
0.382482
0.391455
0.399595
0.406943
0.413547
0.419468
0.424784
0.42957
0.433896
0.437814
0.441378
0.444625
0.447584
0.450267
0.452702
0.454907
0.456895
0.458672
0.460254
0.461659
0.462898
0.463975
0.464916
0.465738
0.466455
0.467068
0.467593
0.468046
0.468432
0.468748
0.469015
0.469245
0.469445
0.469608
0.469743
0.469858
0.469956
0.470022
0.470077
0.470128
0.470177
0.47021
0.470237
0.470262
0.470284
0.470288
0.47029
0.470298
0.470311
0.470315
0.470317
0.470321
0.470326
0.470317
0.47031
0.47031
0.470316
0.470315
0.470315
0.470317
0.470321
0.470311
0.470304
0.470303
0.470308
0.470307
0.470307
0.470309
0.470312
0.470305
0.470299
0.470299
0.470304
0.470303
0.470303
0.470306
0.470309
0.470304
0.470301
0.470302
0.470306
0.470306
0.470307
0.470309
0.470311
0.470309
0.470307
0.470307
0.470309
0.470309
0.470309
0.470309
0.470309
0.470309
0.470308
0.470307
0.470304
0.470304
0.470298
0.4703
0.470234
0.0363701
0.0360981
0.0357763
0.0342714
0.0272101
0.0199737
0.0286907
0.0558809
0.093666
0.133258
0.170481
0.204177
0.234326
0.261245
0.285324
0.306938
0.326411
0.344033
0.360049
0.374648
0.387977
0.400139
0.411199
0.421208
0.430218
0.438294
0.445518
0.45199
0.457811
0.463074
0.467851
0.47221
0.476197
0.479849
0.483182
0.486222
0.488989
0.491496
0.493751
0.495771
0.497571
0.499168
0.500567
0.501791
0.502864
0.5038
0.504607
0.505301
0.505899
0.506411
0.506838
0.507198
0.507506
0.507771
0.507991
0.508174
0.50833
0.508462
0.508559
0.508639
0.508708
0.508771
0.508819
0.508857
0.508891
0.50892
0.508933
0.508941
0.508951
0.508965
0.508972
0.508977
0.508983
0.508989
0.508983
0.508977
0.508976
0.508981
0.508981
0.508982
0.508984
0.508988
0.508981
0.508974
0.508973
0.508976
0.508975
0.508976
0.508978
0.508982
0.508976
0.508971
0.508971
0.508974
0.508974
0.508975
0.508978
0.508981
0.508978
0.508976
0.508976
0.50898
0.508981
0.508982
0.508984
0.508987
0.508987
0.508986
0.508986
0.508988
0.508989
0.50899
0.508991
0.508991
0.508992
0.508992
0.508991
0.508989
0.50899
0.508985
0.508986
0.508917
0.0363726
0.0361125
0.0358639
0.0353587
0.0329694
0.0264471
0.0219986
0.0313202
0.0570317
0.0934384
0.132804
0.170825
0.206013
0.238075
0.267154
0.293512
0.317436
0.339195
0.359026
0.377135
0.393684
0.408791
0.422535
0.434975
0.446177
0.456227
0.465232
0.473318
0.480612
0.487229
0.493264
0.498792
0.503873
0.508546
0.512834
0.516762
0.52035
0.523613
0.526562
0.529213
0.531585
0.533696
0.535557
0.537191
0.538624
0.539877
0.540962
0.541898
0.542706
0.5434
0.543985
0.54448
0.544902
0.545263
0.545565
0.545819
0.546033
0.546214
0.546356
0.546472
0.546569
0.546654
0.546722
0.546777
0.546824
0.546865
0.546888
0.546905
0.546921
0.546938
0.546949
0.546958
0.546966
0.546974
0.546972
0.546968
0.546967
0.546971
0.546972
0.546973
0.546976
0.54698
0.546975
0.54697
0.546968
0.54697
0.54697
0.54697
0.546973
0.546977
0.546973
0.54697
0.546969
0.546971
0.546972
0.546973
0.546976
0.546981
0.546979
0.546978
0.546979
0.546982
0.546984
0.546986
0.546989
0.546993
0.546994
0.546994
0.546995
0.546998
0.547
0.547001
0.547003
0.547005
0.547007
0.547008
0.547008
0.547007
0.547009
0.547005
0.547007
0.546933
0.0363731
0.0361154
0.0358843
0.035639
0.0350087
0.0329021
0.0280109
0.0241391
0.0303366
0.0508459
0.0833028
0.12136
0.159878
0.196582
0.230758
0.262263
0.291211
0.317794
0.342193
0.364569
0.385087
0.403874
0.421018
0.436589
0.450677
0.463398
0.474892
0.485309
0.494794
0.503475