/*--------------------------------*- C++ -*----------------------------------*\
  =========                 |
  \\      /  F ield         | OpenFOAM: The Open Source CFD Toolbox
   \\    /   O peration     | Website:  https://openfoam.org
    \\  /    A nd           | Version:  8
     \\/     M anipulation  |
\*---------------------------------------------------------------------------*/
FoamFile
{
    version     2.0;
    format      ascii;
    class       surfaceScalarField;
    location    "150";
    object      phi;
}
// * * * * * * * * * * * * * * * * * * * * * * * * * * * * * * * * * * * * * //

dimensions      [0 3 -1 0 0 0 0];

internalField   nonuniform List<scalar> 
14458
(
0.00221717
0.00140575
0.00205437
0.000164838
0.00193611
0.000121966
0.00175571
0.000181999
0.00160667
0.000149972
0.00153508
7.21678e-05
0.00150244
3.36011e-05
0.0014871
1.59756e-05
0.00148038
7.08408e-06
0.00147858
1.86731e-06
0.00147998
-4.33998e-07
0.00148364
-3.0066e-06
0.00148888
-4.88005e-06
0.00149519
-6.24428e-06
0.00150219
-6.23026e-06
0.00150967
-7.03062e-06
0.00151734
-7.54095e-06
0.00152489
-7.74375e-06
0.00153215
-6.19903e-06
0.00153912
-6.29122e-06
0.00154568
-6.23187e-06
0.00155166
-6.06246e-06
0.00155705
-4.49193e-06
0.00156191
-4.42157e-06
0.00156626
-4.31411e-06
0.00156995
-4.11368e-06
0.00157305
-1.85346e-06
0.00157582
-2.01789e-06
0.00157826
-2.156e-06
0.00158029
-2.28361e-06
0.00158198
-7.62827e-07
0.00158347
-1.13062e-06
0.00158481
-1.47977e-06
0.00158579
-1.67503e-06
0.00158646
5.69423e-07
0.00158714
-1.24564e-08
0.00158782
-5.36572e-07
0.00158833
-9.6872e-07
0.00158868
4.77843e-07
0.00158907
-1.58491e-07
0.0015895
-7.42376e-07
0.00158968
-1.08793e-06
0.00158965
1.19648e-06
0.00158976
4.57587e-07
0.00159
-2.14552e-07
0.00159014
-7.25931e-07
0.00159016
6.97695e-07
0.00159028
-2.33242e-08
0.00159053
-6.82446e-07
0.00159054
-1.04202e-06
0.00159033
1.22515e-06
0.00159031
4.45253e-07
0.00159047
-2.7068e-07
0.00159053
-7.80091e-07
0.00159048
6.44046e-07
0.00159055
-8.75224e-08
0.00159076
-7.59135e-07
0.00159074
-1.10278e-06
0.00159049
1.1516e-06
0.00159044
3.63594e-07
0.0015906
-3.61632e-07
0.00159067
-8.56134e-07
0.00159061
5.21759e-07
0.00159067
-1.9442e-07
0.00159088
-8.42636e-07
0.00159084
-1.1759e-06
0.0015906
9.59233e-07
0.00159057
1.78154e-07
0.00159075
-5.32748e-07
0.00159083
-1.00427e-06
0.00159078
3.39791e-07
0.00159086
-3.52029e-07
0.00159105
-9.57665e-07
0.001591
-1.26456e-06
0.00159077
7.73295e-07
0.00159076
1.50549e-08
0.00159093
-6.4535e-07
0.001591
-1.08428e-06
0.00159097
1.66944e-07
0.00159107
-4.99486e-07
0.00159125
-1.04692e-06
0.00159121
-1.33018e-06
0.00159102
5.4771e-07
0.00159103
-1.59741e-07
0.0015912
-7.46179e-07
0.00159124
-1.13217e-06
0.00159121
2.5889e-08
0.00159131
-6.02312e-07
0.00159148
-1.08078e-06
0.00159144
-1.34235e-06
0.00159129
3.61979e-07
0.00159132
-2.77801e-07
0.00159146
-7.821e-07
0.0015915
-1.13158e-06
0.00159148
-1.23e-07
0.00159157
-6.73983e-07
0.00159171
-1.08592e-06
0.00159168
-1.33519e-06
0.00159158
4.17682e-08
0.00159162
-4.95942e-07
0.00159174
-8.96167e-07
0.00159179
-1.2001e-06
0.00159179
-4.15735e-07
0.00159186
-8.39492e-07
0.00159197
-1.14257e-06
0.00159198
-1.35676e-06
0.00159194
-4.65229e-07
0.00159198
-8.11134e-07
0.00159207
-1.04266e-06
0.00159212
-1.24482e-06
0.00159215
-8.73789e-07
0.0015922
-1.06935e-06
0.00159227
-1.15554e-06
0.00159234
-1.26382e-06
0.00159239
-1.24993e-06
0.00159242
-1.25211e-06
0.00159246
-1.14653e-06
0.00159252
-1.0993e-06
0.00159259
-1.40482e-06
0.00159255
-1.09557e-06
0.00159263
8.92495e-08
3.44542e-07
0.00310584
0.00260985
0.00287245
0.000399468
0.00263172
0.000364777
0.00230015
0.000514281
0.00207409
0.000376427
0.00197273
0.000173758
0.0019265
8.02278e-05
0.00190411
3.86282e-05
0.00189352
1.78144e-05
0.0018897
5.71156e-06
0.00189025
-5.82e-07
0.00189389
-6.38536e-06
0.00189971
-1.05533e-05
0.00190699
-1.35075e-05
0.00191525
-1.41727e-05
0.00192418
-1.57796e-05
0.00193343
-1.67376e-05
0.00194254
-1.69562e-05
0.00195134
-1.45587e-05
0.00195982
-1.4488e-05
0.00196781
-1.40905e-05
0.0019751
-1.33912e-05
0.00198165
-1.06803e-05
0.00198758
-1.01695e-05
0.00199288
-9.60594e-06
0.00199735
-8.77478e-06
0.0020011
-5.08742e-06
0.00200445
-5.0574e-06
0.0020074
-4.99748e-06
0.00200986
-4.84845e-06
0.00201188
-2.40676e-06
0.00201368
-2.78342e-06
0.0020153
-3.16616e-06
0.00201646
-3.1366e-06
0.00201725
2.9949e-07
0.00201805
-5.44084e-07
0.00201887
-1.29878e-06
0.00201948
-1.7748e-06
0.0020199
4.06481e-07
0.00202036
-5.3105e-07
0.00202089
-1.40879e-06
0.0020211
-1.68013e-06
0.00202104
1.74601e-06
0.00202116
5.69818e-07
0.00202146
-5.03459e-07
0.00202162
-1.14064e-06
0.00202164
9.82526e-07
0.00202179
-1.39049e-07
0.00202211
-1.18165e-06
0.00202211
-1.47902e-06
0.00202184
1.926e-06
0.0020218
6.54371e-07
0.00202201
-5.22559e-07
0.00202209
-1.16001e-06
0.00202201
9.68498e-07
0.00202211
-1.86282e-07
0.00202239
-1.26694e-06
0.00202236
-1.53779e-06
0.00202203
1.85986e-06
0.00202197
5.5759e-07
0.00202218
-6.51493e-07
0.00202226
-1.26639e-06
0.00202218
7.98095e-07
0.00202227
-3.3373e-07
0.00202253
-1.37064e-06
0.00202249
-1.63068e-06
0.00202217
1.58307e-06
0.00202213
2.82081e-07
0.00202236
-9.0848e-07
0.00202247
-1.48794e-06
0.0020224
5.33043e-07
0.0020225
-5.62596e-07
0.00202275
-1.52155e-06
0.00202269
-1.74325e-06
0.00202239
1.31202e-06
0.00202237
3.92823e-08
0.0020226
-1.05925e-06
0.00202269
-1.59007e-06
0.00202264
2.76725e-07
0.00202277
-7.88926e-07
0.00202302
-1.64177e-06
0.00202296
-1.8402e-06
0.00202271
9.60352e-07
0.00202273
-2.2844e-07
0.00202294
-1.19029e-06
0.002023
-1.63513e-06
0.00202295
7.88698e-08
0.00202309
-9.36993e-07
0.00202331
-1.66941e-06
0.00202326
-1.85864e-06
0.00202305
6.65293e-07
0.00202309
-4.09438e-07
0.00202328
-1.2235e-06
0.00202333
-1.62824e-06
0.0020233
-1.39597e-07
0.00202342
-1.02397e-06
0.00202359
-1.64916e-06
0.00202356
-1.86111e-06
0.00202342
1.6892e-07
0.00202348
-7.27899e-07
0.00202364
-1.36277e-06
0.0020237
-1.73076e-06
0.00202369
-5.71444e-07
0.00202379
-1.24197e-06
0.00202392
-1.70344e-06
0.00202394
-1.92733e-06
0.00202389
-6.02124e-07
0.00202394
-1.16686e-06
0.00202405
-1.54211e-06
0.00202412
-1.80821e-06
0.00202416
-1.24329e-06
0.00202423
-1.54444e-06
0.00202431
-1.71101e-06
0.0020244
-1.87263e-06
0.00202447
-1.77123e-06
0.00202451
-1.75945e-06
0.00202456
-1.69265e-06
0.00202464
-1.64853e-06
0.00202473
-2.03022e-06
0.00202467
-1.49938e-06
0.00202478
-1.20398e-06
-8.89097e-07
0.00402706
0.00371106
0.00370924
0.000718249
0.00332562
0.000749744
0.00284133
0.000998961
0.0025463
0.000671663
0.00241754
0.00030265
0.00235871
0.00013927
0.00232988
6.75953e-05
0.00231592
3.18588e-05
0.00231048
1.1178e-05
0.00231054
-4.38847e-07
0.0023145
-1.0202e-05
0.00232119
-1.71614e-05
0.00232972
-2.20213e-05
0.0023395
-2.37868e-05
0.00235013
-2.63137e-05
0.00236118
-2.775e-05
0.0023721
-2.79138e-05
0.00238267
-2.48961e-05
0.00239286
-2.45366e-05
0.00240248
-2.3633e-05
0.00241126
-2.21838e-05
0.00241916
-1.83946e-05
0.00242631
-1.7225e-05
0.0024327
-1.59832e-05
0.0024381
-1.42514e-05
0.00244262
-9.3457e-06
0.00244665
-8.93446e-06
0.00245021
-8.49122e-06
0.00245316
-7.85051e-06
0.0024556
-4.64323e-06
0.00245776
-4.86904e-06
0.00245971
-5.1399e-06
0.0024611
-4.67225e-06
0.00246204
-3.77372e-07
0.00246301
-1.3721e-06
0.00246399
-2.24716e-06
0.00246472
-2.60167e-06
0.00246522
8.73382e-08
0.00246577
-1.04049e-06
0.00246642
-2.11106e-06
0.00246667
-2.11557e-06
0.00246658
2.07462e-06
0.00246672
5.40445e-07
0.00246709
-8.55041e-07
0.00246729
-1.46535e-06
0.0024673
1.12189e-06
0.00246749
-3.09131e-07
0.00246788
-1.65248e-06
0.00246788
-1.69667e-06
0.00246754
2.47537e-06
0.0024675
7.78077e-07
0.00246775
-7.95534e-07
0.00246785
-1.41103e-06
0.00246776
1.18935e-06
0.00246787
-3.05955e-07
0.00246822
-1.72139e-06
0.00246817
-1.72973e-06
0.00246777
2.44907e-06
0.0024677
6.89455e-07
0.00246795
-9.4809e-07
0.00246805
-1.53566e-06
0.00246795
9.93524e-07
0.00246806
-4.73696e-07
0.00246839
-1.82543e-06
0.00246833
-1.82674e-06
0.00246794
2.12042e-06
0.00246789
3.50423e-07
0.00246818
-1.26929e-06
0.00246831
-1.81167e-06
0.00246823
6.73172e-07
0.00246835
-7.49562e-07
0.00246866
-1.98645e-06
0.00246858
-1.94171e-06
0.00246821
1.79254e-06
0.00246819
4.99225e-08
0.00246847
-1.43459e-06
0.00246858
-1.91685e-06
0.00246852
3.57538e-07
0.00246868
-1.03833e-06
0.00246898
-2.11965e-06
0.00246891
-2.06173e-06
0.0024686
1.33786e-06
0.00246862
-2.90433e-07
0.00246888
-1.572e-06
0.00246895
-1.9389e-06
0.0024689
1.28438e-07
0.00246906
-1.21519e-06
0.00246933
-2.12467e-06
0.00246927
-2.0854e-06
0.00246902
9.49477e-07
0.00246907
-5.20874e-07
0.00246929
-1.58731e-06
0.00246936
-1.9232e-06
0.00246932
-1.36443e-07
0.00246946
-1.29647e-06
0.00246968
-2.06427e-06
0.00246964
-2.10626e-06
0.00246947
3.1427e-07
0.00246954
-9.03235e-07
0.00246973
-1.71706e-06
0.0024698
-2.04815e-06
0.0024698
-6.61669e-07
0.00246991
-1.52678e-06
0.00247008
-2.08465e-06
0.0024701
-2.22532e-06
0.00247004
-6.57265e-07
0.0024701
-1.40612e-06
0.00247023
-1.87183e-06
0.00247032
-2.14312e-06
0.00247036
-1.47577e-06
0.00247045
-1.84874e-06
0.00247055
-2.02391e-06
0.00247066
-2.21358e-06
0.00247074
-2.13242e-06
0.00247079
-2.08745e-06
0.00247085
-1.958e-06
0.00247095
-1.92592e-06
0.00247106
-2.43116e-06
0.00247099
-1.66755e-06
0.00247112
-4.8314e-07
-1.59338e-07
0.0050863
0.00472717
0.00467084
0.00113468
0.00411874
0.00130316
0.00346764
0.00165044
0.00309673
0.00104279
0.00293647
0.00046303
0.00286296
0.000213004
0.00282664
0.000104045
0.00280878
4.97998e-05
0.00280149
1.84727e-05
0.00280103
2.354e-07
0.00280539
-1.44252e-05
0.00281314
-2.4829e-05
0.00282317
-3.205e-05
0.00283476
-3.5206e-05
0.00284742
-3.88795e-05
0.00286062
-4.09202e-05
0.0028737
-4.10462e-05
0.00288637
-3.73333e-05
0.00289862
-3.66453e-05
0.00291021
-3.5144e-05
0.0029208
-3.28028e-05
0.00293035
-2.77474e-05
0.002939
-2.57833e-05
0.00294673
-2.37149e-05
0.00295327
-2.08914e-05
0.00295875
-1.45514e-05
0.00296364
-1.36674e-05
0.00296796
-1.27421e-05
0.00297154
-1.14963e-05
0.00297449
-7.39076e-06
0.00297711
-7.42053e-06
0.00297948
-7.53515e-06
0.00298117
-6.52883e-06
0.00298231
-1.24344e-06
0.00298348
-2.40593e-06
0.00298467
-3.40403e-06
0.00298556
-3.60032e-06
0.00298617
-3.31233e-07
0.00298684
-1.6742e-06
0.00298762
-2.95537e-06
0.00298793
-2.62798e-06
0.00298783
2.43204e-06
0.002988
4.81263e-07
0.00298844
-1.28011e-06
0.00298869
-1.84627e-06
0.0029887
1.26598e-06
0.00298893
-5.23392e-07
0.0029894
-2.2069e-06
0.0029894
-1.93584e-06
0.002989
3.10836e-06
0.00298895
9.13118e-07
0.00298925
-1.1163e-06
0.00298938
-1.6939e-06
0.00298926
1.43997e-06
0.00298939
-4.51239e-07
0.00298981
-2.24862e-06
0.00298976
-1.93093e-06
0.00298928
3.13721e-06
0.00298919
8.41271e-07
0.0029895
-1.2908e-06
0.00298962
-1.83444e-06
0.0029895
1.2206e-06
0.00298963
-6.36657e-07
0.00299002
-2.34599e-06
0.00298995
-2.02615e-06
0.00298948
2.75535e-06
0.00298943
4.34479e-07
0.00298977
-1.68081e-06
0.00298992
-2.1682e-06
0.00298983
8.42794e-07
0.00298998
-9.60689e-07
0.00299035
-2.51215e-06
0.00299025
-2.13784e-06
0.00298981
2.36852e-06
0.00298978
7.30088e-08
0.00299011
-1.85694e-06
0.00299024
-2.27147e-06
0.00299018
4.64115e-07
0.00299037
-1.31742e-06
0.00299073
-2.65575e-06
0.00299065
-2.28155e-06
0.00299028
1.79933e-06
0.0029903
-3.46721e-07
0.00299061
-1.99656e-06
0.0029907
-2.26181e-06
0.00299063
2.04834e-07
0.00299083
-1.52308e-06
0.00299115
-2.63093e-06
0.00299107
-2.31037e-06
0.00299077
1.30615e-06
0.00299083
-6.31068e-07
0.00299111
-1.98786e-06
0.00299118
-2.23459e-06
0.00299113
-1.09506e-07
0.0029913
-1.59318e-06
0.00299156
-2.52065e-06
0.00299152
-2.35337e-06
0.00299132
5.15546e-07
0.0029914
-1.08118e-06
0.00299163
-2.1018e-06
0.00299171
-2.38441e-06
0.00299171
-7.35458e-07
0.00299185
-1.82994e-06
0.00299205
-2.50222e-06
0.00299207
-2.54077e-06
0.00299199
-6.75695e-07
0.00299207
-1.64388e-06
0.00299223
-2.23053e-06
0.00299233
-2.50812e-06
0.00299239
-1.70075e-06
0.00299249
-2.16147e-06
0.00299261
-2.39667e-06
0.00299274
-2.62436e-06
0.00299284
-2.46187e-06
0.0029929
-2.38484e-06
0.00299297
-2.29984e-06
0.00299309
-2.29463e-06
0.00299322
-2.84207e-06
0.00299314
-1.82541e-06
0.0029933
-1.53905e-06
-1.32849e-06
0.00633298
0.00565572
0.00581056
0.00165807
0.00506167
0.00205311
0.00422154
0.00249087
0.00376034
0.00150415
0.00356121
0.00066226
0.00346933
0.000305056
0.00342359
0.000149896
0.00340077
7.26845e-05
0.00339109
2.81726e-05
0.00338988
1.61272e-06
0.00339462
-1.90665e-05
0.00340356
-3.36956e-05
0.00341533
-4.38106e-05
0.00342905
-4.8792e-05
0.0034441
-5.38632e-05
0.00345986
-5.66402e-05
0.00347552
-5.67337e-05
0.00349074
-5.23773e-05
0.00350548
-5.12886e-05
0.00351946
-4.90548e-05
0.00353227
-4.56266e-05
0.00354385
-3.91777e-05
0.00355435
-3.62194e-05
0.00356377
-3.31074e-05
0.00357174
-2.8925e-05
0.00357844
-2.10483e-05
0.00358441
-1.95293e-05
0.00358968
-1.79561e-05
0.00359406
-1.59197e-05
0.00359768
-1.08543e-05
0.00360089
-1.05782e-05
0.00360379
-1.04344e-05
0.00360587
-8.72095e-06
0.00360729
-2.45916e-06
0.00360872
-3.75097e-06
0.00361018
-4.82649e-06
0.00361128
-4.77023e-06
0.00361203
-9.41782e-07
0.00361285
-2.47358e-06
0.0036138
-3.93784e-06
0.00361419
-3.15472e-06
0.00361409
2.71902e-06
0.0036143
3.39031e-07
0.00361483
-1.79196e-06
0.00361513
-2.24541e-06
0.00361516
1.35632e-06
0.00361544
-7.95121e-07
0.003616
-2.81865e-06
0.00361601
-2.11491e-06
0.00361554
3.74657e-06
0.00361548
1.02329e-06
0.00361584
-1.4848e-06
0.00361599
-1.95991e-06
0.00361586
1.67298e-06
0.00361602
-6.26981e-07
0.00361651
-2.81564e-06
0.00361645
-2.05478e-06
0.00361588
3.85292e-06
0.00361578
9.81638e-07
0.00361614
-1.67699e-06
0.00361629
-2.11295e-06
0.00361615
1.43686e-06
0.0036163
-8.23697e-07
0.00361676
-2.89796e-06
0.00361669
-2.14229e-06
0.00361613
3.4244e-06
0.00361606
5.09059e-07
0.00361647
-2.13668e-06
0.00361665
-2.50507e-06
0.00361654
1.00453e-06
0.00361671
-1.19299e-06
0.00361715
-3.06042e-06
0.00361704
-2.24229e-06
0.00361651
2.98184e-06
0.00361648
8.70514e-08
0.00361687
-2.3165e-06
0.00361703
-2.59926e-06
0.00361695
5.63881e-07
0.00361718
-1.62035e-06
0.00361761
-3.20977e-06
0.00361751
-2.41026e-06
0.00361707
2.29212e-06
0.0036171
-4.14859e-07
0.00361747
-2.45013e-06
0.00361757
-2.54629e-06
0.00361749
2.8032e-07
0.00361773
-1.85223e-06
0.00361811
-3.14538e-06
0.00361802
-2.44461e-06
0.00361766
1.68676e-06
0.00361773
-7.55272e-07
0.00361806
-2.40926e-06
0.00361814
-2.5053e-06
0.00361809
-8.06142e-08
0.00361829
-1.90147e-06
0.0036186
-2.97366e-06
0.00361854
-2.51608e-06
0.00361831
7.36248e-07
0.00361841
-1.26728e-06
0.00361867
-2.49168e-06
0.00361878
-2.67773e-06
0.00361877
-8.01746e-07
0.00361894
-2.12951e-06
0.00361917
-2.89684e-06
0.0036192
-2.78072e-06
0.00361911
-6.78475e-07
0.00361921
-1.87526e-06
0.00361939
-2.56346e-06
0.00361952
-2.82178e-06
0.00361958
-1.90994e-06
0.0036197
-2.45173e-06
0.00361984
-2.69623e-06
0.00362
-2.95203e-06
0.00362012
-2.79918e-06
0.00362019
-2.67261e-06
0.00362028
-2.53583e-06
0.00362041
-2.55643e-06
0.00362057
-3.22458e-06
0.00362048
-1.90287e-06
0.00362067
-8.86435e-07
-7.20929e-07
0.0078118
0.0064849
0.0071788
0.00229212
0.00620224
0.00303088
0.00514295
0.0035505
0.00457084
0.00207647
0.00432234
0.000910867
0.0042068
0.000420804
0.0041488
0.00020801
0.00411946
0.000102101
0.00410652
4.11172e-05
0.00410412
4.20988e-06
0.00410913
-2.39506e-05
0.00411933
-4.38264e-05
0.00413308
-5.75579e-05
0.00414927
-6.48165e-05
0.00416714
-7.16582e-05
0.00418593
-7.53966e-05
0.00420467
-7.55365e-05
0.00422296
-7.04455e-05
0.00424074
-6.89395e-05
0.00425763
-6.58788e-05
0.00427318
-6.12012e-05
0.00428727
-5.30908e-05
0.00430009
-4.89633e-05
0.0043116
-4.4605e-05
0.00432138
-3.88081e-05
0.00432964
-2.90467e-05
0.00433699
-2.67544e-05
0.00434349
-2.4384e-05
0.0043489
-2.1398e-05
0.00435338
-1.51445e-05
0.00435735
-1.44921e-05
0.00436092
-1.40191e-05
0.00436351
-1.1468e-05
0.0043653
-3.99448e-06
0.00436709
-5.43264e-06
0.00436889
-6.58591e-06
0.00437026
-6.23808e-06
0.0043712
-1.71518e-06
0.00437223
-3.47313e-06
0.00437339
-5.14595e-06
0.00437388
-3.83846e-06
0.0043738
3.04158e-06
0.00437408
1.50635e-07
0.00437472
-2.41264e-06
0.0043751
-2.74915e-06
0.00437515
1.45533e-06
0.00437549
-1.13216e-06
0.00437616
-3.55432e-06
0.00437618
-2.35876e-06
0.00437564
4.50749e-06
0.00437557
1.15452e-06
0.004376
-1.91729e-06
0.00437617
-2.29037e-06
0.00437602
1.95337e-06
0.00437622
-8.38627e-07
0.0043768
-3.48812e-06
0.00437674
-2.22448e-06
0.00437607
4.71231e-06
0.00437594
1.15547e-06
0.00437637
-2.12412e-06
0.00437654
-2.45269e-06
0.00437638
1.70139e-06
0.00437656
-1.04466e-06
0.00437711
-3.54816e-06
0.00437702
-2.29814e-06
0.00437636
4.23124e-06
0.00437628
6.07586e-07
0.00437676
-2.66357e-06
0.00437697
-2.91123e-06
0.00437684
1.20676e-06
0.00437705
-1.46494e-06
0.00437757
-3.70446e-06
0.00437744
-2.38208e-06
0.00437682
3.72549e-06
0.00437678
1.16702e-07
0.00437724
-2.84626e-06
0.00437742
-2.99277e-06
0.00437734
6.95009e-07
0.0043776
-1.97368e-06
0.0043781
-3.85979e-06
0.004378
-2.57713e-06
0.00437748
2.89517e-06
0.00437751
-4.80818e-07
0.00437794
-2.97272e-06
0.00437806
-2.88779e-06
0.00437797
3.84679e-07
0.00437825
-2.23451e-06
0.00437869
-3.74875e-06
0.00437859
-2.61708e-06
0.00437818
2.15888e-06
0.00437825
-8.86472e-07
0.00437863
-2.89441e-06
0.00437874
-2.82972e-06
0.00437868
-3.04987e-08
0.00437892
-2.25857e-06
0.00437928
-3.50463e-06
0.00437921
-2.72062e-06
0.00437894
1.02018e-06
0.00437905
-1.47157e-06
0.00437936
-2.9418e-06
0.00437949
-3.02893e-06
0.00437948
-8.63529e-07
0.00437968
-2.47593e-06
0.00437996
-3.36504e-06
0.00437999
-3.07984e-06
0.00437989
-6.5514e-07
0.00438
-2.13013e-06
0.00438021
-2.95852e-06
0.00438036
-3.20582e-06
0.00438044
-2.1378e-06
0.00438058
-2.78417e-06
0.00438075
-3.09292e-06
0.00438094
-3.39238e-06
0.00438108
-3.14128e-06
0.00438117
-2.96683e-06
0.00438127
-2.8853e-06
0.00438142
-2.94809e-06
0.00438161
-3.65985e-06
0.0043815
-2.00403e-06
0.00438174
-2.07277e-06
-2.1724e-06
0.00956728
0.00719992
0.00882964
0.00303089
0.00759461
0.004267
0.00627871
0.00486671
0.00556829
0.00278708
0.00525608
0.00122318
0.00510954
0.000567519
0.00503532
0.000282336
0.00499721
0.000140293
0.00497972
5.86192e-05
0.00497547
8.63623e-06
0.00498045
-2.88357e-05
0.00499194
-5.52411e-05
0.00500787
-7.34803e-05
0.00502689
-8.36946e-05
0.00504805
-9.27516e-05
0.00507042
-9.77231e-05
0.00509285
-9.8e-05
0.00511483
-9.22512e-05
0.00513628
-9.02877e-05
0.00515675
-8.62739e-05
0.00517566
-8.01302e-05
0.00519289
-7.01649e-05
0.0052086
-6.46155e-05
0.00522276
-5.87291e-05
0.00523484
-5.09628e-05
0.00524509
-3.90871e-05
0.00525422
-3.57844e-05
0.00526229
-3.23822e-05
0.00526903
-2.81894e-05
0.00527464
-2.05898e-05
0.00527959
-1.94015e-05
0.00528403
-1.84568e-05
0.0052873
-1.48471e-05
0.00528959
-6.08526e-06
0.00529185
-7.6113e-06
0.0052941
-8.78642e-06
0.00529582
-8.03498e-06
0.00529703
-2.78627e-06
0.00529832
-4.74178e-06
0.00529975
-6.5986e-06
0.00530039
-4.62487e-06
0.00530035
3.27098e-06
0.00530072
-1.52227e-07
0.0053015
-3.1683e-06
0.00530197
-3.32211e-06
0.00530206
1.48718e-06
0.00530248
-1.55394e-06
0.00530328
-4.39228e-06
0.00530333
-2.57885e-06
0.00530271
5.29686e-06
0.00530264
1.26728e-06
0.00530314
-2.41664e-06
0.00530335
-2.63104e-06
0.00530319
2.22353e-06
0.00530342
-1.09109e-06
0.0053041
-4.23252e-06
0.00530404
-2.34232e-06
0.00530326
5.63208e-06
0.00530311
1.33131e-06
0.0053036
-2.62983e-06
0.00530381
-2.79648e-06
0.00530363
1.96372e-06
0.00530384
-1.2989e-06
0.00530447
-4.26006e-06
0.00530437
-2.3949e-06
0.00530362
5.10263e-06
0.00530352
7.06266e-07
0.00530407
-3.25425e-06
0.00530432
-3.32606e-06
0.00530418
1.40534e-06
0.00530442
-1.77081e-06
0.00530502
-4.4028e-06
0.00530488
-2.45489e-06
0.00530415
4.53307e-06
0.0053041
1.42787e-07
0.00530463
-3.43469e-06
0.00530485
-3.38861e-06
0.00530475
8.19428e-07
0.00530506
-2.36821e-06
0.00530565
-4.56183e-06
0.00530553
-2.67981e-06
0.00530493
3.54879e-06
0.00530496
-5.5935e-07
0.00530545
-3.54818e-06
0.0053056
-3.21956e-06
0.0053055
4.85971e-07
0.00530582
-2.6575e-06
0.00530634
-4.39405e-06
0.00530623
-2.72594e-06
0.00530574
2.66793e-06
0.00530583
-1.03696e-06
0.00530627
-3.42488e-06
0.0053064
-3.14171e-06
0.00530633
1.60777e-08
0.00530661
-2.64736e-06
0.00530703
-4.0642e-06
0.00530696
-2.86814e-06
0.00530664
1.32695e-06
0.00530676
-1.69571e-06
0.00530713
-3.42319e-06
0.00530728
-3.36666e-06
0.00530728
-9.30585e-07
0.0053075
-2.84167e-06
0.00530783
-3.84133e-06
0.00530787
-3.33201e-06
0.00530775
-6.28366e-07
0.00530788
-2.3984e-06
0.00530813
-3.35482e-06
0.00530831
-3.56671e-06
0.0053084
-2.37518e-06
0.00530857
-3.12088e-06
0.00530877
-3.44336e-06
0.00530898
-3.77163e-06
0.00530915
-3.53278e-06
0.00530925
-3.28271e-06
0.00530938
-3.15287e-06
0.00530956
-3.24123e-06
0.00530978
-4.11489e-06
0.00530965
-2.01768e-06
0.00530994
-1.4388e-06
-1.27714e-06
0.011646
0.00778954
0.0108227
0.00385545
0.00930348
0.00578754
0.00768706
0.00648351
0.00680293
0.00367145
0.00640768
0.00161854
0.00622005
0.000755379
0.00612406
0.000378441
0.00607399
0.000190459
0.00605009
8.25108e-05
0.00604292
1.60199e-05
0.00604739
-3.31849e-05
0.00606005
-6.78094e-05
0.00607832
-9.17652e-05
0.00610053
-0.000105726
0.00612549
-0.000117637
0.00615206
-0.000124253
0.00617888
-0.000124878
0.0062053
-0.000118444
0.0062312
-0.000116066
0.00625603
-0.000111022
0.0062791
-0.000103243
0.00630023
-9.10978e-05
0.00631958
-8.38969e-05
0.00633707
-7.61945e-05
0.0063521
-6.61048e-05
0.00636491
-5.16296e-05
0.00637633
-4.70828e-05
0.00638643
-4.23964e-05
0.00639491
-3.67455e-05
0.00640198
-2.7461e-05
0.00640822
-2.55966e-05
0.0064138
-2.40381e-05
0.00641796
-1.91746e-05
0.00642094
-8.7969e-06
0.00642383
-1.03953e-05
0.00642665
-1.15586e-05
0.00642884
-1.03394e-05
0.00643042
-4.17878e-06
0.00643205
-6.35876e-06
0.00643383
-8.40838e-06
0.00643468
-5.68028e-06
0.00643472
3.47995e-06
0.00643521
-5.61222e-07
0.00643617
-4.09295e-06
0.00643677
-4.06183e-06
0.00643692
1.49582e-06
0.00643744
-2.08279e-06
0.00643839
-5.39817e-06
0.00643849
-2.90128e-06
0.00643779
6.21818e-06
0.00643772
1.39629e-06
0.0064383
-2.99622e-06
0.00643857
-3.06172e-06
0.00643839
2.54087e-06
0.00643866
-1.39461e-06
0.00643946
-5.10537e-06
0.0064394
-2.52577e-06
0.00643851
6.72061e-06
0.00643833
1.54862e-06
0.00643889
-3.20395e-06
0.00643914
-3.22026e-06
0.00643894
2.27923e-06
0.00643918
-1.59735e-06
0.00643992
-5.08812e-06
0.00643981
-2.54649e-06
0.00643894
6.13819e-06
0.00643881
8.36585e-07
0.00643944
-3.92487e-06
0.00643974
-3.83024e-06
0.00643958
1.64783e-06
0.00643986
-2.12732e-06
0.00644055
-5.21402e-06
0.0064404
-2.57639e-06
0.00643957
5.4967e-06
0.0064395
1.90869e-07
0.0064401
-4.10233e-06
0.00644036
-3.86913e-06
0.00644026
9.77219e-07
0.00644061
-2.82643e-06
0.00644129
-5.37818e-06
0.00644116
-2.8349e-06
0.00644047
4.33379e-06
0.00644049
-6.33205e-07
0.00644106
-4.2028e-06
0.00644124
-3.6255e-06
0.00644113
6.18398e-07
0.0064415
-3.14696e-06
0.0064421
-5.14557e-06
0.00644197
-2.88687e-06
0.00644142
3.28561e-06
0.00644152
-1.19497e-06
0.00644202
-4.02956e-06
0.00644217
-3.52362e-06
0.0064421
8.48528e-08
0.00644242
-3.09743e-06
0.00644291
-4.71704e-06
0.00644283
-3.07109e-06
0.00644246
1.70816e-06
0.00644261
-1.94206e-06
0.00644303
-3.97579e-06
0.0064432
-3.77869e-06
0.00644321
-9.95359e-07
0.00644347
-3.26669e-06
0.00644385
-4.40567e-06
0.0064439
-3.65956e-06
0.00644376
-5.72144e-07
0.00644391
-2.69738e-06
0.0064442
-3.82493e-06
0.00644441
-4.01618e-06
0.00644452
-2.63686e-06
0.00644471
-3.51224e-06
0.00644494
-3.90732e-06
0.0064452
-4.29102e-06
0.0064454
-3.93103e-06
0.00644552
-3.61445e-06
0.00644566
-3.55128e-06
0.00644588
-3.69726e-06
0.00644613
-4.62546e-06
0.00644598
-2.08638e-06
0.00644633
-2.81096e-06
-3.13192e-06
0.0141
0.00824939
0.0132235
0.00473327
0.0114068
0.0076055
0.00944148
0.0084492
0.00833883
0.00477433
0.00783461
0.00212287
0.00759198
0.000998218
0.00746649
0.000504039
0.00739993
0.00025711
0.00736693
0.000115531
0.00735526
2.7871e-05
0.00735837
-3.61875e-05
0.00737187
-8.12208e-05
0.00739255
-0.000112437
0.00741827
-0.000131298
0.00744756
-0.000146864
0.00747902
-0.00015566
0.00751102
-0.00015691
0.00754276
-0.00014999
0.00757404
-0.000147246
0.0076042
-0.000141098
0.00763241
-0.000131476
0.00765841
-0.000116922
0.00768232
-0.000107757
0.00770404
-9.78677e-05
0.00772284
-8.49788e-05
0.00773897
-6.75308e-05
0.00775335
-6.13707e-05
0.00776607
-5.50383e-05
0.00777682
-4.75464e-05
0.00778583
-3.62917e-05
0.00779375
-3.34883e-05
0.00780082
-3.10826e-05
0.00780617
-2.46519e-05
0.00781008
-1.24866e-05
0.0078138
-1.40376e-05
0.00781739
-1.5089e-05
0.00782021
-1.32477e-05
0.00782228
-6.09383e-06
0.00782437
-8.44101e-06
0.00782659
-1.06381e-05
0.00782774
-6.98079e-06
0.00782792
3.49884e-06
0.00782858
-1.16706e-06
0.00782976
-5.23454e-06
0.00783053
-4.94672e-06
0.00783079
1.38293e-06
0.00783144
-2.74847e-06
0.00783257
-6.56196e-06
0.00783273
-3.24124e-06
0.00783197
7.15919e-06
0.00783189
1.49943e-06
0.00783258
-3.66365e-06
0.0078329
-3.52811e-06
0.00783272
2.83682e-06
0.00783305
-1.75459e-06
0.00783397
-6.07615e-06
0.00783392
-2.67416e-06
0.00783292
7.88217e-06
0.0078327
1.77819e-06
0.00783333
-3.84474e-06
0.00783362
-3.66396e-06
0.00783341
2.58916e-06
0.00783369
-1.9378e-06
0.00783453
-5.99722e-06
0.00783442
-2.6502e-06
0.00783343
7.25384e-06
0.00783328
9.77683e-07
0.00783399
-4.66847e-06
0.00783434
-4.36042e-06
0.00783417
1.8819e-06
0.00783449
-2.52726e-06
0.00783528
-6.09815e-06
0.00783511
-2.64056e-06
0.00783416
6.53949e-06
0.00783407
2.44606e-07
0.00783475
-4.83815e-06
0.00783506
-4.36857e-06
0.00783495
1.12234e-06
0.00783536
-3.33793e-06
0.00783613
-6.26686e-06
0.00783599
-2.93704e-06
0.00783521
5.18012e-06
0.00783523
-7.1504e-07
0.00783587
-4.92162e-06
0.00783608
-4.03711e-06
0.00783596
7.42276e-07
0.00783639
-3.68942e-06
0.00783708
-5.95858e-06
0.00783694
-2.99532e-06
0.00783631
3.94728e-06
0.00783641
-1.37144e-06
0.00783698
-4.69185e-06
0.00783717
-3.90799e-06
0.00783709
1.4372e-07
0.00783745
-3.59103e-06
0.00783802
-5.4161e-06
0.00783794
-3.22809e-06
0.00783752
2.11417e-06
0.00783768
-2.21177e-06
0.00783816
-4.57283e-06
0.00783836
-4.19227e-06
0.00783837
-1.07469e-06
0.00783868
-3.72359e-06
0.00783911
-4.99421e-06
0.00783918
-3.95203e-06
0.00783903
-5.19232e-07
0.00783919
-3.01826e-06
0.00783953
-4.30915e-06
0.00783976
-4.4556e-06
0.0078399
-2.92284e-06
0.00784012
-3.92133e-06
0.00784039
-4.33772e-06
0.00784069
-4.7573e-06
0.00784092
-4.40332e-06
0.00784107
-3.98323e-06
0.00784124
-3.8781e-06
0.00784148
-4.05192e-06
0.00784178
-5.18466e-06
0.00784161
-2.04994e-06
0.00784203
-2.27533e-06
-2.18209e-06
0.0169906
0.00858482
0.0161029
0.00562234
0.013998
0.009712
0.0116349
0.0108127
0.0102582
0.00615131
0.00961043
0.00277076
0.00929366
0.00131525
0.00912784
0.000669982
0.0090384
0.000346665
0.00899237
0.000161549
0.00897384
4.66477e-05
0.00897422
-3.64501e-05
0.00898792
-9.48104e-05
0.00901086
-0.00013539
0.00904034
-0.000160586
0.00907449
-0.000180941
0.00911158
-0.000192691
0.00914965
-0.000195057
0.00918772
-0.000187804
0.00922548
-0.000184888
0.00926214
-0.000177651
0.00929668
-0.000166069
0.00932874
-0.000148762
0.0093584
-0.000137359
0.00938548
-0.000124899
0.00940911
-0.000108734
0.00942952
-8.76487e-05
0.00944776
-7.94841e-05
0.0094639
-7.10869e-05
0.00947762
-6.1351e-05
0.00948917
-4.7618e-05
0.00949932
-4.36038e-05
0.00950833
-4.00816e-05
0.00951528
-3.17818e-05
0.00952046
-1.73698e-05
0.00952529
-1.87792e-05
0.00952989
-1.96154e-05
0.00953355
-1.70401e-05
0.0095363
-8.63573e-06
0.009539
-1.11408e-05
0.0095418
-1.3456e-05
0.00954335
-8.75377e-06
0.00954377
3.3592e-06
0.00954467
-1.99909e-06
0.00954614
-6.65167e-06
0.00954713
-6.10552e-06
0.00954753
1.17174e-06
0.00954835
-3.59412e-06
0.00954971
-7.95967e-06
0.00954996
-3.74773e-06
0.00954915
8.2141e-06
0.00954909
1.60197e-06
0.00954988
-4.43242e-06
0.00955029
-4.12076e-06
0.00955012
3.16499e-06
0.0095505
-2.18717e-06
0.00955156
-7.19899e-06
0.00955153
-2.91723e-06
0.00955042
9.22443e-06
0.00955016
2.05797e-06
0.00955087
-4.55537e-06
0.00955121
-4.20863e-06
0.00955099
2.94941e-06
0.00955131
-2.33305e-06
0.00955226
-7.03612e-06
0.00955216
-2.82875e-06
0.00955105
8.55091e-06
0.00955085
1.16191e-06
0.00955164
-5.49274e-06
0.00955205
-5.00075e-06
0.00955188
2.15676e-06
0.00955224
-2.98787e-06
0.00955314
-7.10727e-06
0.00955296
-2.77071e-06
0.00955189
7.75663e-06
0.00955177
3.31779e-07
0.00955253
-5.65377e-06
0.00955288
-4.97198e-06
0.00955277
1.29758e-06
0.00955324
-3.92472e-06
0.00955412
-7.28381e-06
0.00955398
-3.10985e-06
0.00955309
6.17243e-06
0.0095531
-7.84869e-07
0.00955382
-5.72253e-06
0.00955406
-4.54092e-06
0.00955394
8.9528e-07
0.00955443
-4.30922e-06
0.00955521
-6.89133e-06
0.00955507
-3.17335e-06
0.00955437
4.72927e-06
0.00955446
-1.55162e-06
0.00955511
-5.43306e-06
0.00955532
-4.3795e-06
0.00955525
2.22287e-07
0.00955566
-4.15617e-06
0.0095563
-6.22052e-06
0.00955622
-3.45671e-06
0.00955575
2.60207e-06
0.00955592
-2.50398e-06
0.00955647
-5.24775e-06
0.00955671
-4.69699e-06
0.00955673
-1.15633e-06
0.00955708
-4.2506e-06
0.00955757
-5.68288e-06
0.00955765
-4.33704e-06
0.00955749
-4.35591e-07
0.00955767
-3.37481e-06
0.00955805
-4.87616e-06
0.00955833
-5.00113e-06
0.00955849
-3.23949e-06
0.00955875
-4.39677e-06
0.00955906
-4.89678e-06
0.00955941
-5.38991e-06
0.00955968
-4.8844e-06
0.00955984
-4.37732e-06
0.00956004
-4.35239e-06
0.00956032
-4.60002e-06
0.00956067
-5.80136e-06
0.00956047
-2.09834e-06
0.00956098
-3.89898e-06
-4.65822e-06
0.0203915
0.00881091
0.0195395
0.00647551
0.0171871
0.0120661
0.0143842
0.013616
0.0126668
0.0078691
0.0118298
0.00360786
0.0114126
0.00173272
0.0111912
0.000891436
0.0110698
0.000468238
0.0110051
0.000226267
0.0109761
7.58045e-05
0.0109717
-3.18635e-05
0.0109844
-0.000107424
0.0110091
-0.000160128
0.0110424
-0.00019371
0.0110819
-0.000220327
0.0111253
-0.000236079
0.0111705
-0.000240226
0.011216
-0.00023314
0.0112615
-0.000230318
0.0113061
-0.000222078
0.0113484
-0.00020843
0.011388
-0.000188178
0.0114249
-0.000174194
0.0114588
-0.000158705
0.0114886
-0.000138647
0.0115146
-0.000113371
0.0115378
-0.000102625
0.0115584
-9.15942e-05
0.011576
-7.90305e-05
0.011591
-6.23354e-05
0.011604
-5.66629e-05
0.0116156
-5.16241e-05
0.0116247
-4.09931e-05
0.0116316
-2.40242e-05
0.0116379