/*--------------------------------*- C++ -*----------------------------------*\
  =========                 |
  \\      /  F ield         | OpenFOAM: The Open Source CFD Toolbox
   \\    /   O peration     | Website:  https://openfoam.org
    \\  /    A nd           | Version:  8
     \\/     M anipulation  |
\*---------------------------------------------------------------------------*/
FoamFile
{
    version     2.0;
    format      ascii;
    class       volVectorField;
    location    "150";
    object      U;
}
// * * * * * * * * * * * * * * * * * * * * * * * * * * * * * * * * * * * * * //

dimensions      [0 1 -1 0 0 0 0];

internalField   nonuniform List<vector> 
7320
(
(22.6328 -0.848271 0)
(20.2293 -0.0157638 0)
(19.5023 0.000457085 0)
(17.9352 0.00131482 0)
(16.0094 0.00155752 0)
(15.0557 0.000813778 0)
(14.6264 0.000396777 0)
(14.4245 0.000202628 0)
(14.3297 0.000104321 0)
(14.2944 4.65854e-05 0)
(14.295 1.99757e-05 0)
(14.3214 -8.42937e-06 0)
(14.3657 -2.93458e-05 0)
(14.4229 -4.48302e-05 0)
(14.4875 -4.62174e-05 0)
(14.5584 -5.55861e-05 0)
(14.632 -6.20336e-05 0)
(14.7068 -6.53975e-05 0)
(14.7778 -5.12305e-05 0)
(14.8472 -5.32753e-05 0)
(14.9127 -5.38816e-05 0)
(14.974 -5.33585e-05 0)
(15.0283 -3.87876e-05 0)
(15.0782 -3.89765e-05 0)
(15.1224 -3.87815e-05 0)
(15.1623 -3.75777e-05 0)
(15.1937 -1.57621e-05 0)
(15.2223 -1.77991e-05 0)
(15.2472 -1.96331e-05 0)
(15.2696 -2.12968e-05 0)
(15.2865 -6.51713e-06 0)
(15.3022 -1.03147e-05 0)
(15.3154 -1.39914e-05 0)
(15.3281 -1.61261e-05 0)
(15.3343 6.00112e-06 0)
(15.3412 2.85496e-07 0)
(15.3473 -5.02886e-06 0)
(15.3543 -9.4333e-06 0)
(15.3572 4.81351e-06 0)
(15.3611 -1.43743e-06 0)
(15.3646 -7.29324e-06 0)
(15.3695 -1.07963e-05 0)
(15.3682 1.18037e-05 0)
(15.3689 4.63642e-06 0)
(15.3702 -2.08105e-06 0)
(15.3735 -7.22277e-06 0)
(15.3729 6.82525e-06 0)
(15.3739 -2.11917e-07 0)
(15.3753 -6.78471e-06 0)
(15.3787 -1.04032e-05 0)
(15.3755 1.20372e-05 0)
(15.3747 4.49384e-06 0)
(15.375 -2.64584e-06 0)
(15.3778 -7.76188e-06 0)
(15.3763 6.29537e-06 0)
(15.3767 -8.30861e-07 0)
(15.3776 -7.52148e-06 0)
(15.3809 -1.0981e-05 0)
(15.3772 1.13369e-05 0)
(15.376 3.71905e-06 0)
(15.3763 -3.51641e-06 0)
(15.3791 -8.4898e-06 0)
(15.3775 5.11405e-06 0)
(15.3779 -1.85927e-06 0)
(15.3788 -8.31492e-06 0)
(15.3819 -1.16678e-05 0)
(15.3781 9.47847e-06 0)
(15.3772 1.91568e-06 0)
(15.3776 -5.18452e-06 0)
(15.3806 -9.93657e-06 0)
(15.3791 3.34501e-06 0)
(15.3797 -3.39216e-06 0)
(15.3806 -9.42833e-06 0)
(15.3834 -1.25192e-05 0)
(15.3797 7.69021e-06 0)
(15.3789 3.34415e-07 0)
(15.3795 -6.27432e-06 0)
(15.3822 -1.07057e-05 0)
(15.3808 1.67847e-06 0)
(15.3816 -4.83059e-06 0)
(15.3828 -1.03022e-05 0)
(15.3852 -1.31619e-05 0)
(15.382 5.50194e-06 0)
(15.3815 -1.37955e-06 0)
(15.3822 -7.2636e-06 0)
(15.3846 -1.11709e-05 0)
(15.3831 3.29971e-07 0)
(15.384 -5.82754e-06 0)
(15.3852 -1.06317e-05 0)
(15.3872 -1.3285e-05 0)
(15.3844 3.70848e-06 0)
(15.3842 -2.53955e-06 0)
(15.385 -7.62035e-06 0)
(15.387 -1.11722e-05 0)
(15.3858 -1.11306e-06 0)
(15.3866 -6.53729e-06 0)
(15.3875 -1.0692e-05 0)
(15.3892 -1.32373e-05 0)
(15.3871 5.71581e-07 0)
(15.3872 -4.71274e-06 0)
(15.3879 -8.77244e-06 0)
(15.3895 -1.18845e-05 0)
(15.3888 -3.99938e-06 0)
(15.3895 -8.20773e-06 0)
(15.3903 -1.12983e-05 0)
(15.3915 -1.35164e-05 0)
(15.3905 -4.44936e-06 0)
(15.3908 -7.89459e-06 0)
(15.3913 -1.02954e-05 0)
(15.3924 -1.24141e-05 0)
(15.3924 -8.56614e-06 0)
(15.3929 -1.05774e-05 0)
(15.3934 -1.15592e-05 0)
(15.3942 -1.27574e-05 0)
(15.3948 -1.22699e-05 0)
(15.3952 -1.24285e-05 0)
(15.3954 -1.15726e-05 0)
(15.3959 -1.13013e-05 0)
(15.3965 -1.40884e-05 0)
(15.3973 -1.12927e-05 0)
(15.3957 -1.07979e-06 0)
(15.3989 1.39406e-06 0)
(26.5919 0.167216 0)
(23.8684 0.00740723 0)
(22.8082 0.00229665 0)
(19.9526 0.00347077 0)
(17.4194 0.00294558 0)
(16.2804 0.00140336 0)
(15.773 0.000651533 0)
(15.5294 0.00031312 0)
(15.4091 0.000143721 0)
(15.3573 4.53263e-05 0)
(15.3469 -4.05492e-06 0)
(15.3663 -5.12659e-05 0)
(15.4061 -8.52928e-05 0)
(15.4608 -0.000109638 0)
(15.5244 -0.00011396 0)
(15.5951 -0.000127482 0)
(15.6694 -0.000135781 0)
(15.7453 -0.000138292 0)
(15.8175 -0.00011732 0)
(15.8883 -0.000117412 0)
(15.9553 -0.000114853 0)
(16.0181 -0.000109977 0)
(16.0737 -8.68238e-05 0)
(16.1247 -8.3341e-05 0)
(16.17 -7.93495e-05 0)
(16.2108 -7.336e-05 0)
(16.2426 -4.12306e-05 0)
(16.2718 -4.14863e-05 0)
(16.297 -4.14893e-05 0)
(16.3198 -4.09454e-05 0)
(16.3369 -1.95092e-05 0)
(16.3527 -2.31155e-05 0)
(16.3661 -2.67137e-05 0)
(16.379 -2.72453e-05 0)
(16.3849 3.17893e-06 0)
(16.3918 -4.18027e-06 0)
(16.398 -1.08373e-05 0)
(16.4051 -1.54798e-05 0)
(16.4079 3.89186e-06 0)
(16.4118 -4.34367e-06 0)
(16.4154 -1.20363e-05 0)
(16.4205 -1.51318e-05 0)
(16.4188 1.5247e-05 0)
(16.4195 5.1468e-06 0)
(16.4208 -4.12987e-06 0)
(16.4243 -1.01504e-05 0)
(16.4235 8.67915e-06 0)
(16.4245 -1.0585e-06 0)
(16.426 -1.0102e-05 0)
(16.4297 -1.34537e-05 0)
(16.4261 1.66615e-05 0)
(16.4252 5.80015e-06 0)
(16.4255 -4.306e-06 0)
(16.4286 -1.03437e-05 0)
(16.4269 8.48894e-06 0)
(16.4273 -1.50023e-06 0)
(16.4284 -1.0836e-05 0)
(16.4319 -1.39745e-05 0)
(16.4278 1.6026e-05 0)
(16.4266 4.94416e-06 0)
(16.4268 -5.40227e-06 0)
(16.43 -1.12519e-05 0)
(16.4282 6.99564e-06 0)
(16.4286 -2.79436e-06 0)
(16.4296 -1.17732e-05 0)
(16.433 -1.4805e-05 0)
(16.4289 1.35932e-05 0)
(16.4278 2.53985e-06 0)
(16.4283 -7.64201e-06 0)
(16.4316 -1.31886e-05 0)
(16.4299 4.66554e-06 0)
(16.4305 -4.8103e-06 0)
(16.4316 -1.31484e-05 0)
(16.4346 -1.58432e-05 0)
(16.4306 1.12212e-05 0)
(16.4297 4.20543e-07 0)
(16.4303 -9.00699e-06 0)
(16.4333 -1.41306e-05 0)
(16.4318 2.42936e-06 0)
(16.4326 -6.77532e-06 0)
(16.4339 -1.42449e-05 0)
(16.4366 -1.67066e-05 0)
(16.433 8.19574e-06 0)
(16.4325 -1.90696e-06 0)
(16.4333 -1.02139e-05 0)
(16.4359 -1.46066e-05 0)
(16.4342 6.81274e-07 0)
(16.4352 -8.08368e-06 0)
(16.4365 -1.45573e-05 0)
(16.4387 -1.68835e-05 0)
(16.4356 5.68015e-06 0)
(16.4354 -3.4794e-06 0)
(16.4363 -1.05679e-05 0)
(16.4384 -1.45772e-05 0)
(16.4371 -1.23618e-06 0)
(16.4379 -8.91192e-06 0)
(16.439 -1.44764e-05 0)
(16.4408 -1.69017e-05 0)
(16.4385 1.36854e-06 0)
(16.4386 -6.3265e-06 0)
(16.4394 -1.19171e-05 0)
(16.4411 -1.55285e-05 0)
(16.4404 -5.06977e-06 0)
(16.4411 -1.09593e-05 0)
(16.4419 -1.50994e-05 0)
(16.4433 -1.74666e-05 0)
(16.4422 -5.42881e-06 0)
(16.4425 -1.03616e-05 0)
(16.4431 -1.36961e-05 0)
(16.4442 -1.62818e-05 0)
(16.4442 -1.11027e-05 0)
(16.4448 -1.38528e-05 0)
(16.4453 -1.53341e-05 0)
(16.4461 -1.6906e-05 0)
(16.4468 -1.58736e-05 0)
(16.4473 -1.59769e-05 0)
(16.4475 -1.52865e-05 0)
(16.4481 -1.50444e-05 0)
(16.4487 -1.84072e-05 0)
(16.4495 -1.419e-05 0)
(16.4478 -8.05112e-06 0)
(16.4513 -5.08649e-06 0)
(28.9371 0.0986819 0)
(26.0444 0.00648819 0)
(24.6048 0.00512597 0)
(20.8027 0.00736791 0)
(17.9917 0.0053089 0)
(16.7751 0.00242751 0)
(16.2339 0.00111912 0)
(15.9718 0.000541646 0)
(15.8402 0.000253704 0)
(15.7812 8.70299e-05 0)
(15.7659 -3.61532e-06 0)
(15.7821 -8.25629e-05 0)
(15.8199 -0.000139 0)
(15.8734 -0.00017871 0)
(15.9364 -0.000190936 0)
(16.007 -0.000212012 0)
(16.0815 -0.000224309 0)
(16.1579 -0.00022654 0)
(16.2306 -0.000199173 0)
(16.3021 -0.000197216 0)
(16.3698 -0.000190863 0)
(16.4334 -0.000180275 0)
(16.4896 -0.000147452 0)
(16.5414 -0.000139105 0)
(16.5873 -0.000130087 0)
(16.6287 -0.000117303 0)
(16.6609 -7.37566e-05 0)
(16.6904 -7.14963e-05 0)
(16.716 -6.89301e-05 0)
(16.739 -6.49737e-05 0)
(16.7563 -3.62941e-05 0)
(16.7722 -3.92772e-05 0)
(16.7858 -4.25153e-05 0)
(16.7989 -4.00629e-05 0)
(16.8048 -8.82552e-07 0)
(16.8117 -1.00646e-05 0)
(16.818 -1.82343e-05 0)
(16.8252 -2.24639e-05 0)
(16.828 2.20459e-06 0)
(16.8319 -8.16592e-06 0)
(16.8355 -1.79536e-05 0)
(16.8408 -1.9439e-05 0)
(16.8389 1.90603e-05 0)
(16.8396 5.47383e-06 0)
(16.8409 -6.93589e-06 0)
(16.8445 -1.32922e-05 0)
(16.8436 1.0501e-05 0)
(16.8447 -2.32307e-06 0)
(16.8462 -1.4321e-05 0)
(16.85 -1.61557e-05 0)
(16.8463 2.20854e-05 0)
(16.8454 7.20261e-06 0)
(16.8457 -6.62524e-06 0)
(16.8488 -1.302e-05 0)
(16.8471 1.0838e-05 0)
(16.8475 -2.47409e-06 0)
(16.8486 -1.50259e-05 0)
(16.8522 -1.65548e-05 0)
(16.848 2.16649e-05 0)
(16.8467 6.31896e-06 0)
(16.847 -7.99227e-06 0)
(16.8502 -1.41399e-05 0)
(16.8484 9.03183e-06 0)
(16.8489 -4.02584e-06 0)
(16.8499 -1.60437e-05 0)
(16.8533 -1.74833e-05 0)
(16.8491 1.86534e-05 0)
(16.848 3.25759e-06 0)
(16.8485 -1.08767e-05 0)
(16.8519 -1.66256e-05 0)
(16.8502 6.11377e-06 0)
(16.8508 -6.54446e-06 0)
(16.8519 -1.76032e-05 0)
(16.855 -1.86241e-05 0)
(16.8508 1.56773e-05 0)
(16.8499 5.50712e-07 0)
(16.8506 -1.24556e-05 0)
(16.8537 -1.76659e-05 0)
(16.8521 3.26683e-06 0)
(16.8529 -9.11828e-06 0)
(16.8542 -1.88791e-05 0)
(16.857 -1.97223e-05 0)
(16.8533 1.16625e-05 0)
(16.8528 -2.48734e-06 0)
(16.8536 -1.38047e-05 0)
(16.8563 -1.80158e-05 0)
(16.8546 1.14874e-06 0)
(16.8555 -1.07411e-05 0)
(16.8569 -1.90535e-05 0)
(16.8592 -1.99521e-05 0)
(16.856 8.26861e-06 0)
(16.8558 -4.54142e-06 0)
(16.8567 -1.40562e-05 0)
(16.8589 -1.7921e-05 0)
(16.8575 -1.26355e-06 0)
(16.8584 -1.15978e-05 0)
(16.8595 -1.86774e-05 0)
(16.8613 -2.01057e-05 0)
(16.8589 2.5964e-06 0)
(16.859 -8.08449e-06 0)
(16.8599 -1.54521e-05 0)
(16.8616 -1.91188e-05 0)
(16.8608 -6.09236e-06 0)
(16.8616 -1.39063e-05 0)
(16.8624 -1.91236e-05 0)
(16.8638 -2.11127e-05 0)
(16.8627 -6.20825e-06 0)
(16.863 -1.29092e-05 0)
(16.8636 -1.72316e-05 0)
(16.8647 -2.00908e-05 0)
(16.8648 -1.36561e-05 0)
(16.8654 -1.71805e-05 0)
(16.8659 -1.89867e-05 0)
(16.8668 -2.09125e-05 0)
(16.8674 -1.9669e-05 0)
(16.8679 -1.95707e-05 0)
(16.8681 -1.86625e-05 0)
(16.8687 -1.85159e-05 0)
(16.8694 -2.28123e-05 0)
(16.8702 -1.66171e-05 0)
(16.8684 -8.34887e-06 0)
(16.8721 -5.08122e-06 0)
(30.6317 0.0462442 0)
(27.7236 0.00875495 0)
(25.8723 0.00974081 0)
(21.3851 0.0129994 0)
(18.4014 0.00855759 0)
(17.1299 0.00383094 0)
(16.5628 0.00176279 0)
(16.2864 0.000858764 0)
(16.1461 0.000408699 0)
(16.0814 0.0001487 0)
(16.0624 1.40102e-07 0)
(16.0762 -0.000121895 0)
(16.1124 -0.000208668 0)
(16.1651 -0.000269133 0)
(16.2275 -0.000293371 0)
(16.2981 -0.000324501 0)
(16.3728 -0.000342046 0)
(16.4495 -0.000343777 0)
(16.5228 -0.000309816 0)
(16.5949 -0.000304839 0)
(16.6634 -0.000293091 0)
(16.7278 -0.000274489 0)
(16.7849 -0.000230129 0)
(16.8374 -0.000214738 0)
(16.8841 -0.000198427 0)
(16.9262 -0.000175963 0)
(16.9591 -0.000119368 0)
(16.9892 -0.000113035 0)
(17.0152 -0.000106326 0)
(17.0387 -9.70873e-05 0)
(17.0563 -6.02374e-05 0)
(17.0726 -6.1618e-05 0)
(17.0863 -6.36259e-05 0)
(17.0997 -5.64547e-05 0)
(17.1058 -8.13139e-06 0)
(17.1128 -1.89601e-05 0)
(17.1192 -2.83853e-05 0)
(17.1265 -3.12961e-05 0)
(17.1294 -1.24106e-06 0)
(17.1334 -1.3661e-05 0)
(17.1371 -2.54757e-05 0)
(17.1424 -2.40596e-05 0)
(17.1406 2.25534e-05 0)
(17.1413 5.11089e-06 0)
(17.1426 -1.07117e-05 0)
(17.1463 -1.6748e-05 0)
(17.1454 1.19613e-05 0)
(17.1465 -4.18387e-06 0)
(17.148 -1.93595e-05 0)
(17.1518 -1.84256e-05 0)
(17.1481 2.79579e-05 0)
(17.1472 8.49561e-06 0)
(17.1475 -9.54361e-06 0)
(17.1507 -1.56636e-05 0)
(17.1489 1.31933e-05 0)
(17.1494 -3.77223e-06 0)
(17.1505 -1.98694e-05 0)
(17.1542 -1.85257e-05 0)
(17.1499 2.79905e-05 0)
(17.1486 7.72293e-06 0)
(17.1489 -1.1143e-05 0)
(17.1521 -1.69566e-05 0)
(17.1503 1.11403e-05 0)
(17.1508 -5.51563e-06 0)
(17.1518 -2.08596e-05 0)
(17.1553 -1.94685e-05 0)
(17.151 2.44573e-05 0)
(17.1499 4.01244e-06 0)
(17.1504 -1.46837e-05 0)
(17.1538 -1.99958e-05 0)
(17.1521 7.66613e-06 0)
(17.1527 -8.50434e-06 0)
(17.1538 -2.24962e-05 0)
(17.1569 -2.06079e-05 0)
(17.1527 2.09099e-05 0)
(17.1518 7.20736e-07 0)
(17.1525 -1.63882e-05 0)
(17.1556 -2.1044e-05 0)
(17.154 4.21565e-06 0)
(17.1548 -1.17206e-05 0)
(17.1562 -2.38877e-05 0)
(17.159 -2.1938e-05 0)
(17.1553 1.58248e-05 0)
(17.1547 -3.06483e-06 0)
(17.1555 -1.77802e-05 0)
(17.1583 -2.11279e-05 0)
(17.1565 1.79338e-06 0)
(17.1575 -1.36287e-05 0)
(17.1588 -2.38057e-05 0)
(17.1611 -2.2222e-05 0)
(17.1579 1.14567e-05 0)
(17.1577 -5.62637e-06 0)
(17.1586 -1.78257e-05 0)
(17.1609 -2.09359e-05 0)
(17.1595 -1.09334e-06 0)
(17.1603 -1.44055e-05 0)
(17.1614 -2.29907e-05 0)
(17.1633 -2.25799e-05 0)
(17.1609 4.3306e-06 0)
(17.161 -9.8228e-06 0)
(17.1618 -1.91044e-05 0)
(17.1636 -2.23757e-05 0)
(17.1628 -6.88732e-06 0)
(17.1636 -1.68162e-05 0)
(17.1644 -2.30913e-05 0)
(17.1658 -2.41948e-05 0)
(17.1647 -6.55692e-06 0)
(17.165 -1.52698e-05 0)
(17.1656 -2.06541e-05 0)
(17.1668 -2.35939e-05 0)
(17.1668 -1.59168e-05 0)
(17.1674 -2.02523e-05 0)
(17.1679 -2.24301e-05 0)
(17.1688 -2.47042e-05 0)
(17.1695 -2.30774e-05 0)
(17.1699 -2.26847e-05 0)
(17.1702 -2.1743e-05 0)
(17.1708 -2.18178e-05 0)
(17.1714 -2.68753e-05 0)
(17.1723 -1.83289e-05 0)
(17.1705 -1.08392e-05 0)
(17.1742 -8.09028e-06 0)
(31.9207 0.0473875 0)
(29.1364 0.013625 0)
(26.8918 0.0162442 0)
(21.9118 0.0204706 0)
(18.791 0.0127041 0)
(17.4655 0.00561884 0)
(16.8712 0.00258649 0)
(16.5796 0.00126737 0)
(16.4301 0.000611074 0)
(16.3596 0.000232507 0)
(16.3368 9.58412e-06 0)
(16.3479 -0.000166825 0)
(16.3825 -0.000291797 0)
(16.4341 -0.000378424 0)
(16.496 -0.000418642 0)
(16.5664 -0.00046242 0)
(16.6412 -0.000486592 0)
(16.7183 -0.000487888 0)
(16.7921 -0.000447159 0)
(16.865 -0.000438478 0)
(16.9343 -0.000420021 0)
(16.9998 -0.000391472 0)
(17.0579 -0.000333782 0)
(17.1114 -0.000309435 0)
(17.1591 -0.000283767 0)
(17.2022 -0.000249039 0)
(17.236 -0.000177611 0)
(17.2668 -0.000165767 0)
(17.2936 -0.000153427 0)
(17.3177 -0.000137222 0)
(17.3358 -9.11124e-05 0)
(17.3526 -9.00083e-05 0)
(17.3667 -8.99623e-05 0)
(17.3805 -7.65566e-05 0)
(17.3868 -1.84339e-05 0)
(17.3941 -3.07738e-05 0)
(17.4007 -4.12143e-05 0)
(17.4082 -4.20647e-05 0)
(17.4112 -6.33528e-06 0)
(17.4154 -2.07866e-05 0)
(17.4192 -3.45765e-05 0)
(17.4246 -2.91976e-05 0)
(17.4229 2.58033e-05 0)
(17.4236 4.11521e-06 0)
(17.425 -1.53903e-05 0)
(17.4287 -2.06223e-05 0)
(17.4279 1.31427e-05 0)
(17.429 -6.61064e-06 0)
(17.4306 -2.51892e-05 0)
(17.4344 -2.0481e-05 0)
(17.4307 3.43226e-05 0)
(17.4298 9.7157e-06 0)
(17.4301 -1.29997e-05 0)
(17.4333 -1.83919e-05 0)
(17.4316 1.56131e-05 0)
(17.432 -5.38084e-06 0)
(17.4331 -2.53454e-05 0)
(17.4368 -2.01177e-05 0)
(17.4326 3.50182e-05 0)
(17.4313 9.17651e-06 0)
(17.4315 -1.47992e-05 0)
(17.4348 -1.98271e-05 0)
(17.4329 1.33604e-05 0)
(17.4334 -7.26732e-06 0)
(17.4344 -2.62243e-05 0)
(17.4379 -2.10109e-05 0)
(17.4337 3.09903e-05 0)
(17.4325 4.80205e-06 0)
(17.433 -1.9029e-05 0)
(17.4365 -2.34441e-05 0)
(17.4348 9.33194e-06 0)
(17.4354 -1.0719e-05 0)
(17.4365 -2.78632e-05 0)
(17.4396 -2.20725e-05 0)
(17.4354 2.68751e-05 0)
(17.4345 9.0686e-07 0)
(17.4351 -2.08009e-05 0)
(17.4383 -2.44343e-05 0)
(17.4367 5.2609e-06 0)
(17.4375 -1.46258e-05 0)
(17.4388 -2.93315e-05 0)
(17.4416 -2.36425e-05 0)
(17.4379 2.06196e-05 0)
(17.4374 -3.68213e-06 0)
(17.4382 -2.21682e-05 0)
(17.4409 -2.41404e-05 0)
(17.4392 2.5716e-06 0)
(17.4402 -1.68067e-05 0)
(17.4415 -2.88993e-05 0)
(17.4438 -2.39828e-05 0)
(17.4406 1.51704e-05 0)
(17.4404 -6.79004e-06 0)
(17.4413 -2.19287e-05 0)
(17.4435 -2.3824e-05 0)
(17.4421 -7.91699e-07 0)
(17.443 -1.74206e-05 0)
(17.4441 -2.75267e-05 0)
(17.446 -2.46016e-05 0)
(17.4435 6.47067e-06 0)
(17.4437 -1.16314e-05 0)
(17.4445 -2.29677e-05 0)
(17.4463 -2.55074e-05 0)
(17.4455 -7.56301e-06 0)
(17.4462 -1.98188e-05 0)
(17.4471 -2.71423e-05 0)
(17.4485 -2.69584e-05 0)
(17.4473 -6.63312e-06 0)
(17.4476 -1.76027e-05 0)
(17.4482 -2.41018e-05 0)
(17.4494 -2.69834e-05 0)
(17.4494 -1.80659e-05 0)
(17.4501 -2.3261e-05 0)
(17.4506 -2.57848e-05 0)
(17.4514 -2.84067e-05 0)
(17.4521 -2.63922e-05 0)
(17.4526 -2.56126e-05 0)
(17.4528 -2.46296e-05 0)
(17.4534 -2.50027e-05 0)
(17.4541 -3.08527e-05 0)
(17.455 -1.95528e-05 0)
(17.4532 -1.26249e-05 0)
(17.4569 -1.07992e-05 0)
(32.9131 0.0609021 0)
(30.3758 0.0196913 0)
(27.7937 0.0248892 0)
(22.4588 0.0299835 0)
(19.2106 0.0178592 0)
(17.8239 0.00784888 0)
(17.1974 0.00362044 0)
(16.8877 0.00178424 0)
(16.7274 0.00087069 0)
(16.65 0.000344406 0)
(16.6226 2.84914e-05 0)
(16.6306 -0.000215212 0)
(16.6631 -0.000387394 0)
(16.7133 -0.00050646 0)
(16.7745 -0.000567079 0)
(16.8445 -0.000626621 0)
(16.9193 -0.000659205 0)
(16.9967 -0.000660484 0)
(17.0712 -0.000612771 0)
(17.1449 -0.000599939 0)
(17.2152 -0.000573622 0)
(17.2818 -0.000533335 0)
(17.3411 -0.000460321 0)
(17.396 -0.00042514 0)
(17.445 -0.000388014 0)
(17.4893 -0.000338405 0)
(17.5242 -0.000249868 0)
(17.5562 -0.000231009 0)
(17.5838 -0.000211464 0)
(17.6088 -0.000186569 0)
(17.6277 -0.000129733 0)
(17.6451 -0.000125243 0)
(17.6598 -0.00012228 0)
(17.674 -0.000101146 0)
(17.6809 -3.20935e-05 0)
(17.6885 -4.58394e-05 0)
(17.6954 -5.70723e-05 0)
(17.7031 -5.51992e-05 0)
(17.7064 -1.32078e-05 0)
(17.7108 -2.97497e-05 0)
(17.7147 -4.55095e-05 0)
(17.7202 -3.52094e-05 0)
(17.7187 2.8885e-05 0)
(17.7195 2.47522e-06 0)
(17.721 -2.10514e-05 0)
(17.7247 -2.51209e-05 0)
(17.724 1.41028e-05 0)
(17.7252 -9.65274e-06 0)
(17.7267 -3.19329e-05 0)
(17.7306 -2.25725e-05 0)
(17.727 4.13367e-05 0)
(17.7261 1.09215e-05 0)
(17.7264 -1.70166e-05 0)
(17.7296 -2.13667e-05 0)
(17.7279 1.81872e-05 0)
(17.7283 -7.32164e-06 0)
(17.7294 -3.15548e-05 0)
(17.7331 -2.15643e-05 0)
(17.7289 4.29121e-05 0)
(17.7277 1.07451e-05 0)
(17.7279 -1.89795e-05 0)
(17.7311 -2.2911e-05 0)
(17.7293 1.57726e-05 0)
(17.7298 -9.30993e-06 0)
(17.7308 -3.22446e-05 0)
(17.7342 -2.2348e-05 0)
(17.7301 3.83913e-05 0)
(17.7289 5.66761e-06 0)
(17.7294 -2.39543e-05 0)
(17.7328 -2.71501e-05 0)
(17.7311 1.11643e-05 0)
(17.7317 -1.32399e-05 0)
(17.7328 -3.38301e-05 0)
(17.7359 -2.32685e-05 0)
(17.7318 3.36858e-05 0)
(17.7309 1.12815e-06 0)
(17.7315 -2.57547e-05 0)
(17.7346 -2.80294e-05 0)
(17.733 6.43112e-06 0)
(17.7339 -1.79055e-05 0)
(17.7352 -3.53539e-05 0)
(17.7379 -2.50958e-05 0)
(17.7343 2.61279e-05 0)
(17.7337 -4.3469e-06 0)
(17.7345 -2.70515e-05 0)
(17.7372 -2.72566e-05 0)
(17.7355 3.4908e-06 0)
(17.7365 -2.03608e-05 0)
(17.7378 -3.44878e-05 0)
(17.7401 -2.54947e-05 0)
(17.737 1.94656e-05 0)
(17.7367 -8.05887e-06 0)
(17.7376 -2.64601e-05 0)
(17.7398 -2.6788e-05 0)
(17.7384 -3.74187e-07 0)
(17.7393 -2.07425e-05 0)
(17.7404 -3.2445e-05 0)
(17.7422 -2.64239e-05 0)
(17.7398 9.02562e-06 0)
(17.74 -1.3574e-05 0)
(17.7408 -2.71646e-05 0)
(17.7425 -2.87252e-05 0)
(17.7418 -8.1813e-06 0)
(17.7425 -2.30442e-05 0)
(17.7434 -3.1457e-05 0)
(17.7447 -2.9654e-05 0)
(17.7436 -6.50335e-06 0)
(17.7439 -2.00264e-05 0)
(17.7445 -2.7741e-05 0)
(17.7457 -3.04802e-05 0)
(17.7457 -2.02366e-05 0)
(17.7463 -2.63772e-05 0)
(17.7468 -2.92745e-05 0)
(17.7477 -3.22711e-05 0)
(17.7484 -2.97801e-05 0)
(17.7488 -2.85315e-05 0)
(17.749 -2.75731e-05 0)
(17.7497 -2.83148e-05 0)
(17.7503 -3.4971e-05 0)
(17.7512 -2.04906e-05 0)
(17.7494 -1.52767e-05 0)
(17.7531 -1.48918e-05 0)
(33.6574 0.0701688 0)
(31.4772 0.0266283 0)
(28.646 0.0359962 0)
(23.0631 0.0418658 0)
(19.6862 0.0242508 0)
(18.2266 0.0106391 0)
(17.5606 0.00492488 0)
(17.2288 0.0024419 0)
(17.0553 0.00120591 0)
(16.9693 0.000494759 0)
(16.9362 6.23446e-05 0)
(16.9403 -0.000264962 0)
(16.9701 -0.000495762 0)
(17.0186 -0.000655258 0)
(17.0786 -0.000741856 0)
(17.148 -0.000821213 0)
(17.2227 -0.000864662 0)
(17.3003 -0.000866761 0)
(17.3754 -0.000811956 0)
(17.45 -0.000794687 0)
(17.5214 -0.000759409 0)
(17.5893 -0.000705499 0)
(17.6502 -0.000614845 0)
(17.7066 -0.000566711 0)
(17.7572 -0.000515722 0)
(17.803 -0.00044821 0)
(17.8395 -0.000339669 0)
(17.8728 -0.000311945 0)
(17.9017 -0.000283296 0)
(17.9277 -0.000247656 0)
(17.9476 -0.00017816 0)
(17.9659 -0.000169157 0)
(17.9813 -0.000162225 0)
(17.9961 -0.000131627 0)
(18.0036 -5.00666e-05 0)
(18.0117 -6.50273e-05 0)
(18.019 -7.67839e-05 0)
(18.027 -7.1448e-05 0)
(18.0307 -2.23482e-05 0)
(18.0353 -4.10372e-05 0)
(18.0394 -5.87781e-05 0)
(18.045 -4.252e-05 0)
(18.0438 3.17039e-05 0)
(18.0448 4.64429e-08 0)
(18.0463 -2.79212e-05 0)
(18.0501 -3.04903e-05 0)
(18.0495 1.47858e-05 0)
(18.0507 -1.34394e-05 0)
(18.0524 -3.98059e-05 0)
(18.0561 -2.48811e-05 0)
(18.0527 4.91208e-05 0)
(18.0519 1.21455e-05 0)
(18.0522 -2.16848e-05 0)
(18.0553 -2.47226e-05 0)
(18.0537 2.09567e-05 0)
(18.0542 -9.64499e-06 0)
(18.0553 -3.8653e-05 0)
(18.0588 -2.29959e-05 0)
(18.0548 5.18372e-05 0)
(18.0536 1.24938e-05 0)
(18.0538 -2.37563e-05 0)
(18.0569 -2.63304e-05 0)
(18.0552 1.84229e-05 0)
(18.0557 -1.16891e-05 0)
(18.0566 -3.90679e-05 0)
(18.06 -2.36042e-05 0)
(18.056 4.68129e-05 0)
(18.0548 6.65492e-06 0)
(18.0553 -2.95538e-05 0)
(18.0586 -3.12558e-05 0)
(18.057 1.31871e-05 0)
(18.0576 -1.61304e-05 0)
(18.0586 -4.0552e-05 0)
(18.0617 -2.43232e-05 0)
(18.0577 4.14751e-05 0)
(18.0568 1.40988e-06 0)
(18.0573 -3.13541e-05 0)
(18.0603 -3.19754e-05 0)
(18.0588 7.72966e-06 0)
(18.0597 -2.16455e-05 0)
(18.061 -4.21218e-05 0)
(18.0637 -2.6436e-05 0)
(18.0601 3.24463e-05 0)
(18.0596 -5.06417e-06 0)
(18.0603 -3.25464e-05 0)
(18.0629 -3.06208e-05 0)
(18.0613 4.54265e-06 0)
(18.0623 -2.43872e-05 0)
(18.0635 -4.07364e-05 0)
(18.0658 -2.68966e-05 0)
(18.0628 2.44081e-05 0)
(18.0625 -9.46009e-06 0)
(18.0633 -3.15396e-05 0)
(18.0655 -2.99698e-05 0)
(18.0642 1.34004e-07 0)
(18.065 -2.4471e-05 0)
(18.0661 -3.79028e-05 0)
(18.0679 -2.81865e-05 0)
(18.0656 1.20138e-05 0)
(18.0657 -1.57095e-05 0)
(18.0665 -3.18235e-05 0)
(18.0682 -3.21771e-05 0)
(18.0675 -8.8038e-06 0)
(18.0682 -2.66067e-05 0)
(18.0691 -3.61889e-05 0)
(18.0704 -3.24273e-05 0)
(18.0693 -6.22614e-06 0)
(18.0696 -2.26399e-05 0)
(18.0702 -3.17056e-05 0)
(18.0713 -3.42278e-05 0)
(18.0714 -2.25523e-05 0)
(18.072 -2.97343e-05 0)
(18.0725 -3.30352e-05 0)
(18.0733 -3.6416e-05 0)
(18.074 -3.34394e-05 0)
(18.0745 -3.15969e-05 0)
(18.0747 -3.06962e-05 0)
(18.0753 -3.18118e-05 0)
(18.0759 -3.94591e-05 0)
(18.0768 -2.1133e-05 0)
(18.075 -1.83377e-05 0)
(18.0788 -1.80713e-05 0)
(34.1816 0.0764088 0)
(32.4451 0.0344966 0)
(29.4839 0.0498687 0)
(23.7463 0.0565305 0)
(20.2351 0.0321934 0)
(18.6883 0.0141569 0)
(17.9739 0.00658636 0)
(17.6147 0.00328743 0)
(17.4247 0.00164358 0)
(17.3282 0.000699002 0)
(17.288 0.000119541 0)
(17.2872 -0.000312441 0)
(17.3135 -0.000616596 0)
(17.3596 -0.000826925 0)
(17.4181 -0.000946792 0)
(17.4866 -0.00105132 0)
(17.5609 -0.001109 0)
(17.6387 -0.00111338 0)
(17.7143 -0.00105171 0)
(17.7898 -0.00102999 0)
(17.8625 -0.000984706 0)
(17.9319 -0.000915214 0)
(17.9945 -0.000804326 0)
(18.0528 -0.000740813 0)
(18.1053 -0.000673111 0)
(18.1529 -0.000584143 0)
(18.1913 -0.000452057 0)
(18.2262 -0.000413118 0)
(18.2566 -0.000372941 0)
(18.2839 -0.000324018 0)
(18.3051 -0.000239404 0)
(18.3244 -0.000224394 0)
(18.3408 -0.00021208 0)
(18.3563 -0.000169934 0)
(18.3646 -7.38767e-05 0)
(18.3734 -8.9684e-05 0)
(18.3812 -0.000101523 0)
(18.3896 -9.18378e-05 0)
(18.3937 -3.45609e-05 0)
(18.3986 -5.53864e-05 0)
(18.403 -7.50335e-05 0)
(18.4088 -5.16559e-05 0)
(18.4079 3.39623e-05 0)
(18.409 -3.47522e-06 0)
(18.4107 -3.63038e-05 0)
(18.4145 -3.70224e-05 0)
(18.4141 1.50197e-05 0)
(18.4154 -1.81782e-05 0)
(18.4171 -4.90251e-05 0)
(18.4208 -2.75632e-05 0)
(18.4176 5.77037e-05 0)
(18.4168 1.33586e-05 0)
(18.4172 -2.70906e-05 0)
(18.4202 -2.857e-05 0)
(18.4187 2.39078e-05 0)
(18.4192 -1.24263e-05 0)
(18.4202 -4.67531e-05 0)
(18.4237 -2.44811e-05 0)
(18.4199 6.19021e-05 0)
(18.4186 1.44571e-05 0)
(18.4189 -2.91732e-05 0)
(18.4219 -3.0163e-05 0)
(18.4203 2.13235e-05 0)
(18.4207 -1.44558e-05 0)
(18.4217 -4.67821e-05 0)
(18.4249 -2.48257e-05 0)
(18.4211 5.63716e-05 0)
(18.4199 7.79752e-06 0)
(18.4203 -3.58778e-05 0)
(18.4235 -3.58456e-05 0)
(18.4221 1.54063e-05 0)
(18.4226 -1.94444e-05 0)
(18.4237 -4.81116e-05 0)
(18.4266 -2.52737e-05 0)
(18.4228 5.03571e-05 0)
(18.4218 1.77931e-06 0)
(18.4224 -3.76487e-05 0)
(18.4253 -3.63508e-05 0)
(18.4239 9.15594e-06 0)
(18.4247 -2.59115e-05 0)
(18.4259 -4.97227e-05 0)
(18.4285 -2.77049e-05 0)
(18.4252 3.96668e-05 0)
(18.4246 -5.82578e-06 0)
(18.4253 -3.87066e-05 0)
(18.4278 -3.43012e-05 0)
(18.4263 5.729e-06 0)
(18.4272 -2.89515e-05 0)
(18.4284 -4.77267e-05 0)
(18.4306 -2.82288e-05 0)
(18.4277 3.007e-05 0)
(18.4275 -1.10005e-05 0)
(18.4283 -3.7221e-05 0)
(18.4304 -3.34334e-05 0)
(18.4291 7.29748e-07 0)
(18.4299 -2.86662e-05 0)
(18.431 -4.39701e-05 0)
(18.4327 -2.99304e-05 0)
(18.4305 1.54799e-05 0)
(18.4306 -1.80601e-05 0)
(18.4314 -3.69975e-05 0)
(18.433 -3.59276e-05 0)
(18.4324 -9.44671e-06 0)
(18.433 -3.05634e-05 0)
(18.4339 -4.13987e-05 0)
(18.4352 -3.53313e-05 0)
(18.4342 -5.79405e-06 0)
(18.4344 -2.54786e-05 0)
(18.435 -3.60427e-05 0)
(18.4361 -3.8293e-05 0)
(18.4362 -2.50439e-05 0)
(18.4368 -3.33872e-05 0)
(18.4373 -3.71147e-05 0)
(18.4381 -4.09285e-05 0)
(18.4387 -3.74033e-05 0)
(18.4392 -3.48624e-05 0)
(18.4394 -3.40369e-05 0)
(18.44 -3.55874e-05 0)
(18.4406 -4.43387e-05 0)
(18.4415 -2.15809e-05 0)
(18.4398 -2.16581e-05 0)
(18.4435 -2.21111e-05 0)
(34.5211 0.0812386 0)
(33.2649 0.043128 0)
(30.3216 0.0667225 0)
(24.5222 0.0744475 0)
(20.8719 0.0420877 0)
(19.2214 0.0186273 0)
(18.4478 0.0087237 0)
(18.0548 0.0043864 0)
(17.8445 0.00222169 0)
(17.7348 0.000979566 0)
(17.6858 0.000212993 0)
(17.6787 -0.000351151 0)
(17.7007 -0.000747893 0)
(17.7436 -0.00102271 0)
(17.8001 -0.00118545 0)
(17.8673 -0.00132229 0)
(17.9409 -0.00139887 0)
(18.0186 -0.00140793 0)
(18.0948 -0.00134017 0)
(18.1712 -0.00131441 0)
(18.2452 -0.00125833 0)
(18.3162 -0.00117135 0)
(18.3808 -0.0010374 0)
(18.4412 -0.000955799 0)
(18.4958 -0.000868087 0)
(18.5456 -0.000753524 0)
(18.5862 -0.000593554 0)
(18.6231 -0.000540417 0)
(18.6554 -0.000485663 0)
(18.6843 -0.000420313 0)
(18.7071 -0.000317441 0)
(18.7276 -0.000294442 0)
(18.7452 -0.00027489 0)
(18.7616 -0.000218677 0)
(18.7709 -0.00010558 0)
(18.7804 -0.000121591 0)
(18.7888 -0.000132862 0)
(18.7977 -0.000117757 0)
(18.8023 -5.09355e-05 0)
(18.8076 -7.37731e-05 0)
(18.8124 -9.51593e-05 0)
(18.8183 -6.3363e-05 0)
(18.8178 3.52243e-05 0)
(18.8192 -8.48571e-06 0)
(18.821 -4.66053e-05 0)
(18.8249 -4.51193e-05 0)
(18.8247 1.45605e-05 0)
(18.8261 -2.41304e-05 0)
(18.8278 -5.98805e-05 0)
(18.8316 -3.08632e-05 0)
(18.8286 6.70856e-05 0)
(18.8279 1.45358e-05 0)
(18.8283 -3.3339e-05 0)
(18.8312 -3.30614e-05 0)
(18.8298 2.70099e-05 0)
(18.8303 -1.57466e-05 0)
(18.8314 -5.59993e-05 0)
(18.8347 -2.61427e-05 0)
(18.8311 7.32122e-05 0)
(18.8299 1.66971e-05 0)
(18.8301 -3.52716e-05 0)
(18.833 -3.45131e-05 0)
(18.8315 2.44807e-05 0)
(18.832 -1.76575e-05 0)
(18.8329 -5.54978e-05 0)
(18.836 -2.61062e-05 0)
(18.8323 6.71841e-05 0)
(18.8312 9.15722e-06 0)
(18.8316 -4.29748e-05 0)
(18.8347 -4.10316e-05 0)
(18.8333 1.78192e-05 0)
(18.8338 -2.32345e-05 0)
(18.8348 -5.66164e-05 0)
(18.8376 -2.62055e-05 0)
(18.834 6.04453e-05 0)
(18.8331 2.29017e-06 0)
(18.8335 -4.46894e-05 0)
(18.8363 -4.12638e-05 0)
(18.835 1.06998e-05 0)
(18.8358 -3.07697e-05 0)
(18.837 -5.82734e-05 0)
(18.8395 -2.89957e-05 0)
(18.8363 4.78775e-05 0)
(18.8358 -6.60255e-06 0)
(18.8364 -4.5593e-05 0)
(18.8388 -3.83999e-05 0)
(18.8374 7.0407e-06 0)
(18.8383 -3.41215e-05 0)
(18.8395 -5.55718e-05 0)
(18.8416 -2.95833e-05 0)
(18.8388 3.65187e-05 0)
(18.8386 -1.26705e-05 0)
(18.8393 -4.35703e-05 0)
(18.8413 -3.72775e-05 0)
(18.8402 1.39702e-06 0)
(18.8409 -3.33942e-05 0)
(18.8419 -5.07503e-05 0)
(18.8437 -3.1746e-05 0)
(18.8416 1.946e-05 0)
(18.8416 -2.0641e-05 0)
(18.8423 -4.27599e-05 0)
(18.8439 -4.00777e-05 0)
(18.8433 -1.01456e-05 0)
(18.844 -3.49865e-05 0)
(18.8448 -4.7188e-05 0)
(18.8461 -3.84655e-05 0)
(18.8451 -5.22016e-06 0)
(18.8454 -2.85853e-05 0)
(18.8459 -4.0836e-05 0)
(18.847 -4.27792e-05 0)
(18.847 -2.77777e-05 0)
(18.8476 -3.74145e-05 0)
(18.8481 -4.16307e-05 0)
(18.8489 -4.59325e-05 0)
(18.8495 -4.17518e-05 0)
(18.85 -3.83911e-05 0)
(18.8502 -3.77226e-05 0)
(18.8508 -3.97499e-05 0)
(18.8514 -4.97343e-05 0)
(18.8523 -2.1839e-05 0)
(18.8506 -2.63751e-05 0)
(18.8543 -2.76302e-05 0)
(34.7267 0.0848622 0)
(33.9136 0.0521417 0)
(31.1571 0.0865989 0)
(25.3989 0.096114 0)
(21.609 0.054435 0)
(19.8376 0.0243502 0)
(18.9922 0.0115002 0)
(18.5577 0.00583033 0)
(18.3222 0.00299401 0)
(18.1963 0.00136893 0)
(18.1362 0.000362079 0)
(18.1214 -0.000370398 0)
(18.1378 -0.000885021 0)
(18.1767 -0.00124236 0)
(18.2305 -0.00146081 0)
(18.2959 -0.00163951 0)
(18.3684 -0.00174146 0)
(18.4457 -0.00175893 0)
(18.5223 -0.00168681 0)
(18.5995 -0.00165816 0)
(18.6748 -0.00159092 0)
(18.7476 -0.00148476 0)
(18.8144 -0.00132487 0)
(18.8771 -0.0012222 0)
(18.9343 -0.00111068 0)
(18.9865 -0.000965727 0)
(19.0298 -0.000772738 0)
(19.069 -0.000701598 0)
(19.1034 -0.000628372 0)
(19.1343 -0.000542661 0)
(19.1588 -0.000417617 0)
(19.181 -0.000383956 0)
(19.1998 -0.000354664 0)
(19.2174 -0.000281294 0)
(19.2279 -0.000148071 0)
(19.2383 -0.000163216 0)
(19.2474 -0.000172909 0)
(19.2569 -0.000151038 0)
(19.2622 -7.30214e-05 0)
(19.268 -9.75303e-05 0)
(19.2731 -0.000120283 0)
(19.2793 -7.85899e-05 0)
(19.2794 3.47496e-05 0)
(19.281 -1.55964e-05 0)
(19.283 -5.9355e-05 0)
(19.2869 -5.52761e-05 0)
(19.287 1.30024e-05 0)
(19.2885 -3.16554e-05 0)
(19.2903 -7.26822e-05 0)
(19.294 -3.50398e-05 0)
(19.2914 7.71237e-05 0)
(19.2908 1.55787e-05 0)
(19.2911 -4.05348e-05 0)
(19.294 -3.83404e-05 0)
(19.2928 3.01566e-05 0)
(19.2933 -1.97101e-05 0)
(19.2943 -6.6491e-05 0)
(19.2975 -2.80657e-05 0)
(19.2942 8.57749e-05 0)
(19.293 1.92427e-05 0)
(19.2932 -4.20589e-05 0)
(19.2959 -3.94499e-05 0)
(19.2945 2.785e-05 0)
(19.295 -2.13434e-05 0)
(19.2959 -6.52652e-05 0)
(19.2988 -2.74875e-05 0)
(19.2954 7.92885e-05 0)
(19.2944 1.07795e-05 0)
(19.2946 -5.0847e-05 0)
(19.2976 -4.68812e-05 0)
(19.2963 2.03829e-05 0)
(19.2968 -2.7545e-05 0)
(19.2978 -6.61073e-05 0)
(19.3005 -2.71461e-05 0)
(19.2971 7.1786e-05 0)
(19.2961 2.98946e-06 0)
(19.2966 -5.24759e-05 0)
(19.2992 -4.67736e-05 0)
(19.298 1.23204e-05 0)
(19.2988 -3.6271e-05 0)
(19.2999 -6.78227e-05 0)
(19.3023 -3.03411e-05 0)
(19.2993 5.71101e-05 0)
(19.2987 -7.36573e-06 0)
(19.2993 -5.32149e-05 0)
(19.3016 -4.29691e-05 0)
(19.3003 8.44572e-06 0)
(19.3012 -3.99432e-05 0)
(19.3023 -6.4317e-05 0)
(19.3043 -3.09899e-05 0)
(19.3017 4.37742e-05 0)
(19.3015 -1.44575e-05 0)
(19.3021 -5.06045e-05 0)
(19.3041 -4.15508e-05 0)
(19.303 2.10505e-06 0)
(19.3037 -3.8696e-05 0)
(19.3047 -5.82808e-05 0)
(19.3063 -3.36586e-05 0)
(19.3044 2.39609e-05 0)
(19.3044 -2.3455e-05 0)
(19.3051 -4.9132e-05 0)
(19.3066 -4.46715e-05 0)