/*--------------------------------*- C++ -*----------------------------------*\
  =========                 |
  \\      /  F ield         | OpenFOAM: The Open Source CFD Toolbox
   \\    /   O peration     | Website:  https://openfoam.org
    \\  /    A nd           | Version:  8
     \\/     M anipulation  |
\*---------------------------------------------------------------------------*/
FoamFile
{
    version     2.0;
    format      ascii;
    class       surfaceScalarField;
    location    "5.808";
    object      phi;
}
// * * * * * * * * * * * * * * * * * * * * * * * * * * * * * * * * * * * * * //

dimensions      [0 3 -1 0 0 0 0];

internalField   nonuniform List<scalar> 
75200
(
6.16058e-10
6.16058e-10
1.28704e-08
-6.84521e-10
-6.84521e-10
4.53139e-10
6.02561e-10
2.42659e-08
-7.00375e-10
2.37902e-10
5.96881e-10
3.27532e-08
-7.2517e-10
-4.53166e-17
6.1866e-10
3.72775e-08
-7.64535e-10
-2.37902e-10
6.1866e-10
3.72775e-08
-7.64535e-10
-4.53139e-10
5.96881e-10
3.27532e-08
-7.2517e-10
-6.16058e-10
6.02561e-10
2.42659e-08
-7.00375e-10
6.16058e-10
1.28704e-08
-6.84521e-10
-6.84521e-10
6.02561e-10
4.53139e-10
2.42659e-08
-7.00375e-10
4.3193e-10
4.3193e-10
3.44955e-08
2.21369e-10
4.19536e-10
4.2123e-08
-3.87284e-17
4.28446e-10
4.61958e-08
-2.21369e-10
4.28446e-10
4.61958e-08
-4.3193e-10
4.19536e-10
4.2123e-08
-6.02561e-10
4.3193e-10
3.44955e-08
4.53139e-10
2.42659e-08
-7.00375e-10
5.96881e-10
2.37902e-10
3.27532e-08
-7.2517e-10
4.19536e-10
2.21369e-10
4.2123e-08
2.13367e-10
2.13367e-10
4.91251e-08
-4.13216e-17
2.16397e-10
5.2869e-08
-2.13367e-10
2.16397e-10
5.2869e-08
-4.19536e-10
2.13367e-10
4.91251e-08
-5.96881e-10
2.21369e-10
4.2123e-08
2.37902e-10
3.27532e-08
-7.2517e-10
6.1866e-10
-4.21484e-17
3.72775e-08
-7.64535e-10
4.28446e-10
-3.55015e-17
4.61958e-08
2.16397e-10
-3.95038e-17
5.2869e-08
-2.87516e-17
-2.82176e-17
5.64394e-08
-2.16397e-10
-1.82158e-17
5.64394e-08
-4.28446e-10
-1.06847e-17
5.2869e-08
-6.1866e-10
-7.48336e-18
4.61958e-08
-6.08121e-18
3.72775e-08
-7.64535e-10
6.1866e-10
-2.37902e-10
3.72775e-08
-7.64535e-10
4.28446e-10
-2.21369e-10
4.61958e-08
2.16397e-10
-2.13367e-10
5.2869e-08
-1.84904e-17
-2.16397e-10
5.64394e-08
-2.16397e-10
-2.16397e-10
5.64394e-08
-4.28446e-10
-2.13367e-10
5.2869e-08
-6.1866e-10
-2.21369e-10
4.61958e-08
-2.37902e-10
3.72775e-08
-7.64535e-10
5.96881e-10
-4.53139e-10
3.27532e-08
-7.2517e-10
4.19536e-10
-4.3193e-10
4.2123e-08
2.13367e-10
-4.19536e-10
4.91251e-08
-1.11625e-17
-4.28446e-10
5.2869e-08
-2.13367e-10
-4.28446e-10
5.2869e-08
-4.19536e-10
-4.19536e-10
4.91251e-08
-5.96881e-10
-4.3193e-10
4.2123e-08
-4.53139e-10
3.27532e-08
-7.2517e-10
6.02561e-10
-6.16058e-10
2.42659e-08
-7.00375e-10
4.3193e-10
-6.02561e-10
3.44955e-08
2.21369e-10
-5.96881e-10
4.2123e-08
-8.2004e-18
-6.1866e-10
4.61958e-08
-2.21369e-10
-6.1866e-10
4.61958e-08
-4.3193e-10
-5.96881e-10
4.2123e-08
-6.02561e-10
-6.02561e-10
3.44955e-08
-6.16058e-10
2.42659e-08
-7.00375e-10
6.16058e-10
1.28704e-08
-6.84521e-10
-6.84521e-10
4.53139e-10
2.42659e-08
-7.00375e-10
2.37902e-10
3.27532e-08
-7.2517e-10
-5.92697e-18
3.72775e-08
-7.64535e-10
-2.37902e-10
3.72775e-08
-7.64535e-10
-4.53139e-10
3.27532e-08
-7.2517e-10
-6.16058e-10
2.42659e-08
-7.00375e-10
1.28704e-08
-6.84521e-10
-6.84521e-10
1.64231e-09
1.64231e-09
1.3183e-08
-1.79858e-09
-1.79858e-09
1.24064e-09
1.61793e-09
2.48629e-08
-1.81322e-09
6.63597e-10
1.58322e-09
3.35677e-08
-1.82065e-09
6.01489e-17
1.60017e-09
3.82059e-08
-1.86499e-09
-6.63597e-10
1.60017e-09
3.82059e-08
-1.86499e-09
-1.24064e-09
1.58322e-09
3.35677e-08
-1.82065e-09
-1.64231e-09
1.61793e-09
2.48629e-08
-1.81322e-09
1.64231e-09
1.3183e-08
-1.79858e-09
-1.79858e-09
1.61793e-09
1.24064e-09
2.48629e-08
-1.81322e-09
1.20069e-09
1.20069e-09
3.533e-08
6.30036e-10
1.15612e-09
4.31208e-08
5.06425e-17
1.15433e-09
4.72717e-08
-6.30036e-10
1.15433e-09
4.72717e-08
-1.20069e-09
1.15612e-09
4.31208e-08
-1.61793e-09
1.20069e-09
3.533e-08
1.24064e-09
2.48629e-08
-1.81322e-09
1.58322e-09
6.63597e-10
3.35677e-08
-1.82065e-09
1.15612e-09
6.30036e-10
4.31208e-08
6.01456e-10
6.01456e-10
5.02344e-08
4.62608e-17
5.97287e-10
5.40275e-08
-6.01456e-10
5.97287e-10
5.40275e-08
-1.15612e-09
6.01456e-10
5.02344e-08
-1.58322e-09
6.30036e-10
4.31208e-08
6.63597e-10
3.35677e-08
-1.82065e-09
1.60017e-09
5.27993e-17
3.82059e-08
-1.86499e-09
1.15433e-09
4.13318e-17
4.72717e-08
5.97287e-10
3.60727e-17
5.40275e-08
3.49501e-17
2.55743e-17
5.76339e-08
-5.97287e-10
1.48748e-17
5.76339e-08
-1.15433e-09
5.95813e-18
5.40275e-08
-1.60017e-09
-8.98621e-20
4.72717e-08
-4.4006e-18
3.82059e-08
-1.86499e-09
1.60017e-09
-6.63597e-10
3.82059e-08
-1.86499e-09
1.15433e-09
-6.30036e-10
4.72717e-08
5.97287e-10
-6.01456e-10
5.40275e-08
2.33763e-17
-5.97287e-10
5.76339e-08
-5.97287e-10
-5.97287e-10
5.76339e-08
-1.15433e-09
-6.01456e-10
5.40275e-08
-1.60017e-09
-6.30036e-10
4.72717e-08
-6.63597e-10
3.82059e-08
-1.86499e-09
1.58322e-09
-1.24064e-09
3.35677e-08
-1.82065e-09
1.15612e-09
-1.20069e-09
4.31208e-08
6.01456e-10
-1.15612e-09
5.02344e-08
1.32023e-17
-1.15433e-09
5.40275e-08
-6.01456e-10
-1.15433e-09
5.40275e-08
-1.15612e-09
-1.15612e-09
5.02344e-08
-1.58322e-09
-1.20069e-09
4.31208e-08
-1.24064e-09
3.35677e-08
-1.82065e-09
1.61793e-09
-1.64231e-09
2.48629e-08
-1.81322e-09
1.20069e-09
-1.61793e-09
3.533e-08
6.30036e-10
-1.58322e-09
4.31208e-08
7.98742e-18
-1.60017e-09
4.72717e-08
-6.30036e-10
-1.60017e-09
4.72717e-08
-1.20069e-09
-1.58322e-09
4.31208e-08
-1.61793e-09
-1.61793e-09
3.533e-08
-1.64231e-09
2.48629e-08
-1.81322e-09
1.64231e-09
1.3183e-08
-1.79858e-09
-1.79858e-09
1.24064e-09
2.48629e-08
-1.81322e-09
6.63597e-10
3.35677e-08
-1.82065e-09
2.011e-18
3.82059e-08
-1.86499e-09
-6.63597e-10
3.82059e-08
-1.86499e-09
-1.24064e-09
3.35677e-08
-1.82065e-09
-1.64231e-09
2.48629e-08
-1.81322e-09
1.3183e-08
-1.79858e-09
-1.79858e-09
2.04551e-09
2.04551e-09
1.35559e-08
-2.23196e-09
-2.23196e-09
1.55642e-09
2.00408e-09
2.55479e-08
-2.20002e-09
8.32984e-10
1.94913e-09
3.4489e-08
-2.14698e-09
3.17519e-18
1.91757e-09
3.92526e-08
-2.13122e-09
-8.32984e-10
1.91757e-09
3.92526e-08
-2.13122e-09
-1.55642e-09
1.94913e-09
3.4489e-08
-2.14698e-09
-2.04551e-09
2.00408e-09
2.55479e-08
-2.20002e-09
2.04551e-09
1.35559e-08
-2.23196e-09
-2.23196e-09
2.00408e-09
1.55642e-09
2.55479e-08
-2.20002e-09
1.52039e-09
1.52039e-09
3.62974e-08
8.13995e-10
1.4766e-09
4.42997e-08
1.22089e-17
1.44531e-09
4.8558e-08
-8.13995e-10
1.44531e-09
4.8558e-08
-1.52039e-09
1.4766e-09
4.42997e-08
-2.00408e-09
1.52039e-09
3.62974e-08
1.55642e-09
2.55479e-08
-2.20002e-09
1.94913e-09
8.32984e-10
3.4489e-08
-2.14698e-09
1.4766e-09
8.13995e-10
4.42997e-08
7.93366e-10
7.93366e-10
5.16009e-08
1.41036e-17
7.761e-10
5.54901e-08
-7.93366e-10
7.761e-10
5.54901e-08
-1.4766e-09
7.93366e-10
5.16009e-08
-1.94913e-09
8.13995e-10
4.42997e-08
8.32984e-10
3.4489e-08
-2.14698e-09
1.91757e-09
7.92063e-18
3.92526e-08
-2.13122e-09
1.44531e-09
1.78288e-17
4.8558e-08
7.761e-10
1.98088e-17
5.54901e-08
9.92844e-18
1.51529e-17
5.91861e-08
-7.761e-10
1.07037e-17
5.91861e-08
-1.44531e-09
8.40247e-18
5.54901e-08
-1.91757e-09
9.4687e-18
4.8558e-08
9.32451e-18
3.92526e-08
-2.13122e-09
1.91757e-09
-8.32984e-10
3.92526e-08
-2.13122e-09
1.44531e-09
-8.13995e-10
4.8558e-08
7.761e-10
-7.93366e-10
5.54901e-08
6.21498e-18
-7.761e-10
5.91861e-08
-7.761e-10
-7.761e-10
5.91861e-08
-1.44531e-09
-7.93366e-10
5.54901e-08
-1.91757e-09
-8.13995e-10
4.8558e-08
-8.32984e-10
3.92526e-08
-2.13122e-09
1.94913e-09
-1.55642e-09
3.4489e-08
-2.14698e-09
1.4766e-09
-1.52039e-09
4.42997e-08
7.93366e-10
-1.4766e-09
5.16009e-08
5.06206e-18
-1.44531e-09
5.54901e-08
-7.93366e-10
-1.44531e-09
5.54901e-08
-1.4766e-09
-1.4766e-09
5.16009e-08
-1.94913e-09
-1.52039e-09
4.42997e-08
-1.55642e-09
3.4489e-08
-2.14698e-09
2.00408e-09
-2.04551e-09
2.55479e-08
-2.20002e-09
1.52039e-09
-2.00408e-09
3.62974e-08
8.13995e-10
-1.94913e-09
4.42997e-08
6.67954e-18
-1.91757e-09
4.8558e-08
-8.13995e-10
-1.91757e-09
4.8558e-08
-1.52039e-09
-1.94913e-09
4.42997e-08
-2.00408e-09
-2.00408e-09
3.62974e-08
-2.04551e-09
2.55479e-08
-2.20002e-09
2.04551e-09
1.35559e-08
-2.23196e-09
-2.23196e-09
1.55642e-09
2.55479e-08
-2.20002e-09
8.32984e-10
3.4489e-08
-2.14698e-09
8.59597e-18
3.92526e-08
-2.13122e-09
-8.32984e-10
3.92526e-08
-2.13122e-09
-1.55642e-09
3.4489e-08
-2.14698e-09
-2.04551e-09
2.55479e-08
-2.20002e-09
1.35559e-08
-2.23196e-09
-2.23196e-09
1.93012e-09
1.93012e-09
1.39138e-08
-2.10906e-09
-2.10906e-09
1.46281e-09
1.85305e-09
2.6196e-08
-2.03384e-09
7.87812e-10
1.80926e-09
3.53428e-08
-1.98813e-09
4.2357e-18
1.76744e-09
4.02198e-08
-1.94687e-09
-7.87812e-10
1.76744e-09
4.02198e-08
-1.94687e-09
-1.46281e-09
1.80926e-09
3.53428e-08
-1.98813e-09
-1.93012e-09
1.85305e-09
2.6196e-08
-2.03384e-09
1.93012e-09
1.39138e-08
-2.10906e-09
-2.10906e-09
1.85305e-09
1.46281e-09
2.6196e-08
-2.03384e-09
1.40764e-09
1.40764e-09
3.71882e-08
7.62394e-10
1.37563e-09
4.53786e-08
5.61645e-18
1.34152e-09
4.97463e-08
-7.62394e-10
1.34152e-09
4.97463e-08
-1.40764e-09
1.37563e-09
4.53786e-08
-1.85305e-09
1.40764e-09
3.71882e-08
1.46281e-09
2.6196e-08
-2.03384e-09
1.80926e-09
7.87812e-10
3.53428e-08
-1.98813e-09
1.37563e-09
7.62394e-10
4.53786e-08
7.45953e-10
7.45953e-10
5.28603e-08
9.42649e-18
7.27235e-10
5.68503e-08
-7.45953e-10
7.27235e-10
5.68503e-08
-1.37563e-09
7.45953e-10
5.28603e-08
-1.80926e-09
7.62394e-10
4.53786e-08
7.87812e-10
3.53428e-08
-1.98813e-09
1.76744e-09
5.58337e-18
4.02198e-08
-1.94687e-09
1.34152e-09
1.03619e-17
4.97463e-08
7.27235e-10
1.66333e-17
5.68503e-08
9.76122e-18
1.77981e-17
6.06406e-08
-7.27235e-10
1.77962e-17
6.06406e-08
-1.34152e-09
1.74154e-17
5.68503e-08
-1.76744e-09
1.61111e-17
4.97463e-08
1.4225e-17
4.02198e-08
-1.94687e-09
1.76744e-09
-7.87812e-10
4.02198e-08
-1.94687e-09
1.34152e-09
-7.62393e-10
4.97463e-08
7.27235e-10
-7.45953e-10
5.68503e-08
9.38822e-18
-7.27235e-10
6.06406e-08
-7.27235e-10
-7.27235e-10
6.06406e-08
-1.34152e-09
-7.45953e-10
5.68503e-08
-1.76744e-09
-7.62393e-10
4.97463e-08
-7.87812e-10
4.02198e-08
-1.94687e-09
1.80926e-09
-1.46281e-09
3.53428e-08
-1.98813e-09
1.37563e-09
-1.40764e-09
4.53786e-08
7.45953e-10
-1.37563e-09
5.28603e-08
8.96024e-18
-1.34152e-09
5.68503e-08
-7.45953e-10
-1.34152e-09
5.68503e-08
-1.37563e-09
-1.37563e-09
5.28603e-08
-1.80926e-09
-1.40764e-09
4.53786e-08
-1.46281e-09
3.53428e-08
-1.98813e-09
1.85305e-09
-1.93012e-09
2.6196e-08
-2.03384e-09
1.40764e-09
-1.85305e-09
3.71882e-08
7.62394e-10
-1.80926e-09
4.53786e-08
8.49802e-18
-1.76744e-09
4.97463e-08
-7.62394e-10
-1.76744e-09
4.97463e-08
-1.40764e-09
-1.80926e-09
4.53786e-08
-1.85305e-09
-1.85305e-09
3.71882e-08
-1.93012e-09
2.6196e-08
-2.03384e-09
1.93012e-09
1.39138e-08
-2.10906e-09
-2.10906e-09
1.46281e-09
2.6196e-08
-2.03384e-09
7.87812e-10
3.53428e-08
-1.98813e-09
7.14111e-18
4.02198e-08
-1.94687e-09
-7.87812e-10
4.02198e-08
-1.94687e-09
-1.46281e-09
3.53428e-08
-1.98813e-09
-1.93012e-09
2.6196e-08
-2.03384e-09
1.39138e-08
-2.10906e-09
-2.10906e-09
1.71167e-09
1.71167e-09
1.42347e-08
-1.87215e-09
-1.87215e-09
1.28641e-09
1.62488e-09
2.67845e-08
-1.78814e-09
6.88367e-10
1.58187e-09
3.61161e-08
-1.75714e-09
-1.7026e-17
1.55027e-09
4.10861e-08
-1.72825e-09
-6.88367e-10
1.55027e-09
4.10861e-08
-1.72825e-09
-1.28641e-09
1.58187e-09
3.61161e-08
-1.75714e-09
-1.71167e-09
1.62488e-09
2.67845e-08
-1.78814e-09
1.71167e-09
1.42347e-08
-1.87215e-09
-1.87215e-09
1.62488e-09
1.28641e-09
2.67845e-08
-1.78814e-09
1.22038e-09
1.22038e-09
3.79972e-08
6.51837e-10
1.18832e-09
4.63407e-08
-1.70209e-17
1.1605e-09
5.07879e-08
-6.51837e-10
1.1605e-09
5.07879e-08
-1.22038e-09
1.18832e-09
4.63407e-08
-1.62488e-09
1.22038e-09
3.79972e-08
1.28641e-09
2.67845e-08
-1.78814e-09
1.58187e-09
6.88367e-10
3.61161e-08
-1.75714e-09
1.18832e-09
6.51837e-10
4.63407e-08
6.38424e-10
6.38424e-10
5.39601e-08
-1.72615e-17
6.24099e-10
5.80251e-08
-6.38424e-10
6.24099e-10
5.80251e-08
-1.18832e-09
6.38424e-10
5.39601e-08
-1.58187e-09
6.51837e-10
4.63407e-08
6.88367e-10
3.61161e-08
-1.75714e-09
1.55027e-09
-1.43262e-17
4.10861e-08
-1.72825e-09
1.1605e-09
-1.7877e-17
5.07879e-08
6.24099e-10
-2.02697e-17
5.80251e-08
-1.78701e-17
-2.12125e-17
6.18888e-08
-6.24099e-10
-2.34633e-17
6.18888e-08
-1.1605e-09
-2.61934e-17
5.80251e-08
-1.55027e-09
-2.75075e-17
5.07879e-08
-2.5112e-17
4.10861e-08
-1.72825e-09
1.55027e-09
-6.88367e-10
4.10861e-08
-1.72825e-09
1.1605e-09
-6.51837e-10
5.07879e-08
6.24099e-10
-6.38424e-10
5.80251e-08
-1.95137e-17
-6.24099e-10
6.18888e-08
-6.24099e-10
-6.24099e-10
6.18888e-08
-1.1605e-09
-6.38424e-10
5.80251e-08
-1.55027e-09
-6.51837e-10
5.07879e-08
-6.88367e-10
4.10861e-08
-1.72825e-09
1.58187e-09
-1.28641e-09
3.61161e-08
-1.75714e-09
1.18832e-09
-1.22038e-09
4.63407e-08
6.38424e-10
-1.18832e-09
5.39601e-08
-2.16744e-17
-1.1605e-09
5.80251e-08
-6.38424e-10
-1.1605e-09
5.80251e-08
-1.18832e-09
-1.18832e-09
5.39601e-08
-1.58187e-09
-1.22038e-09
4.63407e-08
-1.28641e-09
3.61161e-08
-1.75714e-09
1.62488e-09
-1.71167e-09
2.67845e-08
-1.78814e-09
1.22038e-09
-1.62488e-09
3.79972e-08
6.51837e-10
-1.58187e-09
4.63407e-08
-2.30074e-17
-1.55027e-09
5.07879e-08
-6.51837e-10
-1.55027e-09
5.07879e-08
-1.22038e-09
-1.58187e-09
4.63407e-08
-1.62488e-09
-1.62488e-09
3.79972e-08
-1.71167e-09
2.67845e-08
-1.78814e-09
1.71167e-09
1.42347e-08
-1.87215e-09
-1.87215e-09
1.28641e-09
2.67845e-08
-1.78814e-09
6.88367e-10
3.61161e-08
-1.75714e-09
-2.12853e-17
4.10861e-08
-1.72825e-09
-6.88367e-10
4.10861e-08
-1.72825e-09
-1.28641e-09
3.61161e-08
-1.75714e-09
-1.71167e-09
2.67845e-08
-1.78814e-09
1.42347e-08
-1.87215e-09
-1.87215e-09
1.54553e-09
1.54553e-09
1.45113e-08
-1.68383e-09
-1.68383e-09
1.16516e-09
1.46637e-09
2.7302e-08
-1.60346e-09
6.26083e-10
1.42466e-09
3.68089e-08
-1.57838e-09
7.19096e-18
1.40047e-09
4.18701e-08
-1.55838e-09
-6.26083e-10
1.40047e-09
4.18701e-08
-1.55838e-09
-1.16516e-09
1.42466e-09
3.68089e-08
-1.57838e-09
-1.54553e-09
1.46637e-09
2.7302e-08
-1.60346e-09
1.54553e-09
1.45113e-08
-1.68383e-09
-1.68383e-09
1.46637e-09
1.16516e-09
2.7302e-08
-1.60346e-09
1.10318e-09
1.10318e-09
3.87236e-08
5.8791e-10
1.06677e-09
4.72138e-08
8.31208e-18
1.04204e-09
5.17342e-08
-5.8791e-10
1.04204e-09
5.17342e-08
-1.10318e-09
1.06677e-09
4.72138e-08
-1.46637e-09
1.10318e-09
3.87236e-08
1.16516e-09
2.7302e-08
-1.60346e-09
1.42466e-09
6.26083e-10
3.68089e-08
-1.57838e-09
1.06677e-09
5.8791e-10
4.72138e-08
5.69026e-10
5.69026e-10
5.49555e-08
1.20658e-17
5.55151e-10
5.90811e-08
-5.69026e-10
5.55151e-10
5.90811e-08
-1.06677e-09
5.69026e-10
5.49555e-08
-1.42466e-09
5.8791e-10
4.72138e-08
6.26083e-10
3.68089e-08
-1.57838e-09
1.40047e-09
8.70375e-18
4.18701e-08
-1.55838e-09
1.04204e-09
1.39991e-17
5.17342e-08
5.55151e-10
2.00095e-17
5.90811e-08
1.62307e-17
2.42529e-17
6.29991e-08
-5.55151e-10
2.82747e-17
6.29991e-08
-1.04204e-09
2.95001e-17
5.90811e-08
-1.40047e-09
2.60232e-17
5.17342e-08
1.81627e-17
4.18701e-08
-1.55838e-09
1.40047e-09
-6.26083e-10
4.18701e-08
-1.55838e-09
1.04204e-09
-5.8791e-10
5.17342e-08
5.55151e-10
-5.69026e-10
5.90811e-08
2.04741e-17
-5.55151e-10
6.29991e-08
-5.55151e-10
-5.55151e-10
6.29991e-08
-1.04204e-09
-5.69026e-10
5.90811e-08
-1.40047e-09
-5.8791e-10
5.17342e-08
-6.26083e-10
4.18701e-08
-1.55838e-09
1.42466e-09
-1.16516e-09
3.68089e-08
-1.57838e-09
1.06677e-09
-1.10318e-09
4.72138e-08
5.69026e-10
-1.06677e-09
5.49555e-08
2.22632e-17
-1.04204e-09
5.90811e-08
-5.69026e-10
-1.04204e-09
5.90811e-08
-1.06677e-09
-1.06677e-09
5.49555e-08
-1.42466e-09
-1.10318e-09
4.72138e-08
-1.16516e-09
3.68089e-08
-1.57838e-09
1.46637e-09
-1.54553e-09
2.7302e-08
-1.60346e-09
1.10318e-09
-1.46637e-09
3.87236e-08
5.8791e-10
-1.42466e-09
4.72138e-08
1.92938e-17
-1.40047e-09
5.17342e-08
-5.8791e-10
-1.40047e-09
5.17342e-08
-1.10318e-09
-1.42466e-09
4.72138e-08
-1.46637e-09
-1.46637e-09
3.87236e-08
-1.54553e-09
2.7302e-08
-1.60346e-09
1.54553e-09
1.45113e-08
-1.68383e-09
-1.68383e-09
1.16516e-09
2.7302e-08
-1.60346e-09
6.26083e-10
3.68089e-08
-1.57838e-09
1.25705e-17
4.18701e-08
-1.55838e-09
-6.26083e-10
4.18701e-08
-1.55838e-09
-1.16516e-09
3.68089e-08
-1.57838e-09
-1.54553e-09
2.7302e-08
-1.60346e-09
1.45113e-08
-1.68383e-09
-1.68383e-09
1.38693e-09
1.38693e-09
1.47472e-08
-1.50488e-09
-1.50488e-09
1.05044e-09
1.32289e-09
2.77469e-08
-1.4313e-09
5.68226e-10
1.28904e-09
3.74104e-08
-1.40824e-09
-2.45423e-17
1.26799e-09
4.25561e-08
-1.38572e-09
-5.68226e-10
1.26799e-09
4.25561e-08
-1.38572e-09
-1.05044e-09
1.28904e-09
3.74104e-08
-1.40824e-09
-1.38693e-09
1.32289e-09
2.77469e-08
-1.4313e-09
1.38693e-09
1.47472e-08
-1.50488e-09
-1.50488e-09
1.32289e-09
1.05044e-09
2.77469e-08
-1.4313e-09
1.00582e-09
1.00582e-09
3.93577e-08
5.41415e-10
9.77456e-10
4.79898e-08
-3.03992e-17
9.58216e-10
5.25854e-08
-5.41415e-10
9.58216e-10
5.25854e-08
-1.00582e-09
9.77456e-10
4.79898e-08
-1.32289e-09
1.00582e-09
3.93577e-08
1.05044e-09
2.77469e-08
-1.4313e-09
1.28904e-09
5.68226e-10
3.74104e-08
-1.40824e-09
9.77456e-10
5.41415e-10
4.79898e-08
5.2564e-10
5.2564e-10
5.58592e-08
-3.37557e-17
5.1464e-10
6.00503e-08
-5.2564e-10
5.1464e-10
6.00503e-08
-9.77456e-10
5.2564e-10
5.58592e-08
-1.28904e-09
5.41415e-10
4.79898e-08
5.68226e-10
3.74104e-08
-1.40824e-09
1.26799e-09
-2.30852e-17
4.25561e-08
-1.38572e-09
9.58216e-10
-3.20639e-17
5.25854e-08
5.1464e-10
-3.82016e-17
6.00503e-08
-3.5817e-17
-4.01079e-17
6.40284e-08
-5.1464e-10
-4.14889e-17
6.40284e-08
-9.58216e-10
-4.21733e-17
6.00503e-08
-1.26799e-09
-3.84096e-17
5.25854e-08
-2.83857e-17
4.25561e-08
-1.38572e-09
1.26799e-09
-5.68226e-10
4.25561e-08
-1.38572e-09
9.58216e-10
-5.41415e-10
5.25854e-08
5.1464e-10
-5.2564e-10
6.00503e-08
-3.71513e-17
-5.1464e-10
6.40284e-08
-5.1464e-10
-5.1464e-10
6.40284e-08
-9.58216e-10
-5.2564e-10
6.00503e-08
-1.26799e-09
-5.41415e-10
5.25854e-08
-5.68226e-10
4.25561e-08
-1.38572e-09
1.28904e-09
-1.05044e-09
3.74104e-08
-1.40824e-09
9.77456e-10
-1.00582e-09
4.79898e-08
5.2564e-10
-9.77456e-10
5.58592e-08
-3.80846e-17
-9.58216e-10
6.00503e-08
-5.2564e-10
-9.58216e-10
6.00503e-08
-9.77456e-10
-9.77456e-10
5.58592e-08
-1.28904e-09
-1.00582e-09
4.79898e-08
-1.05044e-09
3.74104e-08
-1.40824e-09
1.32289e-09
-1.38693e-09
2.77469e-08
-1.4313e-09
1.00582e-09
-1.32289e-09
3.93577e-08
5.41415e-10
-1.28904e-09
4.79898e-08
-3.52242e-17
-1.26799e-09
5.25854e-08
-5.41415e-10
-1.26799e-09
5.25854e-08
-1.00582e-09
-1.28904e-09
4.79898e-08
-1.32289e-09
-1.32289e-09
3.93577e-08
-1.38693e-09
2.77469e-08
-1.4313e-09
1.38693e-09
1.47472e-08
-1.50488e-09
-1.50488e-09
1.05044e-09
2.77469e-08
-1.4313e-09
5.68226e-10
3.74104e-08
-1.40824e-09
-2.69352e-17
4.25561e-08
-1.38572e-09
-5.68226e-10
4.25561e-08
-1.38572e-09
-1.05044e-09
3.74104e-08
-1.40824e-09
-1.38693e-09
2.77469e-08
-1.4313e-09
1.47472e-08
-1.50488e-09
-1.50488e-09
1.20956e-09
1.20956e-09
1.49488e-08
-1.31039e-09
-1.31039e-09
9.16338e-10
1.15628e-09
2.81271e-08
-1.24323e-09
4.966e-10
1.1295e-09
3.79238e-08
-1.22325e-09
1.23014e-17
1.11044e-09
4.31418e-08
-1.19959e-09
-4.966e-10
1.11044e-09
4.31418e-08
-1.19959e-09
-9.16338e-10
1.1295e-09
3.79238e-08
-1.22325e-09
-1.20956e-09
1.15628e-09
2.81271e-08
-1.24323e-09
1.20956e-09
1.49488e-08
-1.31039e-09
-1.31039e-09
1.15628e-09
9.16338e-10
2.81271e-08
-1.24323e-09
8.84485e-10
8.84485e-10
3.99013e-08
4.78922e-10
8.65515e-10
4.86594e-08
1.466e-17
8.50312e-10
5.33245e-08
-4.78922e-10
8.50312e-10
5.33245e-08
-8.84485e-10
8.65515e-10
4.86594e-08
-1.15628e-09
8.84485e-10
3.99013e-08
9.16338e-10
2.81271e-08
-1.24323e-09
1.1295e-09
4.966e-10
3.79238e-08
-1.22325e-09
8.65515e-10
4.78922e-10
4.86594e-08
4.69729e-10
4.69729e-10
5.66508e-08
1.91931e-17
4.61558e-10
6.09088e-08
-4.69729e-10
4.61558e-10
6.09088e-08
-8.65515e-10
4.69729e-10
5.66508e-08
-1.1295e-09
4.78922e-10
4.86594e-08
4.966e-10
3.79238e-08
-1.22325e-09
1.11044e-09
5.99077e-18
4.31418e-08
-1.19959e-09
8.50312e-10
8.63327e-18
5.33245e-08
4.61558e-10
1.37622e-17
6.09088e-08
2.33321e-17
1.75099e-17
6.49515e-08
-4.61558e-10
1.90403e-17
6.49515e-08
-8.50312e-10
1.91177e-17
6.09088e-08
-1.11044e-09
1.73688e-17
5.33245e-08
1.3841e-17
4.31418e-08
-1.19959e-09
1.11044e-09
-4.966e-10
4.31418e-08
-1.19959e-09
8.50312e-10
-4.78922e-10
5.33245e-08
4.61558e-10
-4.69729e-10
6.09088e-08
2.52082e-17
-4.61558e-10
6.49515e-08
-4.61558e-10
-4.61558e-10
6.49515e-08
-8.50312e-10
-4.69729e-10
6.09088e-08
-1.11044e-09
-4.78922e-10
5.33245e-08
-4.966e-10
4.31418e-08
-1.19959e-09
1.1295e-09
-9.16338e-10
3.79238e-08
-1.22325e-09
8.65515e-10
-8.84485e-10
4.86594e-08
4.69729e-10
-8.65515e-10
5.66508e-08
2.60613e-17
-8.50312e-10
6.09088e-08
-4.69729e-10
-8.50312e-10
6.09088e-08
-8.65515e-10
-8.65515e-10
5.66508e-08
-1.1295e-09
-8.84485e-10
4.86594e-08
-9.16338e-10
3.79238e-08
-1.22325e-09
1.15628e-09
-1.20956e-09
2.81271e-08
-1.24323e-09
8.84485e-10
-1.15628e-09
3.99013e-08
4.78922e-10
-1.1295e-09
4.86594e-08
2.33401e-17
-1.11044e-09
5.33245e-08
-4.78922e-10
-1.11044e-09
5.33245e-08
-8.84485e-10
-1.1295e-09
4.86594e-08
-1.15628e-09
-1.15628e-09
3.99013e-08
-1.20956e-09
2.81271e-08
-1.24323e-09
1.20956e-09
1.49488e-08
-1.31039e-09
-1.31039e-09
9.16338e-10
2.81271e-08
-1.24323e-09
4.966e-10
3.79238e-08
-1.22325e-09
2.03933e-17
4.31418e-08
-1.19959e-09
-4.966e-10
4.31418e-08
-1.19959e-09
-9.16338e-10
3.79238e-08
-1.22325e-09
-1.20956e-09
2.81271e-08
-1.24323e-09
1.49488e-08
-1.31039e-09
-1.31039e-09
1.05019e-09
1.05019e-09
1.51245e-08
-1.13804e-09
-1.13804e-09
7.93875e-10
1.00196e-09
2.84585e-08
-1.0771e-09
4.29401e-10
9.77862e-10
3.83707e-08
-1.06025e-09
-2.06396e-18
9.61432e-10
4.36504e-08
-1.04058e-09
-4.29401e-10
9.61432e-10
4.36504e-08
-1.04058e-09
-7.93875e-10
9.77862e-10
3.83707e-08
-1.06025e-09
-1.05019e-09
1.00196e-09
2.84585e-08
-1.0771e-09
1.05019e-09
1.51245e-08
-1.13804e-09
-1.13804e-09
1.00196e-09
7.93875e-10
2.84585e-08
-1.0771e-09
7.6539e-10
7.6539e-10
4.03745e-08
4.13389e-10
7.49365e-10
4.92399e-08
-4.87786e-18
7.35606e-10
5.39637e-08
-4.13389e-10
7.35606e-10
5.39637e-08
-7.6539e-10
7.49365e-10
4.92399e-08
-1.00196e-09
7.6539e-10
4.03745e-08
7.93875e-10
2.84585e-08
-1.0771e-09
9.77862e-10
4.29401e-10
3.83707e-08
-1.06025e-09
7.49365e-10
4.13389e-10
4.92399e-08
4.0703e-10
4.0703e-10
5.73354e-08
-7.29324e-18
4.00118e-10
6.16513e-08
-4.0703e-10
4.00118e-10
6.16513e-08
-7.49365e-10
4.0703e-10
5.73354e-08
-9.77862e-10
4.13389e-10
4.92399e-08
4.29401e-10
3.83707e-08
-1.06025e-09
9.61432e-10
-7.03617e-18
4.36504e-08
-1.04058e-09
7.35606e-10
-9.10904e-18
5.39637e-08
4.00118e-10
-9.71613e-18
6.16513e-08
-9.94367e-18
-1.21043e-17
6.57517e-08
-4.00118e-10
-1.441e-17
6.57517e-08
-7.35606e-10
-1.47139e-17
6.16513e-08
-9.61432e-10
-1.2962e-17
5.39637e-08
-8.28172e-18
4.36504e-08
-1.04058e-09
9.61432e-10
-4.29401e-10
4.36504e-08
-1.04058e-09
7.35606e-10
-4.13389e-10
5.39637e-08
4.00118e-10
-4.0703e-10
6.16513e-08
-1.2597e-17
-4.00118e-10
6.57517e-08
-4.00118e-10
-4.00118e-10
6.57517e-08
-7.35606e-10
-4.0703e-10
6.16513e-08
-9.61432e-10
-4.13389e-10
5.39637e-08
-4.29401e-10
4.36504e-08
-1.04058e-09
9.77862e-10
-7.93875e-10
3.83707e-08
-1.06025e-09
7.49365e-10
-7.6539e-10
4.92399e-08
4.0703e-10
-7.49365e-10
5.73354e-08
-1.36374e-17
-7.35606e-10
6.16513e-08
-4.0703e-10
-7.35606e-10
6.16513e-08
-7.49365e-10
-7.49365e-10
5.73354e-08
-9.77862e-10
-7.6539e-10
4.92399e-08
-7.93875e-10
3.83707e-08
-1.06025e-09
1.00196e-09
-1.05019e-09
2.84585e-08
-1.0771e-09
7.6539e-10
-1.00196e-09
4.03745e-08
4.13389e-10
-9.77862e-10
4.92399e-08
-1.06456e-17
-9.61432e-10
5.39637e-08
-4.13389e-10
-9.61432e-10
5.39637e-08
-7.6539e-10
-9.77862e-10
4.92399e-08
-1.00196e-09
-1.00196e-09
4.03745e-08
-1.05019e-09
2.84585e-08
-1.0771e-09
1.05019e-09
1.51245e-08
-1.13804e-09
-1.13804e-09
7.93875e-10
2.84585e-08
-1.0771e-09
4.29401e-10
3.83707e-08
-1.06025e-09
-6.43022e-18
4.36504e-08
-1.04058e-09
-4.29401e-10
4.36504e-08
-1.04058e-09
-7.93875e-10
3.83707e-08
-1.06025e-09
-1.05019e-09
2.84585e-08
-1.0771e-09
1.51245e-08
-1.13804e-09
-1.13804e-09
9.32878e-10
9.32878e-10
1.52816e-08
-1.01143e-09
-1.01143e-09
7.04253e-10
8.87832e-10
2.87557e-08
-9.56351e-10
3.80305e-10
8.64585e-10
3.87718e-08
-9.41716e-10
2.12528e-17
8.51582e-10
4.41066e-08
-9.27509e-10
-3.80305e-10
8.51582e-10
4.41066e-08
-9.27509e-10
-7.04253e-10
8.64585e-10
3.87718e-08
-9.41716e-10
-9.32878e-10
8.87832e-10
2.87557e-08
-9.56351e-10
9.32878e-10
1.52816e-08
-1.01143e-09
-1.01143e-09
8.87832e-10
7.04253e-10
2.87557e-08
-9.56351e-10
6.75838e-10
6.75838e-10
4.07985e-08
3.63155e-10
6.59131e-10
4.9758e-08
2.26558e-17
6.46242e-10
5.45322e-08
-3.63155e-10
6.46242e-10
5.45322e-08
-6.75838e-10
6.59131e-10
4.9758e-08
-8.87832e-10
6.75838e-10
4.07985e-08
7.04253e-10
2.87557e-08
-9.56351e-10
8.64585e-10
3.80305e-10
3.87718e-08
-9.41716e-10
6.59131e-10
3.63155e-10
4.9758e-08
3.56195e-10
3.56195e-10
5.79413e-08
2.33541e-17
3.49346e-10
6.23044e-08
-3.56195e-10
3.49346e-10
6.23044e-08
-6.59131e-10
3.56195e-10
5.79413e-08
-8.64585e-10
3.63155e-10
4.9758e-08
3.80305e-10
3.87718e-08
-9.41716e-10
8.51582e-10
1.9985e-17
4.41066e-08
-9.27509e-10
6.46242e-10
2.03886e-17
5.45322e-08
3.49346e-10
1.86681e-17
6.23044e-08
2.32996e-17
1.85297e-17
6.64504e-08
-3.49346e-10
1.95424e-17
6.64504e-08
-6.46242e-10
2.06716e-17
6.23044e-08
-8.51582e-10
2.11868e-17
5.45322e-08
1.99358e-17
4.41066e-08
-9.27509e-10
8.51582e-10
-3.80305e-10
4.41066e-08
-9.27509e-10
6.46242e-10
-3.63155e-10
5.45322e-08
3.49346e-10
-3.56195e-10
6.23044e-08
2.41802e-17
-3.49346e-10
6.64504e-08
-3.49346e-10
-3.49346e-10
6.64504e-08
-6.46242e-10
-3.56195e-10
6.23044e-08
-8.51582e-10
-3.63155e-10
5.45322e-08
-3.80305e-10
4.41066e-08
-9.27509e-10
8.64585e-10
-7.04253e-10
3.87718e-08
-9.41716e-10
6.59131e-10
-6.75838e-10
4.9758e-08
3.56195e-10
-6.59131e-10
5.79413e-08
2.53791e-17
-6.46242e-10
6.23044e-08
-3.56195e-10
-6.46242e-10
6.23044e-08
-6.59131e-10
-6.59131e-10
5.79413e-08
-8.64585e-10
-6.75838e-10
4.9758e-08
-7.04253e-10
3.87718e-08
-9.41716e-10
8.87832e-10
-9.32878e-10
2.87557e-08
-9.56351e-10
6.75838e-10
-8.87832e-10
4.07985e-08
3.63155e-10
-8.64585e-10
4.9758e-08
2.49136e-17
-8.51582e-10
5.45322e-08
-3.63155e-10
-8.51582e-10
5.45322e-08
-6.75838e-10
-8.64585e-10
4.9758e-08
-8.87832e-10
-8.87832e-10
4.07985e-08
-9.32878e-10
2.87557e-08
-9.56351e-10
9.32878e-10
1.52816e-08
-1.01143e-09
-1.01143e-09
7.04253e-10
2.87557e-08
-9.56351e-10
3.80305e-10
3.87718e-08
-9.41716e-10
2.36218e-17
4.41066e-08
-9.27509e-10
-3.80305e-10
4.41066e-08
-9.27509e-10
-7.04253e-10
3.87718e-08
-9.41716e-10
-9.32878e-10
2.87557e-08
-9.56351e-10
1.52816e-08
-1.01143e-09
-1.01143e-09
8.57215e-10
8.57215e-10
1.54258e-08
-9.29304e-10
-9.29304e-10
6.47639e-10
8.15816e-10
2.90288e-08
-8.79346e-10
3.49866e-10
7.93891e-10
3.9141e-08
-8.65368e-10
3.75309e-18
7.84058e-10
4.4527e-08
-8.5459e-10
-3.49866e-10
7.84058e-10
4.4527e-08
-8.5459e-10
-6.47639e-10
7.93891e-10
3.9141e-08
-8.65368e-10
-8.57215e-10
8.15816e-10
2.90288e-08
-8.79346e-10
8.57215e-10
1.54258e-08
-9.29304e-10
-9.29304e-10
8.15816e-10
6.47639e-10
2.90288e-08
-8.79346e-10
6.20702e-10
6.20702e-10
4.11887e-08
3.33319e-10
6.04093e-10
5.02352e-08
5.00784e-19
5.94095e-10
5.50555e-08
-3.33319e-10
5.94095e-10
5.50555e-08
-6.20702e-10
6.04093e-10
5.02352e-08
-8.15816e-10
6.20702e-10
4.11887e-08
6.47639e-10
2.90288e-08
-8.79346e-10
7.93891e-10
3.49866e-10
3.9141e-08
-8.65368e-10
6.04093e-10
3.33319e-10
5.02352e-08
3.25482e-10
3.25482e-10
5.84985e-08
-4.60039e-18
3.19964e-10
6.2904e-08
-3.25482e-10
3.19964e-10
6.2904e-08
-6.04093e-10
3.25482e-10
5.84985e-08
-7.93891e-10
3.33319e-10
5.02352e-08
3.49866e-10
3.9141e-08
-8.65368e-10
7.84058e-10
-1.19442e-17
4.4527e-08
-8.5459e-10
5.94095e-10
-1.61213e-17
5.50555e-08
3.19964e-10
-2.04335e-17
6.2904e-08
-8.67385e-18
-2.57462e-17
6.70904e-08
-3.19964e-10
-2.80256e-17
6.70904e-08
-5.94095e-10
-2.59383e-17
6.2904e-08
-7.84058e-10
-2.02301e-17
5.50555e-08
-1.38569e-17
4.4527e-08
-8.5459e-10
7.84058e-10
-3.49866e-10
4.4527e-08
-8.5459e-10
5.94095e-10
-3.33319e-10
5.50555e-08
3.19964e-10
-3.25482e-10
6.2904e-08
-1.10485e-17
-3.19964e-10
6.70904e-08
-3.19964e-10
-3.19964e-10
6.70904e-08
-5.94095e-10
-3.25482e-10
6.2904e-08
-7.84058e-10
-3.33319e-10
5.50555e-08
-3.49866e-10
4.4527e-08
-8.5459e-10
7.93891e-10
-6.47639e-10
3.9141e-08
-8.65368e-10
6.04093e-10
-6.20702e-10
5.02352e-08
3.25482e-10
-6.04093e-10
5.84985e-08
-1.01911e-17
-5.94095e-10
6.2904e-08
-3.25482e-10
-5.94095e-10
6.2904e-08
-6.04093e-10
-6.04093e-10
5.84985e-08
-7.93891e-10
-6.20702e-10
5.02352e-08
-6.47639e-10
3.9141e-08
-8.65368e-10
8.15816e-10
-8.57215e-10
2.90288e-08
-8.79346e-10
6.20702e-10
-8.15816e-10
4.11887e-08
3.33319e-10
-7.93891e-10
5.02352e-08
-5.66966e-18
-7.84058e-10
5.50555e-08
-3.33319e-10
-7.84058e-10
5.50555e-08
-6.20702e-10
-7.93891e-10
5.02352e-08
-8.15816e-10
-8.15816e-10
4.11887e-08
-8.57215e-10
2.90288e-08
-8.79346e-10
8.57215e-10
1.54258e-08
-9.29304e-10
-9.29304e-10
6.47639e-10
2.90288e-08
-8.79346e-10
3.49866e-10
3.9141e-08
-8.65368e-10
-1.58979e-18
4.4527e-08
-8.5459e-10
-3.49866e-10
4.4527e-08
-8.5459e-10
-6.47639e-10
3.9141e-08
-8.65368e-10
-8.57215e-10
2.90288e-08
-8.79346e-10
1.54258e-08
-9.29304e-10
-9.29304e-10
8.02664e-10
8.02664e-10
1.55606e-08
-8.70063e-10
-8.70063e-10
6.07167e-10
7.64879e-10
2.92839e-08
-8.24507e-10
3.2825e-10
7.44325e-10
3.9486e-08
-8.10378e-10
3.1489e-17
7.35904e-10
4.492e-08
-8.00595e-10
-3.2825e-10
7.35904e-10
4.492e-08
-8.00595e-10
-6.07167e-10
7.44325e-10
3.9486e-08
-8.10378e-10
-8.02663e-10
7.64879e-10
2.92839e-08
-8.24507e-10
8.02664e-10
1.55606e-08
-8.70063e-10
-8.70063e-10
7.64879e-10
6.07167e-10
2.92839e-08
-8.24507e-10
5.82579e-10
5.82579e-10
4.15533e-08
3.1348e-10
5.66947e-10
5.06817e-08
3.40155e-17
5.59142e-10
5.55457e-08
-3.1348e-10
5.59142e-10
5.55457e-08
-5.82579e-10
5.66947e-10
5.06817e-08
-7.64879e-10
5.82579e-10
4.15533e-08
6.07167e-10
2.92839e-08
-8.24507e-10
7.44325e-10
3.2825e-10
3.9486e-08
-8.10378e-10
5.66947e-10
3.1348e-10
5.06817e-08
3.05598e-10
3.05598e-10
5.90212e-08
3.4666e-17
3.01292e-10
6.34674e-08
-3.05598e-10
3.01292e-10
6.34674e-08
-5.66947e-10
3.05598e-10
5.90212e-08
-7.44325e-10
3.1348e-10
5.06817e-08
3.2825e-10
3.9486e-08
-8.10378e-10
7.35904e-10
3.15045e-17
4.492e-08
-8.00595e-10
5.59142e-10
3.41861e-17
5.55457e-08
3.01292e-10
3.35492e-17
6.34674e-08
3.46112e-17
3.45374e-17