/*--------------------------------*- C++ -*----------------------------------*\
  =========                 |
  \\      /  F ield         | OpenFOAM: The Open Source CFD Toolbox
   \\    /   O peration     | Website:  https://openfoam.org
    \\  /    A nd           | Version:  8
     \\/     M anipulation  |
\*---------------------------------------------------------------------------*/
FoamFile
{
    version     2.0;
    format      ascii;
    class       volVectorField;
    location    "5.808";
    object      U;
}
// * * * * * * * * * * * * * * * * * * * * * * * * * * * * * * * * * * * * * //

dimensions      [0 1 -1 0 0 0 0];

internalField   nonuniform List<vector> 
25600
(
(-0.00039395 -0.00039395 0.0568164)
(-0.000303011 -0.000402418 0.0568163)
(-0.000179479 -0.000402626 0.0568152)
(-6.13945e-05 -0.000404668 0.0568144)
(6.13946e-05 -0.000404668 0.0568144)
(0.000179479 -0.000402626 0.0568152)
(0.000303011 -0.000402418 0.0568163)
(0.00039395 -0.00039395 0.0568164)
(-0.000402418 -0.000303011 0.0568163)
(-0.000293386 -0.000293386 0.0568147)
(-0.000170795 -0.000282603 0.0568128)
(-5.6067e-05 -0.000275357 0.0568116)
(5.6067e-05 -0.000275357 0.0568116)
(0.000170795 -0.000282603 0.0568128)
(0.000293386 -0.000293386 0.0568147)
(0.000402418 -0.000303011 0.0568163)
(-0.000402626 -0.000179479 0.0568152)
(-0.000282603 -0.000170795 0.0568128)
(-0.000162445 -0.000162445 0.0568104)
(-5.28174e-05 -0.000157866 0.056809)
(5.28175e-05 -0.000157866 0.056809)
(0.000162445 -0.000162445 0.0568104)
(0.000282603 -0.000170795 0.0568128)
(0.000402626 -0.000179479 0.0568152)
(-0.000404668 -6.13945e-05 0.0568144)
(-0.000275357 -5.6067e-05 0.0568116)
(-0.000157866 -5.28174e-05 0.056809)
(-5.12048e-05 -5.12048e-05 0.0568074)
(5.12048e-05 -5.12048e-05 0.0568074)
(0.000157866 -5.28175e-05 0.056809)
(0.000275357 -5.6067e-05 0.0568116)
(0.000404668 -6.13946e-05 0.0568144)
(-0.000404668 6.13946e-05 0.0568144)
(-0.000275357 5.6067e-05 0.0568116)
(-0.000157866 5.28175e-05 0.056809)
(-5.12048e-05 5.12048e-05 0.0568074)
(5.12048e-05 5.12048e-05 0.0568074)
(0.000157866 5.28175e-05 0.056809)
(0.000275357 5.6067e-05 0.0568116)
(0.000404668 6.13946e-05 0.0568144)
(-0.000402626 0.000179479 0.0568152)
(-0.000282603 0.000170795 0.0568128)
(-0.000162445 0.000162445 0.0568104)
(-5.28175e-05 0.000157866 0.056809)
(5.28175e-05 0.000157866 0.056809)
(0.000162445 0.000162445 0.0568104)
(0.000282603 0.000170795 0.0568128)
(0.000402626 0.000179479 0.0568152)
(-0.000402418 0.000303011 0.0568163)
(-0.000293386 0.000293386 0.0568147)
(-0.000170795 0.000282603 0.0568128)
(-5.6067e-05 0.000275357 0.0568116)
(5.6067e-05 0.000275357 0.0568116)
(0.000170795 0.000282603 0.0568128)
(0.000293386 0.000293386 0.0568147)
(0.000402418 0.000303011 0.0568163)
(-0.00039395 0.00039395 0.0568164)
(-0.000303011 0.000402418 0.0568163)
(-0.000179479 0.000402626 0.0568152)
(-6.13946e-05 0.000404668 0.0568144)
(6.13946e-05 0.000404668 0.0568144)
(0.000179479 0.000402626 0.0568152)
(0.000303011 0.000402418 0.0568163)
(0.00039395 0.00039395 0.0568164)
(-0.000875828 -0.000875828 0.0578648)
(-0.0006819 -0.000942315 0.0578172)
(-0.000416462 -0.000979917 0.0577825)
(-0.000143574 -0.0010002 0.0577638)
(0.000143574 -0.0010002 0.0577638)
(0.000416462 -0.000979917 0.0577825)
(0.0006819 -0.000942315 0.0578172)
(0.000875828 -0.000875828 0.0578648)
(-0.000942315 -0.0006819 0.0578172)
(-0.000707744 -0.000707744 0.0577397)
(-0.000424907 -0.000712467 0.0576882)
(-0.000141705 -0.000709163 0.0576644)
(0.000141705 -0.000709163 0.0576644)
(0.000424907 -0.000712467 0.0576882)
(0.000707744 -0.000707744 0.0577397)
(0.000942315 -0.0006819 0.0578172)
(-0.000979917 -0.000416462 0.0577825)
(-0.000712467 -0.000424907 0.0576882)
(-0.000421072 -0.000421072 0.0576297)
(-0.000138894 -0.000416095 0.0576032)
(0.000138894 -0.000416095 0.0576032)
(0.000421072 -0.000421072 0.0576297)
(0.000712467 -0.000424907 0.0576882)
(0.000979917 -0.000416462 0.0577825)
(-0.0010002 -0.000143574 0.0577638)
(-0.000709163 -0.000141705 0.0576644)
(-0.000416095 -0.000138894 0.0576032)
(-0.00013622 -0.00013622 0.0575756)
(0.00013622 -0.00013622 0.0575756)
(0.000416095 -0.000138894 0.0576032)
(0.000709163 -0.000141705 0.0576644)
(0.0010002 -0.000143574 0.0577638)
(-0.0010002 0.000143574 0.0577638)
(-0.000709163 0.000141705 0.0576644)
(-0.000416095 0.000138894 0.0576032)
(-0.00013622 0.00013622 0.0575756)
(0.00013622 0.00013622 0.0575756)
(0.000416095 0.000138894 0.0576032)
(0.000709163 0.000141705 0.0576644)
(0.0010002 0.000143574 0.0577638)
(-0.000979917 0.000416462 0.0577825)
(-0.000712467 0.000424907 0.0576882)
(-0.000421072 0.000421072 0.0576297)
(-0.000138894 0.000416095 0.0576032)
(0.000138894 0.000416095 0.0576032)
(0.000421072 0.000421072 0.0576297)
(0.000712467 0.000424907 0.0576882)
(0.000979917 0.000416462 0.0577825)
(-0.000942315 0.0006819 0.0578172)
(-0.000707744 0.000707744 0.0577397)
(-0.000424907 0.000712467 0.0576882)
(-0.000141705 0.000709163 0.0576644)
(0.000141705 0.000709163 0.0576644)
(0.000424907 0.000712467 0.0576882)
(0.000707744 0.000707744 0.0577397)
(0.000942315 0.0006819 0.0578172)
(-0.000875828 0.000875828 0.0578648)
(-0.0006819 0.000942315 0.0578172)
(-0.000416462 0.000979917 0.0577825)
(-0.000143574 0.0010002 0.0577638)
(0.000143574 0.0010002 0.0577638)
(0.000416462 0.000979917 0.0577825)
(0.0006819 0.000942315 0.0578172)
(0.000875828 0.000875828 0.0578648)
(-0.000934962 -0.000934962 0.0594975)
(-0.000710006 -0.00102679 0.0594)
(-0.000441992 -0.00110996 0.0593303)
(-0.000156064 -0.00116032 0.0592906)
(0.000156064 -0.00116032 0.0592906)
(0.000441992 -0.00110996 0.0593303)
(0.000710006 -0.00102679 0.0594)
(0.000934963 -0.000934963 0.0594975)
(-0.00102679 -0.000710006 0.0594)
(-0.000777568 -0.000777568 0.0592409)
(-0.000489738 -0.000830195 0.0591268)
(-0.000169297 -0.000848879 0.0590678)
(0.000169297 -0.000848879 0.0590678)
(0.000489738 -0.000830195 0.0591268)
(0.000777568 -0.000777568 0.0592409)
(0.00102679 -0.000710006 0.0594)
(-0.00110996 -0.000441992 0.0593303)
(-0.000830195 -0.000489738 0.0591268)
(-0.000511969 -0.000511969 0.0589876)
(-0.000173131 -0.000515293 0.0589186)
(0.000173131 -0.000515293 0.0589186)
(0.000511969 -0.000511969 0.0589876)
(0.000830195 -0.000489738 0.0591268)
(0.00110996 -0.000441992 0.0593303)
(-0.00116032 -0.000156064 0.0592906)
(-0.000848879 -0.000169297 0.0590678)
(-0.000515293 -0.000173131 0.0589186)
(-0.000172574 -0.000172574 0.0588463)
(0.000172574 -0.000172574 0.0588463)
(0.000515293 -0.000173131 0.0589186)
(0.000848879 -0.000169297 0.0590678)
(0.00116032 -0.000156064 0.0592906)
(-0.00116032 0.000156064 0.0592906)
(-0.000848879 0.000169297 0.0590678)
(-0.000515293 0.000173131 0.0589186)
(-0.000172574 0.000172574 0.0588463)
(0.000172574 0.000172574 0.0588463)
(0.000515293 0.000173131 0.0589186)
(0.000848879 0.000169297 0.0590678)
(0.00116032 0.000156064 0.0592906)
(-0.00110996 0.000441992 0.0593303)
(-0.000830195 0.000489738 0.0591268)
(-0.000511969 0.000511969 0.0589876)
(-0.000173131 0.000515293 0.0589186)
(0.000173131 0.000515293 0.0589186)
(0.000511969 0.000511969 0.0589876)
(0.000830195 0.000489738 0.0591268)
(0.00110996 0.000441992 0.0593303)
(-0.00102679 0.000710006 0.0594)
(-0.000777568 0.000777568 0.0592409)
(-0.000489738 0.000830195 0.0591268)
(-0.000169297 0.000848879 0.0590678)
(0.000169297 0.000848879 0.0590678)
(0.000489738 0.000830195 0.0591268)
(0.000777568 0.000777568 0.0592409)
(0.00102679 0.000710006 0.0594)
(-0.000934963 0.000934963 0.0594975)
(-0.000710006 0.00102679 0.0594)
(-0.000441992 0.00110996 0.0593303)
(-0.000156064 0.00116032 0.0592906)
(0.000156064 0.00116032 0.0592906)
(0.000441992 0.00110996 0.0593303)
(0.000710006 0.00102679 0.0594)
(0.000934962 0.000934962 0.0594975)
(-0.00083543 -0.00083543 0.0612738)
(-0.000604355 -0.00091877 0.0611615)
(-0.000372383 -0.00100713 0.0610864)
(-0.000128525 -0.00105857 0.0610428)
(0.000128525 -0.00105857 0.0610428)
(0.000372383 -0.00100713 0.0610864)
(0.000604355 -0.00091877 0.0611615)
(0.00083543 -0.00083543 0.0612738)
(-0.00091877 -0.000604355 0.0611615)
(-0.000682226 -0.000682226 0.0609794)
(-0.000425687 -0.000749874 0.0608468)
(-0.000146345 -0.000783282 0.0607738)
(0.000146345 -0.000783282 0.0607738)
(0.000425687 -0.000749874 0.0608468)
(0.000682226 -0.000682226 0.0609794)
(0.00091877 -0.000604355 0.0611615)
(-0.00100713 -0.000372383 0.0610864)
(-0.000749874 -0.000425687 0.0608468)
(-0.000465771 -0.000465771 0.0606757)
(-0.000158798 -0.000483309 0.0605871)
(0.000158798 -0.000483309 0.0605871)
(0.000465771 -0.000465771 0.0606757)
(0.000749874 -0.000425687 0.0608468)
(0.00100713 -0.000372383 0.0610864)
(-0.00105857 -0.000128525 0.0610428)
(-0.000783282 -0.000146345 0.0607738)
(-0.000483309 -0.000158798 0.0605871)
(-0.000163763 -0.000163763 0.060493)
(0.000163763 -0.000163763 0.060493)
(0.000483309 -0.000158798 0.0605871)
(0.000783282 -0.000146345 0.0607738)
(0.00105857 -0.000128525 0.0610428)
(-0.00105857 0.000128525 0.0610428)
(-0.000783282 0.000146345 0.0607738)
(-0.000483309 0.000158798 0.0605871)
(-0.000163763 0.000163763 0.060493)
(0.000163763 0.000163763 0.060493)
(0.000483309 0.000158798 0.0605871)
(0.000783282 0.000146345 0.0607738)
(0.00105857 0.000128525 0.0610428)
(-0.00100713 0.000372383 0.0610864)
(-0.000749874 0.000425687 0.0608468)
(-0.000465771 0.000465771 0.0606757)
(-0.000158798 0.000483309 0.0605871)
(0.000158798 0.000483309 0.0605871)
(0.000465771 0.000465771 0.0606757)
(0.000749874 0.000425687 0.0608468)
(0.00100713 0.000372383 0.0610864)
(-0.00091877 0.000604355 0.0611615)
(-0.000682226 0.000682226 0.0609794)
(-0.000425687 0.000749874 0.0608468)
(-0.000146345 0.000783282 0.0607738)
(0.000146345 0.000783282 0.0607738)
(0.000425687 0.000749874 0.0608468)
(0.000682226 0.000682226 0.0609794)
(0.00091877 0.000604355 0.0611615)
(-0.00083543 0.00083543 0.0612738)
(-0.000604355 0.00091877 0.0611615)
(-0.000372383 0.00100713 0.0610864)
(-0.000128525 0.00105857 0.0610428)
(0.000128525 0.00105857 0.0610428)
(0.000372383 0.00100713 0.0610864)
(0.000604355 0.00091877 0.0611615)
(0.00083543 0.00083543 0.0612738)
(-0.000739515 -0.000739515 0.0628455)
(-0.000526732 -0.000812009 0.0627303)
(-0.00032334 -0.000887684 0.0626552)
(-0.000108203 -0.00092732 0.0626143)
(0.000108203 -0.00092732 0.0626143)
(0.00032334 -0.000887684 0.0626552)
(0.000526732 -0.000812009 0.0627303)
(0.000739515 -0.000739515 0.0628455)
(-0.000812009 -0.000526732 0.0627303)
(-0.000595583 -0.000595583 0.0625439)
(-0.000362154 -0.000651595 0.0624116)
(-0.000121664 -0.000683108 0.0623396)
(0.000121664 -0.000683108 0.0623396)
(0.000362154 -0.000651595 0.0624116)
(0.000595583 -0.000595583 0.0625439)
(0.000812009 -0.000526732 0.0627303)
(-0.000887684 -0.00032334 0.0626552)
(-0.000651595 -0.000362154 0.0624116)
(-0.000399376 -0.000399376 0.0622368)
(-0.000135262 -0.000420617 0.0621446)
(0.000135262 -0.000420617 0.0621446)
(0.000399376 -0.000399376 0.0622368)
(0.000651595 -0.000362154 0.0624116)
(0.000887684 -0.00032334 0.0626552)
(-0.00092732 -0.000108203 0.0626143)
(-0.000683108 -0.000121664 0.0623396)
(-0.000420617 -0.000135262 0.0621446)
(-0.000142496 -0.000142496 0.0620438)
(0.000142496 -0.000142496 0.0620438)
(0.000420617 -0.000135262 0.0621446)
(0.000683108 -0.000121664 0.0623396)
(0.00092732 -0.000108203 0.0626143)
(-0.00092732 0.000108203 0.0626143)
(-0.000683108 0.000121664 0.0623396)
(-0.000420617 0.000135262 0.0621446)
(-0.000142496 0.000142496 0.0620438)
(0.000142496 0.000142496 0.0620438)
(0.000420617 0.000135262 0.0621446)
(0.000683108 0.000121664 0.0623396)
(0.00092732 0.000108203 0.0626143)
(-0.000887684 0.00032334 0.0626552)
(-0.000651595 0.000362154 0.0624116)
(-0.000399376 0.000399376 0.0622368)
(-0.000135262 0.000420617 0.0621446)
(0.000135262 0.000420617 0.0621446)
(0.000399376 0.000399376 0.0622368)
(0.000651595 0.000362154 0.0624116)
(0.000887684 0.00032334 0.0626552)
(-0.000812009 0.000526732 0.0627303)
(-0.000595583 0.000595583 0.0625439)
(-0.000362154 0.000651595 0.0624116)
(-0.000121664 0.000683108 0.0623396)
(0.000121664 0.000683108 0.0623396)
(0.000362154 0.000651595 0.0624116)
(0.000595583 0.000595583 0.0625439)
(0.000812009 0.000526732 0.0627303)
(-0.000739515 0.000739515 0.0628455)
(-0.000526732 0.000812009 0.0627303)
(-0.00032334 0.000887684 0.0626552)
(-0.000108203 0.00092732 0.0626143)
(0.000108203 0.00092732 0.0626143)
(0.00032334 0.000887684 0.0626552)
(0.000526732 0.000812009 0.0627303)
(0.000739515 0.000739515 0.0628455)
(-0.00066734 -0.00066734 0.0642005)
(-0.000478167 -0.000733342 0.0640864)
(-0.000297708 -0.000800837 0.0640119)
(-9.86648e-05 -0.000833095 0.0639738)
(9.86648e-05 -0.000833095 0.0639738)
(0.000297708 -0.000800837 0.0640119)
(0.000478167 -0.000733342 0.0640864)
(0.00066734 -0.00066734 0.0642005)
(-0.000733342 -0.000478167 0.0640864)
(-0.00054204 -0.00054204 0.0639044)
(-0.000328227 -0.000588101 0.0637802)
(-0.000109034 -0.000614068 0.0637156)
(0.000109034 -0.000614068 0.0637156)
(0.000328227 -0.000588101 0.0637802)
(0.00054204 -0.00054204 0.0639044)
(0.000733342 -0.000478167 0.0640864)
(-0.000800837 -0.000297708 0.0640119)
(-0.000588101 -0.000328227 0.0637802)
(-0.000357281 -0.000357281 0.063619)
(-0.000119948 -0.000375308 0.0635354)
(0.000119948 -0.000375308 0.0635354)
(0.000357281 -0.000357281 0.063619)
(0.000588101 -0.000328227 0.0637802)
(0.000800837 -0.000297708 0.0640119)
(-0.000833095 -9.86648e-05 0.0639738)
(-0.000614068 -0.000109034 0.0637156)
(-0.000375308 -0.000119948 0.0635354)
(-0.000126475 -0.000126475 0.0634429)
(0.000126475 -0.000126475 0.0634429)
(0.000375308 -0.000119948 0.0635354)
(0.000614068 -0.000109034 0.0637156)
(0.000833095 -9.86649e-05 0.0639738)
(-0.000833095 9.86648e-05 0.0639738)
(-0.000614068 0.000109034 0.0637156)
(-0.000375308 0.000119948 0.0635354)
(-0.000126475 0.000126475 0.0634429)
(0.000126475 0.000126475 0.0634429)
(0.000375308 0.000119948 0.0635354)
(0.000614068 0.000109034 0.0637156)
(0.000833095 9.86648e-05 0.0639738)
(-0.000800837 0.000297708 0.0640119)
(-0.000588101 0.000328227 0.0637802)
(-0.000357281 0.000357281 0.063619)
(-0.000119948 0.000375308 0.0635354)
(0.000119948 0.000375308 0.0635354)
(0.000357281 0.000357281 0.063619)
(0.000588101 0.000328227 0.0637802)
(0.000800837 0.000297708 0.0640119)
(-0.000733342 0.000478167 0.0640864)
(-0.00054204 0.00054204 0.0639044)
(-0.000328227 0.000588101 0.0637802)
(-0.000109034 0.000614068 0.0637156)
(0.000109034 0.000614068 0.0637156)
(0.000328227 0.000588101 0.0637802)
(0.00054204 0.00054204 0.0639044)
(0.000733342 0.000478167 0.0640864)
(-0.00066734 0.00066734 0.0642005)
(-0.000478167 0.000733342 0.0640864)
(-0.000297708 0.000800837 0.0640119)
(-9.86648e-05 0.000833095 0.0639738)
(9.86648e-05 0.000833095 0.0639738)
(0.000297708 0.000800837 0.0640119)
(0.000478167 0.000733342 0.0640864)
(0.00066734 0.00066734 0.0642005)
(-0.000593719 -0.000593719 0.0653234)
(-0.000426969 -0.000654106 0.0652037)
(-0.000269512 -0.000717559 0.0651219)
(-8.92263e-05 -0.000748354 0.0650801)
(8.92264e-05 -0.000748354 0.0650801)
(0.000269512 -0.000717559 0.0651219)
(0.000426969 -0.000654106 0.0652037)
(0.000593719 -0.000593719 0.0653234)
(-0.000654106 -0.000426969 0.0652037)
(-0.000490282 -0.000490282 0.0650135)
(-0.000300537 -0.000535222 0.0648827)
(-0.000100372 -0.000560719 0.0648154)
(0.000100372 -0.000560719 0.0648154)
(0.000300537 -0.000535222 0.0648827)
(0.000490282 -0.000490282 0.0650135)
(0.000654106 -0.000426969 0.0652037)
(-0.000717559 -0.000269512 0.0651219)
(-0.000535222 -0.000300537 0.0648827)
(-0.000328041 -0.000328041 0.0647168)
(-0.000110397 -0.000344318 0.0646315)
(0.000110397 -0.000344318 0.0646315)
(0.000328041 -0.000328041 0.0647168)
(0.000535222 -0.000300537 0.0648827)
(0.000717559 -0.000269512 0.0651219)
(-0.000748354 -8.92263e-05 0.0650801)
(-0.000560719 -0.000100372 0.0648154)
(-0.000344318 -0.000110397 0.0646315)
(-0.000116056 -0.000116056 0.0645373)
(0.000116056 -0.000116056 0.0645373)
(0.000344318 -0.000110397 0.0646315)
(0.000560719 -0.000100372 0.0648154)
(0.000748354 -8.92263e-05 0.0650801)
(-0.000748354 8.92264e-05 0.0650801)
(-0.000560719 0.000100372 0.0648154)
(-0.000344318 0.000110397 0.0646315)
(-0.000116056 0.000116056 0.0645373)
(0.000116056 0.000116056 0.0645373)
(0.000344318 0.000110397 0.0646315)
(0.000560719 0.000100372 0.0648154)
(0.000748354 8.92264e-05 0.0650801)
(-0.000717559 0.000269512 0.0651219)
(-0.000535222 0.000300537 0.0648827)
(-0.000328041 0.000328041 0.0647168)
(-0.000110397 0.000344318 0.0646315)
(0.000110397 0.000344318 0.0646315)
(0.000328041 0.000328041 0.0647168)
(0.000535222 0.000300537 0.0648827)
(0.000717559 0.000269512 0.0651219)
(-0.000654106 0.000426969 0.0652037)
(-0.000490282 0.000490282 0.0650135)
(-0.000300537 0.000535222 0.0648827)
(-0.000100372 0.000560719 0.0648154)
(0.000100372 0.000560719 0.0648154)
(0.000300537 0.000535222 0.0648827)
(0.000490282 0.000490282 0.0650135)
(0.000654106 0.000426969 0.0652037)
(-0.000593719 0.000593719 0.0653234)
(-0.000426969 0.000654106 0.0652037)
(-0.000269512 0.000717559 0.0651219)
(-8.92263e-05 0.000748354 0.0650801)
(8.92264e-05 0.000748354 0.0650801)
(0.000269512 0.000717559 0.0651219)
(0.000426969 0.000654106 0.0652037)
(0.000593719 0.000593719 0.0653234)
(-0.000515092 -0.000515092 0.0663038)
(-0.000369315 -0.000567674 0.0661849)
(-0.00023389 -0.000624291 0.0661027)
(-7.68463e-05 -0.0006531 0.066061)
(7.68463e-05 -0.0006531 0.066061)
(0.00023389 -0.000624291 0.0661027)
(0.000369315 -0.000567674 0.0661849)
(0.000515092 -0.000515092 0.0663038)
(-0.000567674 -0.000369315 0.0661849)
(-0.000427817 -0.000427817 0.0659969)
(-0.000263609 -0.000470882 0.0658677)
(-8.84039e-05 -0.000497023 0.0658014)
(8.84039e-05 -0.000497023 0.0658014)
(0.000263609 -0.000470882 0.0658677)
(0.000427817 -0.000427817 0.0659969)
(0.000567674 -0.000369315 0.0661849)
(-0.000624291 -0.00023389 0.0661027)
(-0.000470882 -0.000263609 0.0658677)
(-0.000291447 -0.000291447 0.0657052)
(-9.86496e-05 -0.000307922 0.065622)
(9.86496e-05 -0.000307922 0.065622)
(0.000291447 -0.000291447 0.0657052)
(0.000470882 -0.000263609 0.0658677)
(0.000624291 -0.00023389 0.0661027)
(-0.0006531 -7.68463e-05 0.066061)
(-0.000497023 -8.84039e-05 0.0658014)
(-0.000307922 -9.86496e-05 0.065622)
(-0.000104237 -0.000104237 0.0655304)
(0.000104237 -0.000104237 0.0655304)
(0.000307922 -9.86496e-05 0.065622)
(0.000497023 -8.84039e-05 0.0658014)
(0.0006531 -7.68463e-05 0.066061)
(-0.0006531 7.68463e-05 0.066061)
(-0.000497023 8.84039e-05 0.0658014)
(-0.000307922 9.86496e-05 0.065622)
(-0.000104237 0.000104237 0.0655304)
(0.000104237 0.000104237 0.0655304)
(0.000307922 9.86496e-05 0.065622)
(0.000497023 8.84039e-05 0.0658014)
(0.0006531 7.68463e-05 0.066061)
(-0.000624291 0.00023389 0.0661027)
(-0.000470882 0.000263609 0.0658677)
(-0.000291447 0.000291447 0.0657052)
(-9.86496e-05 0.000307922 0.065622)
(9.86496e-05 0.000307922 0.065622)
(0.000291447 0.000291447 0.0657052)
(0.000470882 0.000263609 0.0658677)
(0.000624291 0.00023389 0.0661027)
(-0.000567674 0.000369315 0.0661849)
(-0.000427817 0.000427817 0.0659969)
(-0.000263609 0.000470882 0.0658677)
(-8.84039e-05 0.000497023 0.0658014)
(8.84039e-05 0.000497023 0.0658014)
(0.000263609 0.000470882 0.0658677)
(0.000427817 0.000427817 0.0659969)
(0.000567674 0.000369315 0.0661849)
(-0.000515092 0.000515092 0.0663038)
(-0.000369315 0.000567674 0.0661849)
(-0.00023389 0.000624291 0.0661027)
(-7.68463e-05 0.0006531 0.066061)
(7.68463e-05 0.0006531 0.066061)
(0.00023389 0.000624291 0.0661027)
(0.000369315 0.000567674 0.0661849)
(0.000515092 0.000515092 0.0663038)
(-0.00044977 -0.00044977 0.0671244)
(-0.000321976 -0.000494019 0.0670031)
(-0.000203398 -0.000541602 0.0669174)
(-6.60787e-05 -0.000566353 0.0668738)
(6.60788e-05 -0.000566353 0.0668738)
(0.000203398 -0.000541602 0.0669174)
(0.000321976 -0.000494019 0.0670031)
(0.00044977 -0.00044977 0.0671244)
(-0.000494019 -0.000321976 0.0670031)
(-0.000371583 -0.000371583 0.066812)
(-0.000227708 -0.000408643 0.0666794)
(-7.60857e-05 -0.000433012 0.0666108)
(7.60857e-05 -0.000433012 0.0666108)
(0.000227708 -0.000408643 0.0666794)
(0.000371583 -0.000371583 0.066812)
(0.000494019 -0.000321976 0.0670031)
(-0.000541602 -0.000203398 0.0669174)
(-0.000408643 -0.000227708 0.0666794)
(-0.000252913 -0.000252913 0.066513)
(-8.56825e-05 -0.000268704 0.0664267)
(8.56825e-05 -0.000268704 0.0664267)
(0.000252913 -0.000252913 0.066513)
(0.000408643 -0.000227708 0.0666794)
(0.000541602 -0.000203398 0.0669174)
(-0.000566353 -6.60787e-05 0.0668738)
(-0.000433012 -7.60857e-05 0.0666108)
(-0.000268704 -8.56825e-05 0.0664267)
(-9.10668e-05 -9.10668e-05 0.0663319)
(9.10668e-05 -9.10668e-05 0.0663319)
(0.000268704 -8.56825e-05 0.0664267)
(0.000433012 -7.60857e-05 0.0666108)
(0.000566353 -6.60787e-05 0.0668738)
(-0.000566353 6.60788e-05 0.0668738)
(-0.000433012 7.60857e-05 0.0666108)
(-0.000268704 8.56825e-05 0.0664267)
(-9.10668e-05 9.10668e-05 0.0663319)
(9.10668e-05 9.10668e-05 0.0663319)
(0.000268704 8.56825e-05 0.0664267)
(0.000433012 7.60857e-05 0.0666108)
(0.000566353 6.60788e-05 0.0668738)
(-0.000541602 0.000203398 0.0669174)
(-0.000408643 0.000227708 0.0666794)
(-0.000252913 0.000252913 0.066513)
(-8.56825e-05 0.000268704 0.0664267)
(8.56825e-05 0.000268704 0.0664267)
(0.000252913 0.000252913 0.066513)
(0.000408643 0.000227708 0.0666794)
(0.000541602 0.000203398 0.0669174)
(-0.000494019 0.000321976 0.0670031)
(-0.000371583 0.000371583 0.066812)
(-0.000227708 0.000408643 0.0666794)
(-7.60857e-05 0.000433012 0.0666108)
(7.60857e-05 0.000433012 0.0666108)
(0.000227708 0.000408643 0.0666794)
(0.000371583 0.000371583 0.066812)
(0.000494019 0.000321976 0.0670031)
(-0.00044977 0.00044977 0.0671244)
(-0.000321976 0.000494019 0.0670031)
(-0.000203398 0.000541602 0.0669174)
(-6.60787e-05 0.000566353 0.0668738)
(6.60788e-05 0.000566353 0.0668738)
(0.000203398 0.000541602 0.0669174)
(0.000321976 0.000494019 0.0670031)
(0.00044977 0.00044977 0.0671244)
(-0.000404753 -0.000404753 0.0678709)
(-0.000290849 -0.000442377 0.0677534)
(-0.000183501 -0.000482259 0.0676703)
(-5.9284e-05 -0.000502953 0.0676288)
(5.9284e-05 -0.000502953 0.0676288)
(0.000183501 -0.000482259 0.0676703)
(0.000290849 -0.000442377 0.0677534)
(0.000404753 -0.000404753 0.0678709)
(-0.000442377 -0.000290849 0.0677534)
(-0.000332106 -0.000332106 0.0675703)
(-0.000202198 -0.00036251 0.0674449)
(-6.71029e-05 -0.000383579 0.0673809)
(6.71029e-05 -0.000383579 0.0673809)
(0.000202198 -0.00036251 0.0674449)
(0.000332106 -0.000332106 0.0675703)
(0.000442377 -0.000290849 0.0677534)
(-0.000482259 -0.000183501 0.0676703)
(-0.00036251 -0.000202198 0.0674449)
(-0.00022296 -0.00022296 0.0672893)
(-7.52391e-05 -0.000236878 0.0672092)
(7.52391e-05 -0.000236878 0.0672092)
(0.00022296 -0.00022296 0.0672893)
(0.00036251 -0.000202198 0.0674449)
(0.000482259 -0.000183501 0.0676703)
(-0.000502953 -5.9284e-05 0.0676288)
(-0.000383579 -6.71029e-05 0.0673809)
(-0.000236878 -7.52391e-05 0.0672092)
(-8.00448e-05 -8.00448e-05 0.067121)
(8.00448e-05 -8.00448e-05 0.067121)
(0.000236878 -7.52391e-05 0.0672092)
(0.000383579 -6.71029e-05 0.0673809)
(0.000502953 -5.9284e-05 0.0676288)
(-0.000502953 5.9284e-05 0.0676288)
(-0.000383579 6.71029e-05 0.0673809)
(-0.000236878 7.52391e-05 0.0672092)
(-8.00448e-05 8.00448e-05 0.067121)
(8.00448e-05 8.00448e-05 0.067121)
(0.000236878 7.52391e-05 0.0672092)
(0.000383579 6.71029e-05 0.0673809)
(0.000502953 5.9284e-05 0.0676288)
(-0.000482259 0.000183501 0.0676703)
(-0.00036251 0.000202198 0.0674449)
(-0.00022296 0.00022296 0.0672893)
(-7.52391e-05 0.000236878 0.0672092)
(7.52391e-05 0.000236878 0.0672092)
(0.00022296 0.00022296 0.0672893)
(0.00036251 0.000202198 0.0674449)
(0.000482259 0.000183501 0.0676703)
(-0.000442377 0.000290849 0.0677534)
(-0.000332106 0.000332106 0.0675703)
(-0.000202198 0.00036251 0.0674449)
(-6.71029e-05 0.000383579 0.0673809)
(6.71029e-05 0.000383579 0.0673809)
(0.000202198 0.00036251 0.0674449)
(0.000332106 0.000332106 0.0675703)
(0.000442377 0.000290849 0.0677534)
(-0.000404753 0.000404753 0.0678709)
(-0.000290849 0.000442377 0.0677534)
(-0.000183501 0.000482259 0.0676703)
(-5.9284e-05 0.000502953 0.0676288)
(5.9284e-05 0.000502953 0.0676288)
(0.000183501 0.000482259 0.0676703)
(0.000290849 0.000442377 0.0677534)
(0.000404753 0.000404753 0.0678709)
(-0.000376343 -0.000376343 0.0685209)
(-0.000272349 -0.000409829 0.0684009)
(-0.00017211 -0.000445034 0.0683141)
(-5.57643e-05 -0.00046341 0.0682705)
(5.57643e-05 -0.00046341 0.0682705)
(0.00017211 -0.000445034 0.0683141)
(0.000272349 -0.000409829 0.0684009)
(0.000376343 -0.000376343 0.0685209)
(-0.000409829 -0.000272349 0.0684009)
(-0.000308348 -0.000308348 0.0682147)
(-0.000187857 -0.000334641 0.0680862)
(-6.22221e-05 -0.000353102 0.0680206)
(6.22221e-05 -0.000353102 0.0680206)
(0.000187857 -0.000334641 0.0680862)
(0.000308348 -0.000308348 0.0682147)
(0.000409829 -0.000272349 0.0684009)
(-0.000445034 -0.00017211 0.0683141)
(-0.000334641 -0.000187856 0.0680862)
(-0.000205155 -0.000205155 0.0679285)
(-6.90106e-05 -0.000217197 0.0678472)
(6.90106e-05 -0.000217197 0.0678472)
(0.000205155 -0.000205155 0.0679285)
(0.000334641 -0.000187856 0.0680862)
(0.000445034 -0.00017211 0.0683141)
(-0.00046341 -5.57642e-05 0.0682705)
(-0.000353102 -6.22221e-05 0.0680206)
(-0.000217197 -6.90106e-05 0.0678472)
(-7.31786e-05 -7.31786e-05 0.0677579)
(7.31786e-05 -7.31786e-05 0.0677579)
(0.000217197 -6.90106e-05 0.0678472)
(0.000353102 -6.22221e-05 0.0680206)
(0.00046341 -5.57642e-05 0.0682705)
(-0.00046341 5.57643e-05 0.0682705)
(-0.000353102 6.22221e-05 0.0680206)
(-0.000217197 6.90106e-05 0.0678472)
(-7.31786e-05 7.31786e-05 0.0677579)
(7.31786e-05 7.31786e-05 0.0677579)
(0.000217197 6.90106e-05 0.0678472)
(0.000353102 6.22221e-05 0.0680206)
(0.00046341 5.57643e-05 0.0682705)
(-0.000445034 0.00017211 0.0683141)
(-0.000334641 0.000187857 0.0680862)
(-0.000205155 0.000205155 0.0679285)
(-6.90106e-05 0.000217197 0.0678472)
(6.90106e-05 0.000217197 0.0678472)
(0.000205155 0.000205155 0.0679285)
(0.000334641 0.000187857 0.0680862)
(0.000445034 0.00017211 0.0683141)
(-0.000409829 0.000272349 0.0684009)
(-0.000308348 0.000308348 0.0682147)
(-0.000187857 0.000334641 0.0680862)
(-6.22221e-05 0.000353102 0.0680206)
(6.22221e-05 0.000353102 0.0680206)
(0.000187857 0.000334641 0.0680862)
(0.000308348 0.000308348 0.0682147)
(0.000409829 0.000272349 0.0684009)
(-0.000376343 0.000376343 0.0685209)
(-0.000272349 0.000409829 0.0684009)
(-0.00017211 0.000445034 0.0683141)
(-5.57643e-05 0.00046341 0.0682705)
(5.57643e-05 0.00046341 0.0682705)
(0.00017211 0.000445034 0.0683141)
(0.000272349 0.000409829 0.0684009)
(0.000376343 0.000376343 0.0685209)
(-0.000354781 -0.000354781 0.0691514)
(-0.000258138 -0.000385538 0.0690347)
(-0.000163361 -0.00041784 0.06895)
(-5.32004e-05 -0.000435158 0.0689076)
(5.32003e-05 -0.000435158 0.0689076)
(0.000163361 -0.00041784 0.06895)
(0.000258138 -0.000385538 0.0690347)
(0.000354781 -0.000354781 0.0691514)
(-0.000385538 -0.000258138 0.0690347)
(-0.000290846 -0.000290846 0.0688545)
(-0.000177949 -0.000314995 0.0687309)
(-5.90563e-05 -0.000331932 0.0686685)
(5.90563e-05 -0.000331932 0.0686685)
(0.000177949 -0.000314995 0.0687309)
(0.000290846 -0.000290846 0.0688545)
(0.000385538 -0.000258138 0.0690347)
(-0.00041784 -0.000163361 0.06895)
(-0.000314995 -0.000177949 0.0687309)
(-0.000193225 -0.000193225 0.0685811)
(-6.49563e-05 -0.000203921 0.0685047)
(6.49562e-05 -0.000203921 0.0685047)
(0.000193225 -0.000193225 0.0685811)
(0.000314995 -0.000177949 0.0687309)
(0.00041784 -0.000163361 0.06895)
(-0.000435157 -5.32004e-05 0.0689076)
(-0.000331932 -5.90563e-05 0.0686685)
(-0.000203921 -6.49563e-05 0.0685047)
(-6.86053e-05 -6.86053e-05 0.068421)
(6.86052e-05 -6.86053e-05 0.068421)
(0.000203921 -6.49563e-05 0.0685047)
(0.000331932 -5.90563e-05 0.0686685)
(0.000435157 -5.32004e-05 0.0689076)
(-0.000435157 5.32003e-05 0.0689076)
(-0.000331932 5.90563e-05 0.0686685)
(-0.000203921 6.49563e-05 0.0685047)
(-6.86053e-05 6.86052e-05 0.068421)
(6.86052e-05 6.86052e-05 0.068421)
(0.000203921 6.49562e-05 0.0685047)
(0.000331932 5.90563e-05 0.0686685)
(0.000435157 5.32003e-05 0.0689076)
(-0.00041784 0.000163361 0.06895)
(-0.000314995 0.000177949 0.0687309)
(-0.000193225 0.000193225 0.0685811)
(-6.49563e-05 0.000203921 0.0685047)
(6.49562e-05 0.000203921 0.0685047)
(0.000193225 0.000193225 0.0685811)
(0.000314995 0.000177949 0.0687309)
(0.00041784 0.000163361 0.06895)
(-0.000385538 0.000258138 0.0690347)
(-0.000290846 0.000290846 0.0688545)
(-0.000177949 0.000314995 0.0687309)
(-5.90563e-05 0.000331932 0.0686685)
(5.90563e-05 0.000331932 0.0686685)
(0.000177949 0.000314995 0.0687309)
(0.000290846 0.000290846 0.0688545)
(0.000385538 0.000258138 0.0690347)
(-0.000354781 0.000354781 0.0691514)
(-0.000258138 0.000385538 0.0690347)
(-0.000163361 0.00041784 0.06895)
(-5.32004e-05 0.000435157 0.0689076)
(5.32003e-05 0.000435157 0.0689076)
(0.000163361 0.00041784 0.06895)
(0.000258138 0.000385538 0.0690347)
(0.000354781 0.000354781 0.0691514)
(-0.000337646 -0.000337646 0.0697197)
(-0.000246337 -0.000366149 0.0696)
(-0.000155799 -0.000396293 0.0695113)
(-5.09342e-05 -0.000412878 0.0694662)
(5.09342e-05 -0.000412878 0.0694662)
(0.000155799 -0.000396293 0.0695113)
(0.000246337 -0.000366149 0.0696)
(0.000337646 -0.000337646 0.0697197)
(-0.000366149 -0.000246337 0.0696)
(-0.000276474 -0.000276474 0.0694147)
(-0.000169678 -0.000299254 0.0692855)
(-5.64197e-05 -0.00031529 0.0692197)
(5.64197e-05 -0.00031529 0.0692197)
(0.000169678 -0.000299254 0.0692855)
(0.000276474 -0.000276474 0.0694147)
(0.000366149 -0.000246337 0.0696)
(-0.000396293 -0.000155799 0.0695113)
(-0.000299254 -0.000169678 0.0692855)
(-0.000183814 -0.000183814 0.0691296)
(-6.18202e-05 -0.000193758 0.0690496)
(6.18202e-05 -0.000193758 0.0690496)
(0.000183814 -0.000183814 0.0691296)
(0.000299254 -0.000169678 0.0692855)
(0.000396293 -0.000155799 0.0695113)
(-0.000412878 -5.09342e-05 0.0694662)
(-0.00031529 -5.64197e-05 0.0692197)
(-0.000193758 -6.18202e-05 0.0690496)
(-6.51662e-05 -6.51662e-05 0.0689623)
(6.51662e-05 -6.51662e-05 0.0689623)
(0.000193758 -6.18202e-05 0.0690496)
(0.00031529 -5.64197e-05 0.0692197)
(0.000412878 -5.09342e-05 0.0694662)