/*--------------------------------*- C++ -*----------------------------------*\
  =========                 |
  \\      /  F ield         | OpenFOAM: The Open Source CFD Toolbox
   \\    /   O peration     | Website:  https://openfoam.org
    \\  /    A nd           | Version:  7
     \\/     M anipulation  |
\*---------------------------------------------------------------------------*/
FoamFile
{
    version     2.0;
    format      ascii;
    class       volScalarField;
    location    "200";
    object      epsilon;
}
// * * * * * * * * * * * * * * * * * * * * * * * * * * * * * * * * * * * * * //

dimensions      [0 2 -3 0 0 0 0];

internalField   nonuniform List<scalar> 
32100
(
0.0114746
0.0114746
0.0114746
0.0114746
0.0114746
0.0114746
0.0114746
0.0114746
0.0114746
0.0114747
0.0114746
0.0114733
0.0115614
0.0141723
0.22052
0.011444
0.011444
0.011444
0.0114441
0.0114441
0.0114441
0.011444
0.0114441
0.0114441
0.0114441
0.0114444
0.0114618
0.0117392
0.0185918
0.235271
0.0114136
0.0114136
0.0114136
0.0114136
0.0114136
0.0114136
0.0114136
0.0114136
0.0114136
0.0114137
0.0114161
0.0114713
0.0121037
0.0223516
0.250551
0.0113832
0.0113832
0.0113832
0.0113832
0.0113832
0.0113832
0.0113832
0.0113832
0.0113833
0.0113838
0.0113901
0.0114982
0.0125475
0.0256247
0.266374
0.011353
0.011353
0.011353
0.011353
0.011353
0.011353
0.011353
0.011353
0.0113531
0.0113544
0.0113678
0.0115474
0.0130481
0.0286849
0.282674
0.0113229
0.0113229
0.0113229
0.0113229
0.0113229
0.0113229
0.0113229
0.0113229
0.0113232
0.0113256
0.0113497
0.0116117
0.0135753
0.0314415
0.299532
0.0112929
0.0112929
0.0112929
0.0112929
0.0112929
0.0112929
0.0112929
0.011293
0.0112934
0.0112976
0.0113364
0.0116896
0.0141221
0.034268
0.316885
0.0112631
0.011263
0.011263
0.011263
0.011263
0.0112631
0.0112631
0.0112632
0.0112638
0.0112706
0.0113272
0.0117807
0.014684
0.0371389
0.334729
0.0112333
0.0112333
0.0112333
0.0112333
0.0112333
0.0112333
0.0112334
0.0112335
0.0112346
0.0112446
0.0113237
0.0118839
0.0152574
0.0400303
0.35306
0.0112037
0.0112037
0.0112037
0.0112037
0.0112037
0.0112037
0.0112038
0.011204
0.0112057
0.0112198
0.0113249
0.0119982
0.01584
0.0429302
0.371866
0.0111742
0.0111742
0.0111742
0.0111742
0.0111742
0.0111742
0.0111743
0.0111746
0.0111771
0.0111964
0.0113297
0.0121227
0.0164299
0.0458321
0.391136
0.0111449
0.0111449
0.0111449
0.0111449
0.0111449
0.0111449
0.011145
0.0111454
0.0111489
0.0111743
0.0113388
0.0122564
0.0170259
0.0487356
0.410851
0.0111156
0.0111156
0.0111156
0.0111156
0.0111156
0.0111157
0.0111158
0.0111164
0.0111212
0.0111538
0.0113531
0.0123983
0.0176268
0.0516385
0.430999
0.0110865
0.0110865
0.0110865
0.0110865
0.0110865
0.0110866
0.0110867
0.0110876
0.011094
0.0111349
0.0113718
0.0125478
0.018232
0.0545441
0.451555
0.0110575
0.0110575
0.0110575
0.0110575
0.0110576
0.0110576
0.0110578
0.011059
0.0110673
0.0111177
0.0113946
0.0127038
0.0188407
0.0574514
0.472502
0.0110287
0.0110287
0.0110287
0.0110287
0.0110287
0.0110288
0.0110291
0.0110306
0.0110412
0.0111023
0.0114215
0.0128659
0.0194529
0.0603659
0.493812
0.0109999
0.0109999
0.0109999
0.011
0.011
0.0110001
0.0110004
0.0110025
0.0110156
0.0110887
0.0114522
0.0130334
0.0200678
0.063286
0.515466
0.0109713
0.0109713
0.0109713
0.0109714
0.0109714
0.0109715
0.010972
0.0109746
0.0109908
0.0110769
0.0114867
0.0132056
0.0206856
0.0662186
0.537431
0.0109429
0.0109429
0.0109429
0.0109429
0.0109429
0.010943
0.0109436
0.010947
0.0109666
0.0110668
0.0115246
0.0133821
0.0213054
0.0691599
0.559685
0.0109145
0.0109145
0.0109145
0.0109145
0.0109146
0.0109147
0.0109155
0.0109196
0.0109432
0.0110587
0.0115659
0.0135624
0.0219277
0.0721183
0.582193
0.0108863
0.0108863
0.0108863
0.0108863
0.0108864
0.0108865
0.0108875
0.0108926
0.0109205
0.0110523
0.0116103
0.013746
0.0225516
0.0750874
0.604932
0.0108582
0.0108582
0.0108582
0.0108582
0.0108583
0.0108585
0.0108597
0.0108659
0.0108986
0.0110479
0.0116577
0.0139327
0.0231779
0.078077
0.627861
0.0108302
0.0108302
0.0108302
0.0108302
0.0108303
0.0108306
0.010832
0.0108395
0.0108775
0.0110449
0.0117078
0.014122
0.0238051
0.0810777
0.65096
0.0108023
0.0108023
0.0108023
0.0108024
0.0108024
0.0108028
0.0108045
0.0108135
0.0108573
0.0110444
0.0117605
0.0143138
0.0244343
0.0841011
0.674183
0.0107746
0.0107746
0.0107746
0.0107746
0.0107747
0.0107751
0.0107773
0.0107878
0.0108379
0.0110451
0.0118156
0.0145075
0.0250641
0.0871345
0.697512
0.0107469
0.0107469
0.0107469
0.010747
0.0107471
0.0107476
0.0107502
0.0107626
0.0108193
0.0110471
0.011873
0.0147031
0.0256956
0.0901916
0.720897
0.0107194
0.0107194
0.0107194
0.0107195
0.0107196
0.0107202
0.0107233
0.0107377
0.0108017
0.0110511
0.0119324
0.0149002
0.026327
0.0932559
0.744321
0.010692
0.010692
0.0106921
0.0106921
0.0106923
0.010693
0.0106966
0.0107133
0.0107849
0.0110566
0.0119938
0.0150988
0.02696
0.0963442
0.767733
0.0106648
0.0106648
0.0106648
0.0106648
0.010665
0.0106659
0.0106701
0.0106892
0.0107689
0.0110637
0.012057
0.0152984
0.0275921
0.0994355
0.791118
0.0106376
0.0106376
0.0106376
0.0106377
0.0106379
0.010639
0.0106439
0.0106656
0.0107539
0.0110722
0.0121218
0.0154991
0.0282255
0.10255
0.814422
0.0106106
0.0106106
0.0106106
0.0106107
0.0106109
0.0106122
0.0106179
0.0106425
0.0107397
0.0110821
0.0121882
0.0157005
0.0288572
0.105662
0.837635
0.0105836
0.0105836
0.0105837
0.0105837
0.0105841
0.0105855
0.0105921
0.0106198
0.0107264
0.0110934
0.0122559
0.0159026
0.0294899
0.108797
0.8607
0.0105568
0.0105568
0.0105568
0.0105569
0.0105573
0.010559
0.0105666
0.0105975
0.010714
0.0111059
0.012325
0.016105
0.0301199
0.111923
0.883611
0.0105301
0.0105301
0.0105301
0.0105303
0.0105307
0.0105327
0.0105413
0.0105758
0.0107025
0.0111197
0.0123952
0.0163079
0.0307507
0.115069
0.90631
0.0105035
0.0105035
0.0105036
0.0105037
0.0105042
0.0105065
0.0105162
0.0105545
0.0106917
0.0111346
0.0124664
0.0165107
0.0313778
0.1182
0.928798
0.0104771
0.0104771
0.0104771
0.0104772
0.0104779
0.0104805
0.0104915
0.0105337
0.0106818
0.0111507
0.0125386
0.0167138
0.0320053
0.121349
0.95101
0.0104507
0.0104507
0.0104507
0.0104509
0.0104516
0.0104546
0.010467
0.0105134
0.0106728
0.0111678
0.0126116
0.0169165
0.0326281
0.124475
0.972958
0.0104244
0.0104244
0.0104245
0.0104247
0.0104255
0.0104289
0.0104427
0.0104936
0.0106645
0.0111859
0.0126854
0.0171191
0.0332509
0.127618
0.994574
0.0103983
0.0103983
0.0103983
0.0103986
0.0103995
0.0104034
0.0104188
0.0104742
0.010657
0.0112049
0.0127598
0.0173212
0.033868
0.130729
1.01588
0.0103723
0.0103723
0.0103723
0.0103726
0.0103737
0.0103781
0.0103951
0.0104554
0.0106502
0.0112249
0.0128348
0.0175229
0.0344846
0.133856
1.03679
0.0103463
0.0103463
0.0103464
0.0103467
0.0103479
0.0103529
0.0103717
0.010437
0.0106443
0.0112457
0.0129103
0.0177238
0.0350944
0.136943
1.05736
0.0103205
0.0103205
0.0103206
0.0103209
0.0103224
0.0103279
0.0103486
0.0104192
0.010639
0.0112673
0.0129862
0.0179241
0.0357033
0.140043
1.07749
0.0102948
0.0102948
0.0102949
0.0102953
0.0102969
0.0103031
0.0103258
0.0104018
0.0106344
0.0112896
0.0130625
0.0181233
0.0363044
0.143096
1.09723
0.0102692
0.0102692
0.0102693
0.0102698
0.0102716
0.0102785
0.0103033
0.0103849
0.0106305
0.0113126
0.013139
0.0183218
0.0369041
0.146161
1.11649
0.0102437
0.0102437
0.0102438
0.0102443
0.0102464
0.0102541
0.0102811
0.0103685
0.0106273
0.0113362
0.0132156
0.0185188
0.0374951
0.149171
1.13534
0.0102183
0.0102183
0.0102184
0.010219
0.0102213
0.0102298
0.0102592
0.0103525
0.0106247
0.0113605
0.0132925
0.0187149
0.038084
0.152191
1.15367
0.010193
0.010193
0.0101932
0.0101938
0.0101964
0.0102058
0.0102376
0.0103371
0.0106227
0.0113853
0.0133693
0.0189094
0.0386634
0.15515
1.17156
0.0101678
0.0101678
0.010168
0.0101688
0.0101716
0.0101819
0.0102163
0.0103221
0.0106214
0.0114106
0.0134461
0.0191027
0.0392402
0.158117
1.18891
0.0101427
0.0101427
0.0101429
0.0101438
0.010147
0.0101583
0.0101953
0.0103075
0.0106204
0.0114363
0.0135229
0.0192942
0.0398068
0.161018
1.20581
0.0101177
0.0101178
0.010118
0.010119
0.0101225
0.0101348
0.0101746
0.0102934
0.0106203
0.0114625
0.0135995
0.0194843
0.0403701
0.163925
1.22213
0.0100928
0.0100929
0.0100931
0.0100942
0.0100982
0.0101115
0.0101542
0.0102798
0.0106206
0.0114891
0.013676
0.0196724
0.0409226
0.166763
1.238
0.010068
0.0100681
0.0100684
0.0100696
0.010074
0.0100885
0.0101342
0.0102665
0.0106212
0.011516
0.0137521
0.0198589
0.0414711
0.169602
1.25326
0.0100434
0.0100434
0.0100438
0.0100451
0.0100499
0.0100657
0.0101144
0.0102537
0.0106224
0.0115432
0.013828
0.0200432
0.0420086
0.172372
1.26808
0.0100188
0.0100189
0.0100193
0.0100208
0.010026
0.010043
0.0100949
0.0102414
0.0106241
0.0115707
0.0139036
0.0202257
0.042541
0.175138
1.28228
0.00999429
0.00999439
0.00999483
0.00999651
0.0100022
0.0100206
0.0100758
0.0102294
0.0106262
0.0115984
0.0139787
0.0204059
0.0430625
0.177838
1.29603
0.0099699
0.00997002
0.00997052
0.00997238
0.00997859
0.00999835
0.0100569
0.0102178
0.0106287
0.0116263
0.0140534
0.020584
0.0435779
0.180526
1.30915
0.00994562
0.00994575
0.00994631
0.00994836
0.00995513
0.00997634
0.0100384
0.0102067
0.0106316
0.0116544
0.0141276
0.0207598
0.0440828
0.183154
1.32185
0.00992143
0.00992158
0.00992221
0.00992446
0.00993181
0.00995453
0.0100201
0.0101959
0.0106349
0.0116826
0.0142012
0.0209333
0.0445802
0.185759
1.33389
0.00989735
0.00989751
0.00989821
0.00990069
0.00990864
0.00993294
0.0100022
0.0101854
0.0106385
0.0117109
0.0142743
0.0211043
0.0450678
0.188316
1.34553
0.00987336
0.00987354
0.00987432
0.00987703
0.00988563
0.00991156
0.00998452
0.0101754
0.0106425
0.0117393
0.0143467
0.0212729
0.0455466
0.190834
1.35651
0.00984946
0.00984968
0.00985054
0.00985349
0.00986277
0.00989039
0.00996715
0.0101657
0.0106468
0.0117677
0.0144185
0.0214389
0.0460164
0.193324
1.36713
0.00982567
0.0098259
0.00982686
0.00983008
0.00984007
0.00986943
0.00995007
0.0101563
0.0106513
0.0117961
0.0144896
0.0216024
0.0464762
0.19575
1.37706
0.00980197
0.00980223
0.00980329
0.00980679
0.00981752
0.00984869
0.00993326
0.0101472
0.0106561
0.0118246
0.0145599
0.021763
0.0469279
0.198178
1.38667
0.00977836
0.00977866
0.00977982
0.00978362
0.00979513
0.00982815
0.00991674
0.0101385
0.0106612
0.0118529
0.0146296
0.0219212
0.0473684
0.200509
1.39558
0.00975485
0.00975518
0.00975645
0.00976057
0.00977289
0.00980783
0.00990049
0.0101301
0.0106665
0.0118812
0.0146983
0.0220763
0.0478019
0.202882
1.40422
0.00973144
0.00973181
0.0097332
0.00973764
0.00975081
0.00978771
0.00988452
0.010122
0.010672
0.0119095
0.0147663
0.022229
0.0482232
0.205112
1.41214
0.00970812
0.00970853
0.00971005
0.00971484
0.00972889
0.00976781
0.00986881
0.0101142
0.0106778
0.0119375
0.0148333
0.0223783
0.0486381
0.207443
1.41985
0.00968489
0.00968534
0.009687
0.00969217
0.00970713
0.00974811
0.00985337
0.0101066
0.0106837
0.0119655
0.0148996
0.0225257
0.0490408
0.209567
1.42681
0.00966176
0.00966226
0.00966406
0.00966961
0.00968552
0.00972863
0.00983818
0.0100993
0.0106897
0.0119933
0.0149648
0.0226688
0.049437
0.211871
1.43363
0.00963873
0.00963927
0.00964122
0.00964718
0.00966407
0.00970935
0.00982325
0.0100923
0.0106959
0.012021
0.0150293
0.0228108
0.049822
0.213882
1.43967
0.00961578
0.00961637
0.0096185
0.00962488
0.00964278
0.00969027
0.00980856
0.0100855
0.0107022
0.0120483
0.0150924
0.0229477
0.0501996
0.216182
1.44564
0.00959293
0.00959357
0.00959587
0.0096027
0.00962165
0.0096714
0.00979413
0.010079
0.0107087
0.0120756
0.0151552
0.0230845
0.0505683
0.218073
1.45081
0.00957017
0.00957087
0.00957335
0.00958064
0.00960067
0.00965272
0.00977992
0.0100726
0.0107152
0.0121025
0.0152162
0.0232149
0.0509274
0.220399
1.45598
0.00954749
0.00954826
0.00955093
0.00955871
0.00957985
0.00963425
0.00976596
0.0100666
0.0107219
0.0121294
0.0152772
0.0233467
0.0512823
0.222171
1.46032
0.00952491
0.00952575
0.00952862
0.0095369
0.00955918
0.00961597
0.0097522
0.0100606
0.0107285
0.0121556
0.0153359
0.0234705
0.0516232
0.224559
1.46468
0.00950242
0.00950332
0.00950641
0.00951521
0.00953868
0.0095979
0.0097387
0.010055
0.0107354
0.0121821
0.0153952
0.0235977
0.0519683
0.22624
1.46829
0.00948001
0.00948099
0.00948431
0.00949365
0.00951832
0.00957999
0.00972537
0.0100494
0.010742
0.0122076
0.0154515
0.0237147
0.0522915
0.228735
1.472
0.00945769
0.00945874
0.00946229
0.0094722
0.00949811
0.0095623
0.00971231
0.0100441
0.0107491
0.0122337
0.0155092
0.0238381
0.0526346
0.230486
1.47422
0.00943546
0.0094366
0.00944039
0.00945088
0.00947805
0.00954476
0.00969934
0.0100388
0.0107556
0.0122581
0.0155627
0.0239479
0.0529331
0.233832
1.47901
0.0094133
0.00941452
0.00941857
0.00942967
0.00945815
0.00952745
0.00968672
0.010034
0.0107629
0.012284
0.0156191
0.0240695
0.0533414
0.236115
1.48344
0.00934782
0.00934932
0.00935416
0.00936708
0.00939944
0.00947633
0.00964913
0.0100184
0.0107808
0.0123521
0.0157679
0.0243693
0.0539208
0.238643
2.0325
0.00924068
0.00924273
0.00924915
0.00926562
0.00930525
0.00939576
0.00959197
0.00999833
0.0108163
0.0124695
0.016013
0.0248744
0.0563916
0.31394
3.43931
0.00913575
0.00913847
0.00914671
0.00916708
0.00921429
0.00931826
0.00953628
0.00997494
0.0108372
0.0125478
0.0161648
0.0251666
0.0587723
0.374025
3.78877
0.00903257
0.00903604
0.00904638
0.00907108
0.00912639
0.0092443
0.00948435
0.00995534
0.0108626
0.0126351
0.0163492
0.0257249
0.0649044
0.512492
4.25641
0.00893187
0.00893624
0.00894891
0.00897824
0.00904183
0.00917329
0.00943363
0.00993229
0.0108738
0.0126859
0.0164642
0.0262443
0.0728569
0.667373
4.40393
0.00883297
0.00883831
0.00885352
0.00888775
0.00895987
0.00910493
0.00938518
0.00991102
0.0108887
0.0127544
0.0166605
0.0273709
0.089063
0.876085
4.3723
0.00873669
0.00874313
0.00876109
0.00880045
0.00888111
0.00903915
0.00933756
0.00988662
0.0108914
0.0127894
0.0168142
0.0287328
0.113058
1.10957
4.23443
0.00864215
0.00864973
0.00867055
0.00871513
0.00880433
0.00897513
0.00929102
0.00986251
0.0108975
0.0128613
0.0171751
0.0317026
0.15276
1.33711
3.96436
0.00855028
0.00855912
0.00858299
0.00863297
0.0087306
0.00891342
0.00924515
0.00983659
0.010899
0.0129186
0.0175434
0.0353451
0.206486
1.55539
3.66664
0.00846007
0.00847017
0.00849709
0.00855238
0.00865821
0.00885268
0.00919984
0.00981143
0.0109067
0.0130293
0.0182857
0.0423564
0.284354
1.74201
3.37791
0.00837254
0.008384
0.00841415
0.00847488
0.0085888
0.00879424
0.00915537
0.00978564
0.0109169
0.0131759
0.0192718
0.0518248
0.379925
1.87967
3.12156
0.00828657
0.00829935
0.0083326
0.00839852
0.00852008
0.008736
0.00911132
0.00976356
0.0109454
0.0134096
0.0208624
0.0675206
0.497163
1.96279
2.90284
0.00820324
0.00821743
0.00825395
0.00832518
0.00845438
0.00868052
0.00906947
0.00974394
0.0109882
0.0137533
0.0232333
0.08984
0.622721
1.99197
2.71532
0.00812133
0.00813686
0.00817643
0.00825258
0.00838884
0.00862463
0.00902792
0.00973218
0.0110738
0.0142676
0.026713
0.121963
0.751463
1.98371
2.55315
0.00804202
0.00805895
0.00810171
0.00818296
0.00832646
0.00857232
0.00899173
0.00973389
0.0111911
0.0150014
0.0319224
0.165619
0.875708
1.95605
2.41187
0.00796398
0.0079822
0.00802788
0.00811377
0.00826392
0.00851974
0.00895802
0.00974992
0.0113936
0.0160923
0.0395676
0.221853
0.985796
1.90588
2.28354
0.00788845
0.00790804
0.00795681
0.00804759
0.008205
0.00847228
0.00893253
0.00977998
0.0116581
0.0176176
0.0507668
0.289607
1.07454
1.85152
2.16688
0.00781403
0.00783485
0.0078864
0.00798166
0.00814591
0.00842474
0.00891119
0.00985002
0.0120752
0.0198722
0.0667615
0.366423
1.14104
1.79675
2.061
0.00774205
0.0077642
0.00781875
0.00791891
0.00809093
0.00838446
0.00890951
0.00995105
0.0126291
0.0230319
0.0888868
0.447355
1.18712
1.74356
1.96508
0.00767102
0.00769434
0.00775157
0.00785629
0.00803638
0.00834756
0.00891937
0.0101198
0.0134492
0.027638
0.118369
0.52902
1.21448
1.69141
1.87786
0.00760236
0.00762699
0.00768728
0.00779741
0.00798751
0.00831995
0.00894456
0.010346
0.0145516
0.0341235
0.155985
0.606789
1.22903
1.6407
1.79827
0.00753453
0.00756032
0.00762341
0.0077388
0.00793931
0.00829666
0.00900257
0.0106832
0.0161432
0.0433913
0.201221
0.676085
1.23309
1.59105
1.72515
0.00746902
0.0074962
0.00756266
0.00768449
0.00789867
0.00829268
0.00909472
0.0111375
0.0183273
0.0561463
0.252886
0.735238
1.23138
1.54297
1.65759
0.00740431
0.00743272
0.00750234
0.00763106
0.00786199
0.00830008
0.00923794
0.0117804
0.0214325
0.0734435
0.308389
0.78402
1.22626
1.49736
1.59518
0.00734185
0.00737187
0.00744572
0.00758366
0.00783542
0.00832551
0.00943836
0.0126502
0.0257286
0.0959062
0.365665
0.822231
1.21621
1.45355
1.53723
0.00728034
0.00731188
0.00738992
0.00753738
0.00781278
0.0083753
0.00972376
0.0138595
0.0317606
0.124062
0.421846
0.851669
1.20338
1.41167
1.48328
0.00722109
0.00725465
0.00733825
0.00749894
0.00780992
0.00846016
0.0101113
0.0155126
0.0400212
0.157519
0.474519
0.873977
1.18839
1.37168
1.43291
0.00716306
0.00719868
0.00728839
0.00746506
0.00781763
0.00859051
0.0106476
0.0178016
0.051218
0.195502
0.522249
0.890471
1.17178
1.33346
1.38577
0.00710739
0.00714588
0.00724415
0.00744122
0.0078427
0.00877081
0.0113692
0.02094
0.0658929
0.236534
0.564252
0.902302
1.15413
1.29699
1.34155
0.00705358
0.00709527
0.00720241
0.00742167
0.00789174
0.0090269
0.0123584
0.0252669
0.0846068
0.279229
0.600272
0.909911
1.13565
1.2621
1.29996
0.00700244
0.00704793
0.00716767
0.00742373
0.00797329
0.00936977
0.013691
0.03115
0.10744
0.321778
0.630985
0.914383
1.11687
1.22883
1.26079
0.00695357
0.00700456
0.00714029
0.00743247
0.00809782
0.00984386
0.0155198
0.039089
0.134248
0.362735
0.656704
0.915318
1.09759
1.19697
1.22381
0.00690915
0.00696594
0.00711939
0.00746297
0.0082685
0.0104736
0.0179907
0.0495076
0.164209
0.401099
0.678191
0.9144
1.07824
1.16647
1.18881
0.00686683
0.00693169
0.00711109
0.0075153
0.00850916
0.0113331
0.0213702
0.0629053
0.196632
0.436134
0.696012
0.911829
1.05911
1.13733
1.15566
0.00683154
0.00690652
0.00711634
0.00760028
0.00883056
0.012479
0.0259184
0.079486
0.2303
0.467672
0.710357
0.907146
1.03996
1.1094
1.12421
0.00679956
0.00688647
0.00713263
0.00772587
0.00927096
0.01404
0.0320299
0.0993438
0.264119
0.495765
0.721673
0.901185
1.02098
1.0826
1.0943
0.00677686
0.00687948
0.00717125
0.00789885
0.00985588
0.0161336
0.0400359
0.122091
0.297132
0.520595
0.730336
0.894128
1.00222
1.05688
1.06582
0.00676001
0.00688417
0.00723752
0.00813874
0.0106464
0.0189741
0.0503568
0.147324
0.328576
0.542364
0.736716
0.886183
0.983745
1.03216
1.03866
0.00675916
0.00690263
0.00733601
0.00846199
0.0117011
0.0227752
0.0632161
0.174283
0.35801
0.56124
0.741056
0.877475
0.965562
1.00839
1.01271
0.00676539
0.00693912
0.00747565
0.00889797
0.0131243
0.0278503
0.0787853
0.202179
0.38523
0.577477
0.743703
0.868198
0.947715
0.985526
0.987911
0.00678732
0.0070037
0.00766944
0.00948099
0.0150328
0.0344902
0.0968913
0.230231
0.410172
0.591266
0.744673
0.858404
0.930209
0.963507
0.964163
0.00682949
0.00709908
0.00793306
0.0102615
0.0176009
0.0430336
0.117309
0.257756
0.4328
0.60279
0.744324
0.848163
0.913009
0.942266
0.941421
0.00689971
0.00723436
0.00828863
0.011308
0.021033
0.053715
0.139543
0.284275
0.453195
0.612434
0.743129
0.837761
0.896207
0.921784
0.919607
0.00700336
0.00742248
0.00876523
0.0127111
0.0255857
0.0666982
0.16301
0.309472
0.471414
0.620236
0.740675
0.827075
0.879754
0.902014
0.898649
0.00714705
0.00767692
0.00940331
0.0145972
0.0315375
0.0819261
0.1871
0.333157
0.487574
0.626401
0.73734
0.816198
0.863647
0.882911
0.878488
0.00734698
0.00802166
0.0102585
0.0171245
0.0391634
0.0992576
0.211238
0.355195
0.501779
0.631083
0.733239
0.805181
0.847875
0.864433
0.859067
0.00761453
0.00848159
0.0114059
0.0205009
0.0487058
0.118339
0.234981
0.37554
0.514195
0.634475
0.728501
0.794094
0.832448
0.84655
0.840344
0.00797782
0.00910112
0.0129502
0.0249631
0.0602813
0.138724
0.257993
0.394153
0.524885
0.636634
0.723142
0.782929
0.817338
0.82922
0.822269
0.00846063
0.00992925
0.0150265
0.0307783
0.0739136
0.159921
0.28003
0.411102
0.534083
0.637815
0.717354
0.771782
0.802567
0.812424
0.804806
0.00911266
0.0110485
0.0178171
0.038203
0.0894582
0.181458
0.300907
0.426378
0.541722
0.637774
0.710991
0.760579
0.788089
0.79612
0.787914
0.00998572
0.0125567
0.0215383
0.0474417
0.106645
0.202947
0.320501
0.440072
0.548107
0.637208
0.704345
0.749408
0.773907
0.780278
0.771552
0.0111717
0.0146039
0.0264499
0.0586109
0.125096
0.224061
0.338758
0.452283
0.553316
0.635835
0.69741
0.7383
0.760026
0.764878
0.755689
0.0127819
0.0173718
0.0328159
0.0717056
0.144403
0.24453
0.355622
0.463037
0.557339
0.633619
0.690127
0.727214
0.746413
0.749887
0.740289
0.0149906
0.0211088
0.040884
0.0865816
0.16417
0.264163
0.371111
0.472456
0.560347
0.630814
0.682596
0.716177
0.733057
0.735276
0.725317
0.0180217
0.0260944
0.0508263
0.102966
0.184037
0.282794
0.385192
0.480538
0.562329
0.627384
0.674802
0.705165
0.719928
0.721008
0.710731
0.0221851
0.0326476
0.0627168
0.120524
0.203691
0.300329
0.397946
0.487483
0.563535
0.623506
0.666845
0.69422
0.707029
0.707067
0.696505
0.0278551
0.0410604
0.0764798
0.138881
0.222869
0.316683
0.409343
0.493161
0.563636
0.619008
0.658647
0.683297
0.694325
0.693436
0.6826
0.0354556
0.0515658
0.0919234
0.157672
0.241352
0.331794
0.419437
0.497802
0.563225
0.614117
0.650269
0.672399
0.681793
0.680066
0.66899
0.0453814
0.0642748
0.108753
0.176553
0.258969
0.345652
0.428311
0.501482
0.562132
0.608863
0.641758
0.661542
0.669425
0.666931
0.655645
0.0579077
0.0791496
0.126628
0.195218
0.275577
0.35822
0.435945
0.504115
0.560188
0.603141
0.633057
0.650688
0.657188
0.653995
0.642528
0.0730757
0.0959839
0.145181
0.2134
0.291063
0.369494
0.442404
0.505827
0.557621
0.597023
0.62418
0.639829
0.645061
0.641232
0.629611
0.0906688
0.114441
0.164063
0.230882
0.305343
0.379464
0.447677
0.506537
0.554397
0.59052
0.61513
0.628953
0.633021
0.628614
0.616864
0.1102
0.134052
0.182926
0.247475
0.318337
0.388096
0.451759
0.506335
0.550501
0.583599
0.605874
0.618028
0.621036
0.616109
0.604254
0.131036
0.154305
0.201464
0.263039
0.330009
0.395441
0.45481
0.505498
0.546096
0.576328
0.596424
0.607038
0.609078
0.603684
0.59175
0.152461
0.174649
0.219368
0.277451
0.340339
0.401519
0.456781
0.5037
0.541075
0.568679
0.586771
0.595972
0.597131
0.591318
0.579326
0.173793
0.194574
0.236379
0.290627
0.349312
0.406276
0.457531
0.500986
0.535426
0.560637
0.5769
0.584813
0.585172
0.578988
0.566969
0.194432
0.213625
0.25225
0.302463
0.35688
0.409723
0.45723
0.497408
0.529124
0.552153
0.566762
0.573518
0.573173
0.566656
0.55464
0.213886
0.231422
0.266777
0.312917
0.363139
0.412069
0.456135
0.493139
0.522273
0.543274
0.55637
0.56208
0.561117
0.554311
0.542325
0.231804
0.247701
0.279835
0.321979
0.368095
0.41318
0.453869
0.488047
0.514835
0.533989
0.545714
0.550489
0.548984
0.54194
0.530008
0.247936
0.262255
0.291279
0.329538
0.371642
0.412999
0.45054
0.482107
0.506767
0.524262
0.534764
0.538715
0.536747
0.529521
0.517673
0.262114
0.274955
0.301062
0.335678
0.374056
0.412046
0.446451
0.475488
0.498152
0.514125
0.52353
0.526759
0.5244
0.517044
0.505311
0.27433
0.285814
0.309231
0.340449
0.375278
0.409953
0.441509
0.468192
0.489004
0.503587
0.512009
0.514609
0.511931
0.504499
0.492912
0.284512
0.294746
0.315666
0.343688
0.375134
0.406757
0.435708
0.460234
0.479352
0.492672
0.500218
0.502276
0.499343
0.491883
0.480475
0.292782
0.301899
0.320587
0.345758
0.374217
0.40282
0.429225
0.451699
0.469239
0.481405
0.488169
0.489762
0.486636
0.479197
0.467998
0.299181
0.307287
0.323935
0.346447
0.372127
0.398058
0.422112
0.442667
0.458732
0.469837
0.475897
0.477093
0.473824
0.466448
0.455488
0.303849
0.311053
0.325876
0.346003
0.369029
0.392507
0.414395
0.433175
0.447875
0.458005
0.463432
0.464289
0.460926
0.45365
0.442956
0.306891
0.313292
0.326479
0.344582
0.36518
0.386344
0.406197
0.42331
0.436737
0.445964
0.450819
0.451386
0.447966
0.440822
0.430416
0.308484
0.314161
0.325932
0.34199
0.360492
0.379576
0.397563
0.413132
0.425375
0.433766
0.4381
0.438417
0.434972
0.427987
0.417887
0.308652
0.313791
0.324329
0.338589
0.355142
0.37231
0.388574
0.402712
0.413851
0.421466
0.425323
0.425424
0.421978
0.415172
0.405394
0.307964
0.312473
0.321673
0.334383
0.34919
0.364617
0.379299
0.392111
0.402224
0.409117
0.412536
0.412449
0.409019
0.402407
0.39296
0.30605
0.30996
0.318155
0.329485
0.342721
0.356568
0.369803
0.381391
0.390551
0.396772
0.399787
0.399534
0.396134
0.389724
0.380614
0.303051
0.306575
0.313881
0.323982
0.335813
0.348232
0.360146
0.370607
0.378884
0.384481
0.38712
0.386719
0.383359
0.377156
0.368384
0.299322
0.302464
0.308968
0.317972
0.328543
0.339674
0.350384
0.359811
0.367271
0.372287
0.374577
0.374043
0.370729
0.364735
0.3563
0.294936
0.297733
0.303522
0.311545
0.320987
0.330956
0.340572
0.349049
0.355755
0.360231
0.362198
0.361542
0.358279
0.352492
0.344391
0.289994
0.292483
0.297633
0.304783
0.313213
0.322133
0.330755
0.338364
0.344374
0.34835
0.350015
0.349247
0.346038
0.340455
0.332684
0.284584
0.286801
0.291387
0.297759
0.305283
0.313258
0.320978
0.327793
0.333162
0.336675
0.33806
0.337189
0.334035
0.328653
0.321204
0.2788
0.280776
0.28486
0.290538
0.297251
0.304375
0.311277
0.317368
0.322148
0.325232
0.326357
0.325392
0.322294
0.317109
0.309976
0.272725
0.274485
0.278122
0.283182
0.289167
0.295525
0.301686
0.307116
0.311356
0.314043
0.314928
0.313878
0.310838
0.305845
0.299023
0.266427
0.267995
0.271234
0.27574
0.281074
0.286741
0.292231
0.297059
0.300803
0.303127
0.30379
0.302664
0.299684
0.294882
0.288364
0.259969
0.261365
0.264247
0.268258
0.273008
0.278053
0.282935
0.287216
0.290507
0.292497
0.292958
0.291765
0.288848
0.284235
0.278019
0.253403
0.254643
0.257207
0.260775
0.264998
0.269483
0.273816
0.277599
0.280477
0.282162
0.28244
0.281191
0.278343
0.273919
0.268003
0.246772
0.247872
0.25015
0.25332
0.257072
0.261051
0.264887
0.268218
0.270721
0.27213
0.272245
0.270952
0.268179
0.263947
0.258331
0.240113
0.241086
0.243106
0.245918
0.249245
0.25277
0.256156
0.259079
0.261242
0.262402
0.262375
0.261051
0.258362
0.254327
0.249013
0.233457
0.234314
0.2361
0.238591
0.241535
0.244649
0.24763
0.250184
0.252043
0.252982
0.252833
0.251494
0.2489
0.245068
0.240061
0.226829
0.227579
0.229153
0.231352
0.233951
0.236694
0.239311
0.241534
0.24312
0.243867
0.243619
0.242281
0.239795
0.236176
0.231481
0.220258
0.220906
0.222284
0.224216
0.226501
0.228911
0.231199
0.233127
0.234474
0.235054
0.234732
0.233414
0.23105
0.227655
0.22328
0.213773
0.214321
0.215512
0.217197
0.219196
0.221303
0.223297
0.224962
0.226099
0.226543
0.226169
0.224892
0.222668
0.219509
0.215463
0.207421
0.20787
0.208875
0.210322
0.212054
0.213882
0.21561
0.217042
0.218
0.218334
0.217933
0.216718
0.214652
0.211745
0.208038
0.201278
0.201619
0.202427
0.203636
0.205107
0.206674
0.208158
0.209382
0.210187
0.210436
0.210033
0.208903
0.207014
0.204373
0.201019
0.195457
0.195675
0.196257
0.197207
0.198412
0.199721
0.200973
0.202009
0.202682
0.202871
0.202488
0.201467
0.199775
0.197421
0.194434
0.190225
0.190289
0.190581
0.191215
0.192114
0.193142
0.194154
0.195002
0.195555
0.1957
0.195358
0.194465
0.192993
0.190944
0.188343
0.185937
0.185813
0.185727
0.185962
0.18648
0.187175
0.18791
0.188551
0.188974
0.189075
0.188781
0.188031
0.186794
0.185068
0.18287
0.182058
0.181771
0.181435
0.181284
0.181455
0.181834
0.182307
0.182747
0.183052
0.183126
0.182896
0.182301
0.181312
0.179927
0.178153
0.181483
0.180832
0.17949
0.178442
0.177786
0.1775
0.177518
0.177807
0.177973
0.178002
0.177848
0.177459
0.176797
0.17583
0.174518
0.183696
0.182752
0.180786
0.179075
0.17785
0.17705
0.17655
0.17617
0.175967
0.175833
0.175686
0.175461
0.175111
0.174601
0.173906
0.191227
0.189902
0.186951
0.184102
0.181766
0.180001
0.178741
0.177885
0.177348
0.177026
0.176804
0.176605
0.176379
0.176101
0.175787
0.206081
0.204567
0.200854
0.196958
0.193382
0.190365
0.187954
0.186121
0.184795
0.18389
0.183316
0.182997
0.182874
0.182903
0.183015
0.226691
0.225188
0.221109
0.216668
0.212455
0.208707
0.20551
0.202876
0.200775
0.199154
0.19795
0.197097
0.196534
0.1962
0.196034
0.249604
0.248263
0.244227
0.239675
0.235189
0.23102
0.227279
0.224007
0.221205
0.218849
0.216902
0.215318
0.214046
0.213036
0.212235
0.27004
0.268878
0.265172
0.260882
0.256523
0.252321
0.248389
0.244781
0.241515
0.238591
0.235992
0.233694
0.231663
0.229862
0.228251
0.28368
0.282745
0.27958
0.275815
0.271878
0.267957
0.264143
0.260491
0.257048
0.253823
0.250812
0.248003
0.245374
0.242892
0.240514
0.287244
0.286503
0.283972
0.280888
0.27759
0.274223
0.270862
0.267547
0.264288
0.261093
0.257961
0.254885
0.25185
0.248828
0.245787
0.2836
0.283011
0.28096
0.278392
0.275584
0.272654
0.269664
0.266643
0.2636
0.260542
0.257467
0.254369
0.251231
0.24803
0.24473
0.270936
0.270571
0.269215
0.267449
0.265449
0.263279
0.260963
0.258511
0.25593
0.253222
0.250381
0.247397
0.24425
0.240913
0.237341
0.251097
0.250834
0.249905
0.248647
0.247186
0.24556
0.243773
0.241823
0.239701
0.237397
0.234898
0.232189
0.229246
0.226038
0.222522
0.227497
0.227318
0.226722
0.225868
0.224841
0.223659
0.222318
0.220803
0.219099
0.21719
0.215059
0.212684
0.210039
0.207091
0.203797
0.202293
0.202178
0.201829
0.201279
0.200587
0.199757
0.198776
0.197626
0.196287
0.19474
0.192963
0.190933
0.188622
0.185996
0.183012
0.177102
0.177035
0.17686
0.176533
0.176092
0.175532
0.174836
0.173982
0.17295
0.171717
0.170262
0.16856
0.166582
0.164296
0.16166
0.153036
0.153002
0.152947
0.152781
0.152527
0.15217
0.151693
0.151075
0.150293
0.149325
0.148151
0.146745
0.14508
0.143126
0.140842
0.130812
0.130799
0.13082
0.130762
0.13064
0.130434
0.130123
0.129686
0.129104
0.128355
0.127419
0.126272
0.12489
0.123242
0.121294
0.110812
0.110815
0.110884
0.11089
0.110845
0.110744
0.110556
0.110259
0.109835
0.109263
0.108525
0.1076
0.106464
0.105091
0.10345
0.0931574
0.0931702
0.0932647
0.0933137
0.093319
0.0932768
0.0931763
0.0929854
0.0926829
0.0922526
0.0916769
0.0909374
0.0900133
0.0888811
0.0875126
0.077813
0.0778321
0.0779389
0.0780134
0.0780547
0.0780517
0.0779983
0.0778832
0.077674
0.0773546
0.0769099
0.0763236
0.0755775
0.074651
0.0735195
0.0646407
0.064663
0.0647721
0.0648583
0.0649188
0.0649418
0.0649221
0.064856
0.0647173
0.0644836
0.0641431
0.0636814
0.0630831
0.0623299
0.0614007
0.0534467
0.0534702
0.0535762
0.0536665
0.053738
0.0537809
0.053784
0.0537444
0.053654
0.053486
0.0532273
0.0528661
0.0523888
0.0517799
0.0510212