/*--------------------------------*- C++ -*----------------------------------*\
  =========                 |
  \\      /  F ield         | OpenFOAM: The Open Source CFD Toolbox
   \\    /   O peration     | Website:  https://openfoam.org
    \\  /    A nd           | Version:  7
     \\/     M anipulation  |
\*---------------------------------------------------------------------------*/
FoamFile
{
    version     2.0;
    format      ascii;
    class       volScalarField;
    location    "200";
    object      k;
}
// * * * * * * * * * * * * * * * * * * * * * * * * * * * * * * * * * * * * * //

dimensions      [0 2 -2 0 0 0 0];

internalField   nonuniform List<scalar> 
32100
(
0.00579596
0.00579596
0.00579596
0.00579596
0.00579596
0.00579596
0.00579596
0.00579596
0.00579596
0.00579597
0.00579598
0.0057959
0.0058002
0.00584998
0.00590062
0.00578791
0.00578791
0.00578791
0.00578791
0.00578791
0.00578791
0.00578791
0.00578791
0.00578791
0.00578792
0.00578798
0.00579005
0.0058088
0.00595213
0.00616092
0.00577988
0.00577988
0.00577988
0.00577988
0.00577988
0.00577988
0.00577988
0.00577988
0.00577989
0.00577994
0.00578047
0.00578982
0.0058205
0.00600937
0.00642486
0.00577187
0.00577187
0.00577187
0.00577187
0.00577187
0.00577187
0.00577187
0.00577187
0.00577189
0.00577206
0.00577344
0.00579043
0.00583647
0.00604149
0.0066926
0.00576388
0.00576388
0.00576388
0.00576388
0.00576388
0.00576388
0.00576388
0.00576389
0.00576393
0.00576432
0.00576702
0.00579166
0.00585204
0.00605974
0.00696291
0.00575591
0.00575591
0.00575591
0.00575591
0.00575591
0.00575591
0.00575592
0.00575593
0.00575602
0.00575672
0.00576111
0.00579173
0.0058649
0.00607033
0.00723706
0.00574797
0.00574797
0.00574797
0.00574797
0.00574797
0.00574797
0.00574798
0.005748
0.00574815
0.00574927
0.00575561
0.0057913
0.0058736
0.00607716
0.00751394
0.00574005
0.00574005
0.00574005
0.00574005
0.00574005
0.00574005
0.00574006
0.0057401
0.00574033
0.00574196
0.00575041
0.00579019
0.00587913
0.00608191
0.00779343
0.00573215
0.00573215
0.00573215
0.00573215
0.00573215
0.00573216
0.00573217
0.00573224
0.00573258
0.00573477
0.00574537
0.00578801
0.00588037
0.00608522
0.00807544
0.00572428
0.00572428
0.00572428
0.00572428
0.00572428
0.00572429
0.00572431
0.0057244
0.00572489
0.00572771
0.00574036
0.00578501
0.00587945
0.00608756
0.0083597
0.00571643
0.00571643
0.00571643
0.00571643
0.00571643
0.00571644
0.00571647
0.0057166
0.00571727
0.00572074
0.00573532
0.00578133
0.00587693
0.00608929
0.00864606
0.00570861
0.00570861
0.00570861
0.00570861
0.00570861
0.00570862
0.00570866
0.00570883
0.00570971
0.00571387
0.00573019
0.00577696
0.00587212
0.00609071
0.00893421
0.00570081
0.00570081
0.00570081
0.00570081
0.00570081
0.00570083
0.00570088
0.0057011
0.00570221
0.00570707
0.00572493
0.00577197
0.00586599
0.00609198
0.00922396
0.00569303
0.00569303
0.00569303
0.00569303
0.00569304
0.00569306
0.00569313
0.00569341
0.00569478
0.00570033
0.0057195
0.00576644
0.00585887
0.00609337
0.00951496
0.00568528
0.00568528
0.00568528
0.00568529
0.00568529
0.00568532
0.0056854
0.00568575
0.0056874
0.00569363
0.00571391
0.00576043
0.00585101
0.00609493
0.00980699
0.00567755
0.00567755
0.00567756
0.00567756
0.00567757
0.0056776
0.00567771
0.00567814
0.00568007
0.00568696
0.00570813
0.00575399
0.00584265
0.00609692
0.0100997
0.00566985
0.00566985
0.00566986
0.00566986
0.00566988
0.00566991
0.00567004
0.00567056
0.00567279
0.0056803
0.00570216
0.00574718
0.00583392
0.0060993
0.0103928
0.00566218
0.00566218
0.00566218
0.00566219
0.0056622
0.00566224
0.00566241
0.00566303
0.00566555
0.00567365
0.00569602
0.00574004
0.00582495
0.00610234
0.010686
0.00565453
0.00565453
0.00565453
0.00565454
0.00565456
0.00565461
0.0056548
0.00565553
0.00565836
0.005667
0.00568969
0.00573261
0.00581582
0.00610589
0.010979
0.0056469
0.0056469
0.00564691
0.00564692
0.00564694
0.005647
0.00564723
0.00564807
0.0056512
0.00566032
0.0056832
0.00572494
0.0058066
0.00611027
0.0112714
0.0056393
0.0056393
0.0056393
0.00563932
0.00563934
0.00563941
0.00563968
0.00564065
0.00564407
0.00565363
0.00567654
0.00571704
0.00579732
0.0061152
0.011563
0.00563172
0.00563172
0.00563173
0.00563174
0.00563177
0.00563185
0.00563217
0.00563326
0.00563697
0.00564691
0.00566973
0.00570896
0.00578803
0.00612108
0.0118534
0.00562417
0.00562417
0.00562418
0.00562419
0.00562422
0.00562432
0.00562469
0.00562591
0.0056299
0.00564015
0.00566276
0.00570069
0.00577872
0.0061275
0.0121423
0.00561664
0.00561664
0.00561665
0.00561666
0.0056167
0.00561682
0.00561723
0.00561859
0.00562284
0.00563335
0.00565566
0.00569228
0.00576943
0.00613498
0.0124295
0.00560914
0.00560914
0.00560914
0.00560916
0.00560921
0.00560934
0.00560981
0.00561131
0.0056158
0.00562651
0.00564843
0.00568372
0.00576011
0.00614294
0.0127145
0.00560166
0.00560166
0.00560166
0.00560168
0.00560173
0.00560189
0.00560241
0.00560405
0.00560877
0.00561963
0.00564107
0.00567504
0.00575083
0.00615203
0.0129972
0.0055942
0.0055942
0.00559421
0.00559423
0.00559429
0.00559446
0.00559505
0.00559682
0.00560174
0.0056127
0.00563359
0.00566624
0.00574149
0.0061615
0.0132772
0.00558677
0.00558677
0.00558677
0.0055868
0.00558686
0.00558706
0.00558771
0.00558962
0.00559473
0.00560571
0.005626
0.00565733
0.0057322
0.00617219
0.0135542
0.00557936
0.00557936
0.00557937
0.00557939
0.00557947
0.00557969
0.0055804
0.00558244
0.00558771
0.00559868
0.00561831
0.00564832
0.00572282
0.00618311
0.013828
0.00557197
0.00557197
0.00557198
0.00557201
0.00557209
0.00557234
0.00557312
0.00557528
0.0055807
0.0055916
0.00561051
0.00563921
0.00571346
0.00619534
0.0140983
0.00556461
0.00556461
0.00556462
0.00556465
0.00556474
0.00556502
0.00556586
0.00556815
0.00557368
0.00558446
0.00560262
0.00563
0.00570399
0.00620763
0.0143649
0.00555726
0.00555727
0.00555728
0.00555731
0.00555741
0.00555772
0.00555863
0.00556103
0.00556665
0.00557728
0.00559464
0.00562071
0.00569453
0.00622133
0.0146274
0.00554995
0.00554995
0.00554996
0.00555
0.00555011
0.00555045
0.00555143
0.00555394
0.00555962
0.00557004
0.00558657
0.00561132
0.00568492
0.0062349
0.0148859
0.00554265
0.00554265
0.00554266
0.00554271
0.00554283
0.0055432
0.00554425
0.00554685
0.00555258
0.00556275
0.00557842
0.00560185
0.00567531
0.00624999
0.0151397
0.00553538
0.00553538
0.00553539
0.00553544
0.00553558
0.00553598
0.00553709
0.00553979
0.00554552
0.00555541
0.00557019
0.00559229
0.0056655
0.00626471
0.0153891
0.00552812
0.00552813
0.00552814
0.0055282
0.00552835
0.00552878
0.00552996
0.00553273
0.00553846
0.00554801
0.00556188
0.00558264
0.00565569
0.0062811
0.0156335
0.00552089
0.0055209
0.00552091
0.00552097
0.00552114
0.00552161
0.00552284
0.00552569
0.00553138
0.00554057
0.00555349
0.0055729
0.00564565
0.00629686
0.0158731
0.00551369
0.00551369
0.00551371
0.00551377
0.00551396
0.00551446
0.00551575
0.00551865
0.00552428
0.00553308
0.00554503
0.00556308
0.0056356
0.00631445
0.0161074
0.0055065
0.00550651
0.00550652
0.0055066
0.0055068
0.00550733
0.00550868
0.00551163
0.00551716
0.00552553
0.00553649
0.00555316
0.00562528
0.00633115
0.0163366
0.00549934
0.00549934
0.00549936
0.00549944
0.00549966
0.00550023
0.00550163
0.00550461
0.00551003
0.00551794
0.00552789
0.00554316
0.00561496
0.00634986
0.01656
0.00549219
0.0054922
0.00549222
0.00549231
0.00549254
0.00549315
0.0054946
0.00549759
0.00550288
0.0055103
0.00551921
0.00553305
0.00560432
0.00636736
0.0167783
0.00548507
0.00548508
0.00548511
0.0054852
0.00548545
0.00548609
0.00548758
0.00549058
0.00549571
0.00550261
0.00551047
0.00552287
0.0055937
0.00638711
0.0169906
0.00547797
0.00547798
0.00547801
0.00547811
0.00547838
0.00547905
0.00548058
0.00548358
0.00548852
0.00549487
0.00550166
0.00551258
0.00558271
0.00640531
0.0171975
0.00547089
0.0054709
0.00547094
0.00547105
0.00547133
0.00547204
0.0054736
0.00547657
0.00548131
0.00548709
0.00549278
0.00550221
0.00557176
0.00642602
0.0173981
0.00546384
0.00546385
0.00546388
0.005464
0.00546431
0.00546504
0.00546663
0.00546957
0.00547407
0.00547926
0.00548384
0.00549172
0.00556041
0.00644483
0.0175934
0.0054568
0.00545681
0.00545685
0.00545698
0.0054573
0.00545806
0.00545967
0.00546256
0.00546682
0.00547139
0.00547484
0.00548116
0.00554912
0.00646644
0.0177823
0.00544978
0.0054498
0.00544984
0.00544998
0.00545032
0.0054511
0.00545273
0.00545555
0.00545954
0.00546347
0.00546577
0.00547047
0.00553739
0.00648575
0.0179657
0.00544279
0.0054428
0.00544285
0.005443
0.00544336
0.00544417
0.00544579
0.00544854
0.00545224
0.00545551
0.00545663
0.00545971
0.00552575
0.00650821
0.0181426
0.00543582
0.00543583
0.00543588
0.00543604
0.00543641
0.00543725
0.00543887
0.00544153
0.00544491
0.0054475
0.00544743
0.00544882
0.00551362
0.00652795
0.0183141
0.00542886
0.00542888
0.00542893
0.0054291
0.00542949
0.00543034
0.00543196
0.00543452
0.00543756
0.00543944
0.00543817
0.00543786
0.00550163
0.00655121
0.018479
0.00542193
0.00542194
0.00542201
0.00542218
0.00542259
0.00542346
0.00542506
0.0054275
0.00543019
0.00543135
0.00542885
0.00542677
0.00548911
0.00657131
0.0186386
0.00541501
0.00541503
0.0054151
0.00541529
0.00541571
0.00541659
0.00541817
0.00542047
0.0054228
0.00542321
0.00541946
0.00541561
0.00547676
0.00659534
0.0187915
0.00540812
0.00540814
0.00540821
0.00540841
0.00540885
0.00540973
0.00541129
0.00541344
0.00541537
0.00541503
0.00541
0.00540432
0.00546386
0.00661574
0.0189393
0.00540125
0.00540127
0.00540135
0.00540155
0.005402
0.0054029
0.00540441
0.0054064
0.00540793
0.0054068
0.00540049
0.00539295
0.00545115
0.0066405
0.0190804
0.00539439
0.00539442
0.0053945
0.00539471
0.00539518
0.00539607
0.00539754
0.00539936
0.00540046
0.00539854
0.00539091
0.00538146
0.00543789
0.00666116
0.0192166
0.00538756
0.00538759
0.00538767
0.0053879
0.00538837
0.00538926
0.00539067
0.0053923
0.00539296
0.00539023
0.00538127
0.00536989
0.00542484
0.00668663
0.0193461
0.00538075
0.00538077
0.00538087
0.0053811
0.00538158
0.00538247
0.00538381
0.00538524
0.00538545
0.00538188
0.00537157
0.0053582
0.00541122
0.00670752
0.019471
0.00537395
0.00537398
0.00537408
0.00537432
0.00537481
0.00537569
0.00537696
0.00537817
0.0053779
0.00537349
0.0053618
0.00534642
0.00539784
0.0067337
0.019589
0.00536718
0.00536721
0.00536731
0.00536756
0.00536806
0.00536892
0.00537011
0.00537109
0.00537033
0.00536506
0.00535198
0.00533453
0.00538391
0.00675479
0.0197029
0.00536042
0.00536046
0.00536056
0.00536082
0.00536132
0.00536216
0.00536326
0.005364
0.00536274
0.00535658
0.00534209
0.00532255
0.00537021
0.00678166
0.0198099
0.00535369
0.00535372
0.00535383
0.0053541
0.0053546
0.00535541
0.00535641
0.0053569
0.00535513
0.00534807
0.00533215
0.00531047
0.00535599
0.00680298
0.0199131
0.00534697
0.00534701
0.00534712
0.00534739
0.00534789
0.00534868
0.00534957
0.00534978
0.00534748
0.00533952
0.00532214
0.00529829
0.005342
0.00683052
0.0200095
0.00534027
0.00534031
0.00534043
0.00534071
0.0053412
0.00534195
0.00534273
0.00534266
0.00533982
0.00533093
0.00531208
0.00528602
0.00532753
0.00685208
0.0201024
0.00533359
0.00533363
0.00533376
0.00533404
0.00533453
0.00533524
0.00533589
0.00533553
0.00533213
0.0053223
0.00530195
0.00527364
0.00531325
0.00688029
0.0201885
0.00532693
0.00532697
0.0053271
0.00532738
0.00532787
0.00532853
0.00532905
0.00532839
0.00532441
0.00531363
0.00529177
0.0052612
0.00529859
0.00690213
0.0202717
0.00532029
0.00532033
0.00532047
0.00532075
0.00532122
0.00532184
0.00532221
0.00532123
0.00531667
0.00530492
0.00528152
0.00524861
0.00528404
0.00693098
0.0203479
0.00531366
0.00531371
0.00531385
0.00531413
0.00531459
0.00531515
0.00531537
0.00531407
0.00530891
0.00529617
0.00527124
0.00523602
0.00526924
0.0069532
0.0204218
0.00530706
0.00530711
0.00530725
0.00530753
0.00530797
0.00530847
0.00530853
0.00530689
0.00530112
0.00528739
0.00526087
0.00522322
0.00525445
0.00698267
0.0204886
0.00530047
0.00530052
0.00530066
0.00530094
0.00530137
0.0053018
0.00530168
0.0052997
0.00529331
0.00527857
0.00525048
0.0052105
0.00523957
0.00700537
0.0205537
0.0052939
0.00529395
0.00529409
0.00529437
0.00529478
0.00529513
0.00529484
0.00529249
0.00528547
0.00526971
0.00523999
0.00519748
0.00522454
0.00703544
0.0206115
0.00528734
0.0052874
0.00528754
0.00528782
0.0052882
0.00528847
0.005288
0.00528528
0.00527761
0.00526082
0.00522951
0.00518465
0.00520964
0.00705881
0.0206684
0.00528081
0.00528086
0.00528101
0.00528128
0.00528163
0.00528182
0.00528115
0.00527805
0.00526973
0.00525188
0.00521889
0.00517139
0.00519441
0.00708945
0.0207176
0.00527429
0.00527435
0.00527449
0.00527475
0.00527507
0.00527517
0.0052743
0.00527081
0.00526183
0.00524293
0.00520834
0.00515851
0.00517957
0.00711381
0.0207667
0.00526779
0.00526784
0.00526799
0.00526824
0.00526852
0.00526853
0.00526744
0.00526356
0.00525389
0.00523391
0.00519757
0.00514498
0.00516415
0.00714498
0.0208081
0.0052613
0.00526136
0.0052615
0.00526175
0.00526199
0.00526189
0.00526059
0.0052563
0.00524595
0.00522492
0.00518698
0.00513211
0.00514945
0.00717091
0.0208497
0.00525483
0.00525489
0.00525503
0.00525526
0.00525546
0.00525526
0.00525373
0.00524902
0.00523796
0.0052158
0.00517604
0.00511825
0.0051339
0.00720263
0.0208829
0.00524837
0.00524843
0.00524857
0.00524879
0.00524894
0.00524863
0.00524686
0.00524173
0.00522999
0.00520678
0.00516547
0.0051055
0.0051194
0.00723135
0.0209203
0.00524193
0.00524199
0.00524212
0.00524233
0.00524243
0.005242
0.00523999
0.00523442
0.00522195
0.00519755
0.00515429
0.00509122
0.00510382
0.0072631
0.0209405
0.0052355
0.00523556
0.00523569
0.00523587
0.00523592
0.00523537
0.00523312
0.00522712
0.00521396
0.00518856
0.00514385
0.00507877
0.0050897
0.00730091
0.0209773
0.00522908
0.00522914
0.00522927
0.00522943
0.00522943
0.00522875
0.00522623
0.00521976
0.00520582
0.00517915
0.00513232
0.00506389
0.00507375
0.00731227
0.0210008
0.00521006
0.00521011
0.00521022
0.00521031
0.00521012
0.00520904
0.00520577
0.00519805
0.00518221
0.00515286
0.00510236
0.0050289
0.00503551
0.00759964
0.0261155
0.00517874
0.00517878
0.00517884
0.00517877
0.0051782
0.00517632
0.00517155
0.00516126
0.00514124
0.00510513
0.00504352
0.00495196
0.00495884
0.00842798
0.0435022
0.00514764
0.00514765
0.00514759
0.00514727
0.00514618
0.00514331
0.0051369
0.00512409
0.00510049
0.00505956
0.00499188
0.00489425
0.00495302
0.00974473
0.0498968
0.00511683
0.0051168
0.00511662
0.00511601
0.00511434
0.00511044
0.00510229
0.00508669
0.00505877
0.00501096
0.00493198
0.00482079
0.00498778
0.0123222
0.0621663
0.0050863
0.0050862
0.00508583
0.00508483
0.00508244
0.0050773
0.0050672
0.00504875
0.00501686
0.00496396
0.00488035
0.00477922
0.0051773
0.0156641
0.0697064
0.00505605
0.00505587
0.00505529
0.00505387
0.00505073
0.00504435
0.00503232
0.00501097
0.00497483
0.0049157
0.00482361
0.00472414
0.0055033
0.0208767
0.0762426
0.00502607
0.00502578
0.00502493
0.00502298
0.00501893
0.00501109
0.00499688
0.00497246
0.00493221
0.00486829
0.00477491
0.00472666
0.00613799
0.0268887
0.0793194
0.00499632
0.00499591
0.00499475
0.00499225
0.00498729
0.00497805
0.00496178
0.00493445
0.00489023
0.00482161
0.00472917
0.00474765
0.00735073
0.0334234
0.0809009
0.0049668
0.00496625
0.00496474
0.00496159
0.00495557
0.0049447
0.00492609
0.00489558
0.00484761
0.00477668
0.00469563
0.0048605
0.00906598
0.0402936
0.0813528
0.00493748
0.00493676
0.00493485
0.00493103
0.00492394
0.00491155
0.00489085
0.00485768
0.00480675
0.00473475
0.00467165
0.00504973
0.0117553
0.0467755
0.0813322
0.00490834
0.00490744
0.00490512
0.00490055
0.00489229
0.00487817
0.00485509
0.00481892
0.00476523
0.00469599
0.00467489
0.00538429
0.015124
0.0524389
0.0813139
0.00487936
0.00487826
0.00487545
0.00487009
0.00486066
0.00484494
0.00481986
0.00478162
0.00472736
0.00466664
0.00470773
0.00602961
0.0194908
0.0570171
0.0813491
0.00485052
0.00484921
0.00484592
0.00483974
0.00482909
0.00481164
0.00478435
0.00474389
0.00468962
0.0046406
0.0047726
0.00697869
0.0241912
0.0605746
0.0814285
0.0048218
0.00482026
0.00481643
0.00480937
0.00479746
0.00477844
0.00474951
0.00470817
0.00465692
0.00463231
0.00491072
0.00841814
0.0294164
0.0633518
0.081596
0.00479319
0.00479141
0.00478705
0.00477915
0.00476604
0.00474545
0.00471476
0.00467264
0.00462731
0.00464147
0.00516009
0.0104492
0.0345557
0.0653507
0.081689
0.00476469
0.00476266
0.00475771
0.00474887
0.00473449
0.00471245
0.00468084
0.0046405
0.00460624
0.00466777
0.00555334
0.0130964
0.0394152
0.0670165
0.0817387
0.00473624
0.00473396
0.00472846
0.00471877
0.00470331
0.00468016
0.00464795
0.00460951
0.00458856
0.00473191
0.00616885
0.0163606
0.0437318
0.0684475
0.0817593
0.00470792
0.00470537
0.00469927
0.00468867
0.00467205
0.00464779
0.00461566
0.00458266
0.00458977
0.00485067
0.00707576
0.0200646
0.0475374
0.0697315
0.0817866
0.00467959
0.00467679
0.00467013
0.00465875
0.00464128
0.00461661
0.00458608
0.00456172
0.00460208
0.00503714
0.00835683
0.0241022
0.0507683
0.0708744
0.0818239
0.00465142
0.00464835
0.00464114
0.00462895
0.00461062
0.00458574
0.0045576
0.00454434
0.00463165
0.00533664
0.0100993
0.0282507
0.0535369
0.0718784
0.0818688
0.00462322
0.0046199
0.00461216
0.00459934
0.00458065
0.0045565
0.00453277
0.00453733
0.00469269
0.00577197
0.0123246
0.0323164
0.0559538
0.0727607
0.0819164
0.00459517
0.00459163
0.00458344
0.00457006
0.00455103
0.00452801
0.00451099
0.00454151
0.00479977
0.00642236
0.0150186
0.0361296
0.0581003
0.0735344
0.081959
0.00456713
0.00456336
0.00455473
0.00454097
0.00452235
0.00450241
0.0044957
0.0045582
0.00496038
0.00732283
0.0180807
0.0396705
0.0600427
0.0742354
0.0820028
0.00453924
0.00453531
0.00452642
0.00451261
0.00449479
0.00447809
0.00448294
0.00459137
0.00520331
0.00856158
0.0214281
0.0428555
0.0617824
0.0748685
0.0820453
0.00451143
0.00450735
0.00449823
0.00448445
0.00446799
0.00445737
0.00448381
0.00465531
0.00555404
0.0101683
0.0248986
0.0457302
0.0633503
0.0754411
0.0820858
0.00448378
0.00447961
0.0044705
0.00445738
0.00444372
0.00444159
0.0044913
0.0047542
0.00605849
0.0121788
0.0283646
0.048348
0.0647679
0.0759642
0.0821255
0.0044563
0.00445212
0.00444319
0.00443106
0.00442072
0.00442854
0.00451153
0.0049022
0.00675857
0.0145447
0.0317186
0.0507379
0.0660489
0.0764395
0.0821619
0.00442907
0.00442496
0.00441646
0.00440597
0.00440074
0.00442437
0.0045512
0.00511481
0.00770676
0.0172258
0.0349088
0.0529369
0.0672184
0.0768763
0.0821966
0.0044021
0.0043982
0.00439047
0.00438238
0.00438434
0.00442791
0.00461734
0.00541954
0.00894963
0.0201243
0.0378874
0.0549519
0.0682855
0.0772759
0.082228
0.00437556
0.00437196
0.0043654
0.00436089
0.00437214
0.0044407
0.00471482
0.00584357
0.0105182
0.0231471
0.0406743
0.0568067
0.069266
0.0776448
0.0822574
0.00434937
0.0043464
0.00434165
0.00434147
0.00436433
0.00446619
0.00485637
0.00642846
0.0124151
0.0261895
0.0432704
0.0585078
0.0701657
0.0779847
0.0822842
0.00432407
0.00432166
0.00431896
0.00432509
0.00436591
0.00451272
0.00505671
0.00721128
0.0146085
0.0291875
0.0456982
0.0600784
0.0709932
0.0782974
0.0823073
0.00429895
0.00429779
0.00429882
0.00431356
0.0043736
0.00458266
0.00533579
0.00823505
0.0170546
0.0320856
0.0479685
0.0615314
0.0717596
0.0785879
0.082328
0.00427572
0.00427578
0.00428029
0.00430417
0.00439149
0.00468367
0.00572004
0.00953435
0.0196809
0.034859
0.0500812
0.0628719
0.0724668
0.0788559
0.0823455
0.00425239
0.00425427
0.00426473
0.00430463
0.00442613
0.00482613
0.00624006
0.0111203
0.0224047
0.0375003
0.0520518
0.064116
0.073121
0.0791031
0.0823593
0.00423194
0.00423642
0.00425406
0.00430988
0.00447993
0.00502526
0.00693236
0.0129855
0.0251654
0.0400108
0.0538907
0.065271
0.0737274
0.0793314
0.0823694
0.0042121
0.0042193
0.00424535
0.00432401
0.00455722
0.00529683
0.00783036
0.0151001
0.0279001
0.0423904
0.055608
0.0663447
0.0742905
0.0795424
0.0823759
0.0041954
0.00420688
0.00424574
0.00435176
0.00466706
0.00566631
0.00897034
0.017418
0.0305782
0.0446419
0.0572135
0.0673442
0.0748134
0.0797362
0.0823772
0.00418113
0.00419756
0.00425104
0.00439624
0.00481905
0.00615968
0.010365
0.0198732
0.0331764
0.0467675
0.0587143
0.0682747
0.0752988
0.0799146
0.0823758
0.00417072
0.00419371
0.00426386
0.00446089
0.00502752
0.00681044
0.0120196
0.0224147
0.0356867
0.0487743
0.0601195
0.0691434
0.075751
0.0800794
0.0823711
0.0041647
0.00419613
0.00429066
0.00455233
0.00530876
0.00764937
0.0139145
0.0249816
0.0380966
0.0506655
0.0614344
0.0699528
0.0761705
0.0802298
0.0823618
0.00416568
0.00420498
0.00433217
0.00467906
0.00568634
0.00870897
0.0160167
0.0275425
0.0404084
0.0524529
0.0626692
0.0707105
0.0765616
0.0803674
0.0823482
0.00417041
0.00422346
0.00439261
0.00485207
0.00618615
0.0100045
0.0182771
0.0300666
0.0426141
0.054135
0.0638242
0.0714176
0.0769246
0.0804921
0.0823301
0.00418443
0.00425585
0.00447797
0.0050855
0.00683847
0.0115449
0.0206482
0.0325378
0.0447174
0.0557223
0.0649087
0.0720783
0.0772616
0.0806049
0.0823078
0.00421014
0.004304
0.00459567
0.0053983
0.00767509
0.0133168
0.0230796
0.0349398
0.0467184
0.0572184
0.0659258
0.0726953
0.0775737
0.0807055
0.0822806
0.00425098
0.0043732
0.00475588
0.00581354
0.00872288
0.0152938
0.0255377
0.0372669
0.048623
0.0586308
0.0668815
0.0732725
0.0778631
0.080795
0.0822487
0.00430951
0.004469
0.00497174
0.00635911
0.010001
0.0174367
0.0279905
0.0395095
0.0504309
0.0599616
0.0677777
0.073811
0.07813
0.0808732
0.0822118
0.00439227
0.00460044
0.00526067
0.00706508
0.0115146
0.019702
0.0304186
0.0416684
0.0521497
0.0612184
0.0686201
0.0743146
0.0783766
0.080941
0.0821701
0.00450492
0.00477743
0.00564458
0.00796319
0.0132555
0.0220501
0.0328031
0.0437383
0.0537786
0.062402
0.0694099
0.0747837
0.0786029
0.0809979
0.0821228
0.00465885
0.00501613
0.00615101
0.00907843
0.0151969
0.0244434
0.0351317
0.0457221
0.0553261
0.06352
0.0701515
0.075221
0.07881
0.0810444
0.0820701
0.00486511
0.00533422
0.00681058
0.0104285
0.017307
0.0268562
0.037398
0.0476207
0.0567932
0.0645737
0.0708477
0.0756282
0.0789987
0.0810802
0.0820109
0.00514346
0.00575888
0.00765788
0.0120162
0.0195456
0.0292614
0.0395918
0.0494319
0.0581813
0.0655653
0.0714991
0.0760056
0.0791691
0.0811055
0.0819453
0.00551567
0.00631953
0.00872305
0.0138293
0.0218774
0.0316427
0.0417119
0.051161
0.0594972
0.0665002
0.072109
0.0763547
0.0793206
0.0811174
0.0818718
0.00601538
0.00705575
0.0100322
0.0158433
0.0242673
0.0339826
0.0437526
0.0528071
0.0607413
0.0673785
0.0726771
0.0766742
0.0794517
0.0811159
0.0817879
0.00668188
0.0080066
0.0115951
0.0180243
0.0266869
0.0362725
0.0457158
0.0543752
0.0619182
0.0682039
0.0732063
0.076967
0.0795664
0.0811059
0.0816963
0.00756595
0.0092134
0.0134108
0.0203377
0.029112
0.0385015
0.0475968
0.0558633
0.0630275
0.0689769
0.0736974
0.0772333
0.0796629
0.0810824
0.0815947
0.00872203
0.0107078
0.0154598
0.0227457
0.0315211
0.0406633
0.0493979
0.0572773
0.0640741
0.0696998
0.0741505
0.0774715
0.0797381
0.0810415
0.0814796
0.0102035
0.012509
0.0177148
0.0252177
0.0339001
0.0427544
0.0511189
0.0586162
0.0650578
0.0703735
0.0745661
0.0776817
0.0797923
0.0809842
0.08135
0.0120481
0.0146168
0.0201411
0.0277241
0.0362336
0.044768
0.052757
0.0598799
0.0659789
0.070998
0.074944
0.0778628
0.0798232
0.0809085
0.0812043
0.0142666
0.0170121
0.0227027
0.0302405
0.0385112
0.0467015
0.0543134
0.0610704
0.066838
0.071571
0.0752797
0.0780089
0.0798239
0.0808082
0.0810372
0.016834
0.0196567
0.0253634
0.032746
0.0407233
0.0485514
0.055787
0.0621871
0.0676354
0.0720944
0.0755771
0.0781271
0.079807
0.0806891
0.0808506
0.0196939
0.0224991
0.0280884
0.0352224
0.0428617
0.0503146
0.0571768
0.0632298
0.0683702
0.072567
0.0758337
0.0782121
0.079761
0.0805455
0.0806412
0.0227647
0.0254758
0.0308418
0.0376535
0.0449205
0.0519899
0.0584837
0.0641996
0.0690437
0.0729889
0.0760483
0.0782609
0.0796812
0.0803731
0.0804053
0.025959
0.0285228
0.0335909
0.0400259
0.0468943
0.0535736
0.0597032
0.0650918
0.0696506
0.0733531
0.0762116
0.0782622
0.0795631
0.0801669
0.0801389
0.0291909
0.0315756
0.0362993
0.0423214
0.0487728
0.0550592
0.0608316
0.0659039
0.0701893
0.0736613
0.0763314
0.0782341
0.0794139
0.0799295
0.0798419
0.0323843
0.0345757
0.0389336
0.0445254
0.0505522
0.0564482
0.0618719
0.066639
0.0706629
0.0739155
0.0764052
0.0781619
0.0792278
0.0796586
0.0795126
0.0354782
0.0374751
0.0414653
0.0466244
0.0522263
0.0577355
0.0628178
0.0672887
0.0710594
0.0740989
0.0764121
0.0780323
0.0789937
0.0793459
0.0791452
0.0384254
0.0402343
0.0438668
0.0486012
0.0537842
0.0589141
0.0636658
0.0678535
0.0713842
0.0742243
0.0763764
0.0778606
0.0787181
0.0789935
0.0787397
0.0411932
0.0428249
0.0461181
0.0504449
0.0552225
0.0599849
0.064417
0.0683322
0.0716338
0.0742839
0.0762801
0.0776379
0.0783973
0.0785995
0.0782948
0.0437539
0.0452226
0.0482003
0.0521426
0.0565323
0.0609395
0.0650622
0.0687148
0.0717965
0.0742649
0.0761122
0.077355
0.0780243
0.0781591
0.0778075
0.0461032
0.0474229
0.0501099
0.0536928
0.0577153
0.0617848
0.065614
0.0690182
0.0718944
0.074189
0.0758916
0.077021
0.0776034
0.0776741
0.0772784
0.0482209
0.0494056
0.051827
0.0550773
0.0587548
0.0625025
0.0660489
0.0692127
0.071888
0.0740224
0.0755974
0.0766249
0.0771285
0.0771409
0.0767054
0.0501206
0.0511843
0.053366
0.0563121
0.0596695
0.0631158
0.0663977
0.0693392
0.0718211
0.0737935
0.0752428
0.0761725
0.0766021
0.0765614
0.0760891
0.0517917
0.0527466
0.0547109
0.0573778
0.0604376
0.063599
0.0666246
0.0693441
0.0716544
0.0734846
0.0748196
0.0756601
0.0760224
0.0759343
0.07543
0.0532519
0.0541097
0.0558787
0.0582922
0.0610782
0.0639752
0.0667638
0.0692822
0.0714135
0.0731062
0.074333
0.0750904
0.0753914
0.075261
0.0747293
0.0545005
0.0552715
0.0568649
0.0590482
0.0615821
0.0642321
0.0667966
0.0691218
0.0710934
0.0726576
0.0737837
0.0744647
0.0747102
0.0745428
0.0739885
0.0555558
0.0562491
0.0576845
0.0596591
0.0619629
0.0643853
0.0667419
0.0688778
0.0706994
0.0721429
0.073175
0.0737858
0.0739814
0.0737821
0.0732103
0.0564206
0.0570448
0.0583389
0.0601255
0.0622194
0.0644327
0.066593
0.0685573
0.0702367
0.0715664
0.0725109
0.0730571
0.0732083
0.072982
0.0723974
0.057116
0.0576782
0.0588455
0.0604619
0.0623634
0.0643821
0.0663544
0.0681614
0.0697088
0.0709325
0.0717958
0.072283
0.0723948
0.0721463
0.0715535
0.0576448
0.0581519
0.0592054
0.0606681
0.0623967
0.0642371
0.0660402
0.067699
0.0691222
0.0702468
0.0710347
0.0714682
0.0715454
0.0712791
0.0706825
0.0580294
0.0584887
0.0594439
0.060775
0.0623386
0.0640047
0.0656536
0.0671751
0.0684828
0.069515
0.0702332
0.070618
0.0706651
0.0703852
0.0697891
0.0582868
0.0587039
0.0595715
0.0607628
0.0621809
0.0636962
0.0652023
0.0665964
0.0677966
0.0687431
0.0693971
0.0697378
0.0697592
0.0694696
0.0688781
0.0584246
0.0588005
0.0595718
0.0606575
0.0619358
0.063316
0.0646919
0.0659688
0.0670698
0.0679371
0.0685321
0.0688333
0.068833
0.0685375
0.0679545
0.0584409
0.0587806
0.0594833
0.0604524
0.0616145
0.0628723
0.0641295
0.065299
0.0663085
0.067103
0.0676444
0.0679104
0.0678925
0.0675946
0.0670237
0.0583675
0.0586688
0.0592918
0.0601705
0.0612271
0.0623736
0.0635225
0.0645935
0.0655192
0.066247
0.0667397
0.0669749
0.0669431
0.0666463
0.0660909
0.0581772
0.0584477
0.0590168
0.0598179
0.0607807
0.061827
0.0628776
0.063859
0.0647082
0.0653752
0.0658242
0.0660326
0.0659904
0.0656983
0.0651616
0.0579064
0.0581558
0.0586754
0.0594058
0.0602842
0.0612401
0.0622018
0.0631017
0.0638812
0.0644933
0.0649033
0.065089
0.06504
0.0647556
0.0642409
0.0575762
0.057804
0.0582779
0.0589442
0.0597462
0.0606205
0.0615017
0.0623277
0.0630442
0.0636069
0.0639826
0.0641495
0.064097
0.0638237
0.0633339
0.0571927
0.0574006
0.0578329
0.0584412
0.0591744
0.059975
0.0607834
0.0615427
0.0622025
0.0627211
0.0630669
0.0632189
0.0631664
0.0629072
0.0624453
0.056764
0.0569537
0.0573485
0.0579046
0.0585758
0.05931
0.0600528
0.0607521
0.0613611
0.0618407
0.0621611
0.062302
0.0622526
0.0620107
0.0615796
0.0562978
0.0564711
0.0568321
0.0573413
0.0579567
0.0586312
0.0593152
0.0599607
0.0605245
0.0609701
0.0612693
0.0614026
0.0613597
0.0611381
0.0607405
0.0558014
0.0559598
0.0562905
0.0567575
0.0573229
0.0579439
0.0585752
0.0591729
0.0596968
0.0601131
0.0603952
0.0605247
0.0604914
0.0602929
0.0599316
0.0552814
0.0554262
0.0557295
0.0561586
0.0566793
0.0572525
0.0578369
0.0583922
0.0588813
0.0592727
0.0595418
0.0596709
0.0596504
0.0594778
0.0591552
0.0547438
0.0548761
0.0551546
0.0555497
0.0560304
0.0565609
0.0571037
0.0576217
0.0580808
0.0584517
0.0587115
0.0588437
0.0588389
0.058695
0.0584134
0.0541944
0.0543151
0.0545708
0.0549353
0.05538
0.0558725
0.0563785
0.0568638
0.0572974
0.057652
0.0579062
0.0580447
0.0580586
0.0579457
0.0577073
0.0536389
0.0537483
0.0539828
0.0543191
0.0547314
0.0551899
0.0556632
0.0561204
0.0565324
0.0568745
0.0571266
0.0572745
0.0573098
0.0572301
0.0570369
0.053084
0.0531821
0.053396
0.0537059
0.0540882
0.054516
0.0549604
0.055393
0.0557873
0.0561203
0.0563737
0.056534
0.0565933
0.0565491
0.056403
0.0525393
0.0526254
0.0528179
0.0531015
0.0534552
0.0538543
0.0542725
0.0546836
0.0550634
0.0553905
0.0556481
0.0558236
0.0559094
0.0559028
0.0558056
0.0520208
0.052093
0.0522611
0.0525165
0.0528409
0.0532119
0.0536053
0.053997
0.0543646
0.0546886
0.0549531
0.0551466
0.0552617
0.0552954
0.0552489
0.051562
0.0516167
0.0517536
0.0519747
0.0522653
0.0526053
0.0529725
0.0533446
0.0537008
0.0540229
0.0542963
0.0545099
0.0546566
0.054733
0.0547392
0.0511642
0.0512012
0.0513023
0.0514849
0.051738
0.0520447
0.0523844
0.0527367
0.0530824
0.0534044
0.0536889
0.0539254
0.054107
0.0542299
0.0542935
0.0508825
0.0508828
0.0509183
0.0510402
0.0512575
0.0515277
0.0518398
0.0521724
0.0525082
0.0528319
0.0531304
0.0533936
0.0536146
0.0537918
0.053919
0.0509621
0.0509326
0.0509032
0.0509475
0.0510614
0.0512508
0.0514983
0.0517878
0.0521026
0.0524277
0.0527502
0.0530596
0.0533474
0.0536063
0.0538331
0.0514891
0.0514066
0.0512643
0.0511978
0.0512304
0.0513571
0.0515588
0.0518165
0.0521133
0.0524342
0.052766
0.0530983
0.0534227
0.0537332
0.0540282
0.0529133
0.0527605
0.0524611
0.052222
0.0520917
0.0520769
0.0521655
0.0523407
0.0525875
0.0528889
0.053231
0.0536032
0.0539975
0.0544086
0.0548316
0.055802
0.0555944
0.0551486
0.054727
0.0544013
0.0541989
0.0541233
0.0541681
0.0543157
0.0545589
0.054884
0.0552762
0.0557213
0.0562051
0.0567124
0.0601909
0.0599546
0.059405
0.0588563
0.0583946
0.0580523
0.0578394
0.0577545
0.0577896
0.0579245
0.0581521