/*--------------------------------*- C++ -*----------------------------------*\
  =========                 |
  \\      /  F ield         | OpenFOAM: The Open Source CFD Toolbox
   \\    /   O peration     | Website:  https://openfoam.org
    \\  /    A nd           | Version:  7
     \\/     M anipulation  |
\*---------------------------------------------------------------------------*/
FoamFile
{
    version     2.0;
    format      ascii;
    class       volScalarField;
    location    "200";
    object      nut;
}
// * * * * * * * * * * * * * * * * * * * * * * * * * * * * * * * * * * * * * //

dimensions      [0 2 -1 0 0 0 0];

internalField   nonuniform List<scalar> 
32100
(
0.000263484
0.000263484
0.000263484
0.000263484
0.000263484
0.000263484
0.000263484
0.000263484
0.000263484
0.000263484
0.000263488
0.00026351
0.000261889
0.000217326
1.42099e-05
0.000263455
0.000263455
0.000263455
0.000263455
0.000263455
0.000263455
0.000263455
0.000263455
0.000263455
0.000263455
0.000263454
0.000263242
0.000258687
0.000171501
1.452e-05
0.000263425
0.000263425
0.000263425
0.000263425
0.000263425
0.000263425
0.000263425
0.000263426
0.000263426
0.000263427
0.000263421
0.000263003
0.00025191
0.000145409
1.48277e-05
0.000263396
0.000263396
0.000263396
0.000263396
0.000263396
0.000263396
0.000263396
0.000263396
0.000263397
0.000263401
0.000263381
0.000262443
0.000244335
0.000128195
1.51335e-05
0.000263367
0.000263367
0.000263367
0.000263367
0.000263367
0.000263367
0.000263367
0.000263367
0.000263369
0.000263375
0.00026331
0.000261435
0.000236215
0.000115212
1.54361e-05
0.000263338
0.000263338
0.000263338
0.000263338
0.000263338
0.000263338
0.000263338
0.000263339
0.000263341
0.000263349
0.000263191
0.000259995
0.000228042
0.000105478
1.57371e-05
0.000263309
0.000263309
0.000263309
0.000263309
0.000263309
0.000263309
0.000263309
0.00026331
0.000263314
0.000263318
0.000262998
0.000258222
0.000219862
9.69964e-05
1.60353e-05
0.00026328
0.00026328
0.00026328
0.00026328
0.00026328
0.00026328
0.00026328
0.000263282
0.000263287
0.000263279
0.000262734
0.000256128
0.000211847
8.96381e-05
1.63308e-05
0.000263251
0.000263251
0.000263251
0.000263251
0.000263251
0.000263251
0.000263252
0.000263254
0.000263261
0.000263228
0.000262356
0.000253714
0.000203972
8.32543e-05
1.66236e-05
0.000263222
0.000263222
0.000263222
0.000263222
0.000263222
0.000263223
0.000263223
0.000263226
0.000263233
0.000263159
0.000261871
0.000251035
0.000196409
7.76902e-05
1.69137e-05
0.000263194
0.000263194
0.000263194
0.000263194
0.000263194
0.000263194
0.000263195
0.000263199
0.000263203
0.000263069
0.0002613
0.00024814
0.000189194
7.28126e-05
1.72009e-05
0.000263165
0.000263165
0.000263165
0.000263165
0.000263165
0.000263166
0.000263167
0.000263172
0.000263171
0.000262955
0.000260624
0.000245063
0.000182273
6.85067e-05
1.74852e-05
0.000263137
0.000263137
0.000263137
0.000263137
0.000263137
0.000263138
0.000263139
0.000263144
0.000263134
0.000262812
0.000259817
0.00024184
0.000175692
6.46824e-05
1.77665e-05
0.000263108
0.000263108
0.000263108
0.000263108
0.000263109
0.000263109
0.000263112
0.000263117
0.000263092
0.000262636
0.000258899
0.000238502
0.000169448
6.12646e-05
1.80445e-05
0.00026308
0.00026308
0.00026308
0.00026308
0.000263081
0.000263082
0.000263084
0.000263089
0.000263044
0.000262424
0.000257875
0.000235081
0.000163533
5.81942e-05
1.83194e-05
0.000263052
0.000263052
0.000263052
0.000263052
0.000263053
0.000263054
0.000263057
0.00026306
0.000262987
0.000262173
0.000256748
0.0002316
0.000157934
5.54207e-05
1.85907e-05
0.000263024
0.000263024
0.000263024
0.000263025
0.000263025
0.000263026
0.00026303
0.000263029
0.000262921
0.000261882
0.000255524
0.000228084
0.000152638
5.29048e-05
1.88586e-05
0.000262996
0.000262997
0.000262997
0.000262997
0.000262997
0.000262999
0.000263003
0.000262997
0.000262844
0.000261548
0.000254208
0.00022455
0.000147625
5.06123e-05
1.91227e-05
0.000262969
0.000262969
0.000262969
0.000262969
0.00026297
0.000262972
0.000262976
0.000262963
0.000262755
0.000261171
0.000252809
0.000221016
0.000142881
4.85161e-05
1.93831e-05
0.000262941
0.000262941
0.000262942
0.000262942
0.000262943
0.000262945
0.000262948
0.000262927
0.000262651
0.000260747
0.000251332
0.000217495
0.000138386
4.65927e-05
1.96395e-05
0.000262914
0.000262914
0.000262914
0.000262915
0.000262916
0.000262918
0.00026292
0.000262887
0.000262534
0.000260282
0.000249785
0.000213997
0.000134128
4.48225e-05
1.9892e-05
0.000262887
0.000262887
0.000262887
0.000262887
0.000262889
0.000262891
0.000262892
0.000262843
0.000262399
0.000259766
0.000248173
0.000210533
0.000130086
4.31893e-05
2.01402e-05
0.00026286
0.00026286
0.00026286
0.00026286
0.000262862
0.000262864
0.000262863
0.000262796
0.000262249
0.000259216
0.000246505
0.00020711
0.000126251
4.16781e-05
2.03842e-05
0.000262833
0.000262833
0.000262833
0.000262834
0.000262835
0.000262838
0.000262834
0.000262743
0.00026208
0.000258603
0.000244785
0.000203733
0.000122605
4.02779e-05
2.06238e-05
0.000262806
0.000262806
0.000262806
0.000262807
0.000262808
0.000262811
0.000262803
0.000262685
0.000261891
0.000257959
0.00024302
0.000200408
0.000119139
3.89767e-05
2.0859e-05
0.000262779
0.000262779
0.000262779
0.00026278
0.000262782
0.000262784
0.000262771
0.000262621
0.000261684
0.000257282
0.000241216
0.000197138
0.000115836
3.77671e-05
2.10895e-05
0.000262753
0.000262753
0.000262753
0.000262754
0.000262756
0.000262757
0.000262738
0.000262551
0.000261456
0.000256556
0.000239378
0.000193927
0.000112691
3.66386e-05
2.13155e-05
0.000262726
0.000262726
0.000262726
0.000262727
0.000262729
0.00026273
0.000262703
0.000262473
0.000261208
0.000255789
0.000237512
0.000190776
0.000109689
3.55873e-05
2.15367e-05
0.0002627
0.0002627
0.0002627
0.000262701
0.000262703
0.000262702
0.000262666
0.000262388
0.000260938
0.000254985
0.000235621
0.000187687
0.000106826
3.46031e-05
2.17532e-05
0.000262673
0.000262673
0.000262674
0.000262675
0.000262677
0.000262675
0.000262626
0.000262295
0.000260647
0.000254145
0.000233711
0.00018466
0.000104088
3.3685e-05
2.19647e-05
0.000262647
0.000262647
0.000262648
0.000262649
0.000262651
0.000262646
0.000262585
0.000262193
0.000260335
0.00025327
0.000231786
0.000181697
0.000101472
3.28227e-05
2.21714e-05
0.000262621
0.000262621
0.000262622
0.000262623
0.000262624
0.000262618
0.000262541
0.000262082
0.000260001
0.000252362
0.000229848
0.000178796
9.8966e-05
3.20179e-05
2.23731e-05
0.000262595
0.000262595
0.000262596
0.000262597
0.000262598
0.000262588
0.000262493
0.000261962
0.000259645
0.000251423
0.000227902
0.000175959
9.65688e-05
3.12596e-05
2.25699e-05
0.000262569
0.000262569
0.00026257
0.000262571
0.000262572
0.000262558
0.000262443
0.000261832
0.000259268
0.000250455
0.00022595
0.000173184
9.42685e-05
3.05522e-05
2.27615e-05
0.000262543
0.000262544
0.000262544
0.000262546
0.000262546
0.000262527
0.000262389
0.000261692
0.000258869
0.000249459
0.000223997
0.000170473
9.20653e-05
2.98833e-05
2.29482e-05
0.000262518
0.000262518
0.000262519
0.00026252
0.000262519
0.000262495
0.000262331
0.000261541
0.000258449
0.000248437
0.000222043
0.000167822
8.99482e-05
2.92602e-05
2.31297e-05
0.000262492
0.000262492
0.000262493
0.000262494
0.000262492
0.000262462
0.00026227
0.00026138
0.000258007
0.000247391
0.000220092
0.000165232
8.7918e-05
2.86688e-05
2.33063e-05
0.000262467
0.000262467
0.000262468
0.000262469
0.000262466
0.000262427
0.000262204
0.000261207
0.000257545
0.000246323
0.000218145
0.000162701
8.59647e-05
2.81192e-05
2.34777e-05
0.000262441
0.000262441
0.000262442
0.000262443
0.000262438
0.000262391
0.000262133
0.000261024
0.000257063
0.000245234
0.000216206
0.000160231
8.40893e-05
2.75953e-05
2.36441e-05
0.000262416
0.000262416
0.000262417
0.000262418
0.000262411
0.000262354
0.000262058
0.000260829
0.000256561
0.000244126
0.000214275
0.000157816
8.22832e-05
2.71103e-05
2.38053e-05
0.000262391
0.000262391
0.000262392
0.000262392
0.000262383
0.000262315
0.000261978
0.000260622
0.00025604
0.000243
0.000212354
0.000155459
8.05471e-05
2.66454e-05
2.39616e-05
0.000262365
0.000262366
0.000262367
0.000262366
0.000262355
0.000262274
0.000261892
0.000260403
0.000255499
0.000241859
0.000210444
0.000153156
7.88737e-05
2.62174e-05
2.41127e-05
0.00026234
0.000262341
0.000262341
0.000262341
0.000262326
0.000262232
0.000261801
0.000260173
0.000254941
0.000240702
0.000208547
0.000150909
7.72632e-05
2.58045e-05
2.42591e-05
0.000262315
0.000262316
0.000262316
0.000262315
0.000262296
0.000262187
0.000261705
0.000259931
0.000254364
0.000239533
0.000206665
0.000148713
7.57101e-05
2.54271e-05
2.44002e-05
0.00026229
0.000262291
0.000262291
0.000262289
0.000262266
0.00026214
0.000261603
0.000259677
0.000253771
0.000238352
0.000204797
0.00014657
7.42133e-05
2.506e-05
2.45368e-05
0.000262266
0.000262266
0.000262266
0.000262263
0.000262235
0.000262091
0.000261494
0.000259411
0.00025316
0.00023716
0.000202946
0.000144477
7.27694e-05
2.47278e-05
2.46681e-05
0.000262241
0.000262241
0.000262241
0.000262237
0.000262204
0.000262039
0.00026138
0.000259133
0.000252534
0.000235959
0.000201111
0.000142434
7.13759e-05
2.44012e-05
2.4795e-05
0.000262216
0.000262216
0.000262217
0.000262211
0.000262171
0.000261985
0.000261259
0.000258844
0.000251891
0.00023475
0.000199294
0.000140439
7.00314e-05
2.41094e-05
2.49168e-05
0.000262192
0.000262192
0.000262192
0.000262184
0.000262138
0.000261927
0.000261132
0.000258542
0.000251236
0.000233534
0.000197495
0.000138491
6.8732e-05
2.38189e-05
2.50343e-05
0.000262167
0.000262167
0.000262167
0.000262157
0.000262103
0.000261867
0.000260999
0.000258229
0.000250561
0.000232312
0.000195715
0.000136588
6.74785e-05
2.35635e-05
2.51467e-05
0.000262142
0.000262143
0.000262142
0.00026213
0.000262068
0.000261805
0.000260858
0.000257904
0.000249877
0.000231085
0.000193955
0.000134731
6.62648e-05
2.33049e-05
2.52551e-05
0.000262118
0.000262118
0.000262117
0.000262103
0.000262031
0.000261738
0.000260711
0.000257568
0.000249182
0.000229855
0.000192213
0.000132918
6.50945e-05
2.30826e-05
2.53585e-05
0.000262094
0.000262094
0.000262091
0.000262075
0.000261993
0.000261669
0.000260557
0.000257221
0.000248471
0.000228621
0.000190492
0.000131147
6.39593e-05
2.28524e-05
2.5458e-05
0.000262069
0.000262069
0.000262066
0.000262047
0.000261954
0.000261596
0.000260396
0.000256863
0.00024775
0.000227386
0.000188792
0.000129417
6.28654e-05
2.26601e-05
2.55527e-05
0.000262045
0.000262045
0.000262041
0.000262018
0.000261914
0.00026152
0.000260228
0.000256493
0.000247017
0.00022615
0.000187111
0.000127728
6.18021e-05
2.24552e-05
2.56437e-05
0.000262021
0.00026202
0.000262016
0.000261989
0.000261871
0.00026144
0.000260053
0.000256113
0.000246273
0.000224913
0.000185452
0.000126079
6.07784e-05
2.22904e-05
2.573e-05
0.000261997
0.000261996
0.00026199
0.000261959
0.000261828
0.000261357
0.000259871
0.000255722
0.000245519
0.000223677
0.000183813
0.000124468
5.97812e-05
2.2108e-05
2.58129e-05
0.000261973
0.000261971
0.000261964
0.000261928
0.000261782
0.00026127
0.000259682
0.000255321
0.000244757
0.000222441
0.000182196
0.000122894
5.88221e-05
2.19685e-05
2.5891e-05
0.000261948
0.000261947
0.000261938
0.000261897
0.000261735
0.000261179
0.000259486
0.00025491
0.000243985
0.000221208
0.0001806
0.000121357
5.78857e-05
2.18061e-05
2.59661e-05
0.000261924
0.000261923
0.000261912
0.000261866
0.000261686
0.000261084
0.000259282
0.000254489
0.000243205
0.000219977
0.000179024
0.000119855
5.69861e-05
2.169e-05
2.60366e-05
0.0002619
0.000261898
0.000261886
0.000261833
0.000261636
0.000260985
0.000259072
0.000254058
0.000242418
0.000218749
0.000177471
0.000118388
5.6106e-05
2.15454e-05
2.61043e-05
0.000261876
0.000261873
0.000261859
0.0002618
0.000261583
0.000260881
0.000258854
0.000253618
0.000241623
0.000217524
0.000175937
0.000116953
5.5261e-05
2.1451e-05
2.61674e-05
0.000261852
0.000261849
0.000261832
0.000261766
0.000261528
0.000260774
0.000258629
0.000253169
0.000240821
0.000216303
0.000174426
0.000115553
5.44331e-05
2.13222e-05
2.62281e-05
0.000261828
0.000261824
0.000261805
0.000261731
0.000261471
0.000260662
0.000258397
0.000252711
0.000240014
0.000215087
0.000172935
0.000114182
5.36382e-05
2.12482e-05
2.62842e-05
0.000261804
0.000261799
0.000261778
0.000261695
0.000261412
0.000260546
0.000258158
0.000252244
0.000239201
0.000213877
0.000171466
0.000112846
5.28589e-05
2.11332e-05
2.63383e-05
0.00026178
0.000261774
0.00026175
0.000261658
0.000261351
0.000260426
0.000257911
0.000251769
0.000238383
0.000212671
0.000170016
0.000111535
5.21098e-05
2.10785e-05
2.63877e-05
0.000261755
0.000261749
0.000261721
0.00026162
0.000261288
0.000260301
0.000257658
0.000251285
0.00023756
0.000211472
0.00016859
0.00011026
5.13762e-05
2.09755e-05
2.64356e-05
0.000261731
0.000261724
0.000261693
0.000261581
0.000261222
0.000260172
0.000257398
0.000250794
0.000236732
0.000210277
0.000167179
0.000109004
5.06686e-05
2.09393e-05
2.64788e-05
0.000261707
0.000261698
0.000261663
0.000261541
0.000261153
0.000260038
0.000257132
0.000250295
0.000235902
0.000209091
0.000165795
0.000107788
4.99782e-05
2.08465e-05
2.65209e-05
0.000261682
0.000261673
0.000261634
0.0002615
0.000261082
0.0002599
0.000256858
0.000249789
0.000235067
0.00020791
0.000164424
0.000106583
4.9308e-05
2.08282e-05
2.65581e-05
0.000261658
0.000261647
0.000261603
0.000261457
0.000261009
0.000259757
0.000256578
0.000249276
0.00023423
0.000206739
0.000163082
0.000105425
4.86585e-05
2.07437e-05
2.65947e-05
0.000261633
0.000261621
0.000261573
0.000261413
0.000260933
0.000259609
0.000256291
0.000248756
0.00023339
0.000205571
0.000161747
0.000104265
4.80215e-05
2.07427e-05
2.66265e-05
0.000261608
0.000261594
0.000261541
0.000261368
0.000260854
0.000259457
0.000255998
0.00024823
0.000232549
0.000204417
0.000160448
0.000103163
4.74109e-05
2.06651e-05
2.66578e-05
0.000261583
0.000261568
0.000261509
0.000261321
0.000260772
0.000259301
0.000255698
0.000247697
0.000231704
0.000203262
0.000159148
0.000102043
4.6803e-05
2.06803e-05
2.66845e-05
0.000261558
0.000261541
0.000261476
0.000261273
0.000260688
0.000259139
0.000255393
0.00024716
0.000230861
0.000202127
0.000157892
0.000100998
4.62295e-05
2.06092e-05
2.67116e-05
0.000261532
0.000261513
0.000261443
0.000261224
0.000260601
0.000258973
0.00025508
0.000246614
0.000230011
0.000200985
0.000156622
9.99114e-05
4.56457e-05
2.06374e-05
2.67307e-05
0.000261506
0.000261485
0.000261408
0.000261172
0.000260511
0.000258803
0.000254763
0.000246067
0.000229171
0.000199872
0.000155415
9.8924e-05
4.51077e-05
2.05754e-05
2.6759e-05
0.000261481
0.000261457
0.000261373
0.00026112
0.000260418
0.000258627
0.000254438
0.000245509
0.000228315
0.000198739
0.000154167
9.78618e-05
4.45412e-05
2.05988e-05
2.67705e-05
0.000261454
0.000261428
0.000261337
0.000261065
0.000260322
0.000258447
0.00025411
0.000244955
0.000227481
0.000197658
0.000153015
9.69377e-05
4.40452e-05
2.0516e-05
2.67776e-05
0.000261428
0.0002614
0.0002613
0.000261009
0.000260223
0.000258262
0.000253772
0.000244383
0.000226617
0.000196526
0.00015178
9.58832e-05
4.34347e-05
2.03809e-05
2.67574e-05
0.000261347
0.00026131
0.000261186
0.000260835
0.000259918
0.000257702
0.00025277
0.000242732
0.000224194
0.000193463
0.000148597
9.33999e-05
4.23227e-05
2.17811e-05
3.02e-05
0.000261208
0.000261154
0.000260979
0.000260508
0.000259342
0.000256657
0.000250944
0.000239787
0.000219938
0.000188108
0.000142967
8.87245e-05
3.92454e-05
2.03631e-05
4.95214e-05
0.000261044
0.000260968
0.000260727
0.000260115
0.000258672
0.000255501
0.000249038
0.0002369
0.000216048
0.000183612
0.00013874
8.56625e-05
3.75672e-05
2.28498e-05
5.91412e-05
0.000260876
0.000260772
0.000260456
0.000259685
0.000257943
0.000254264
0.000247039
0.000233915
0.000212031
0.000178857
0.000133903
8.13065e-05
3.44972e-05
2.66644e-05
8.17165e-05
0.000260678
0.00026054
0.000260133
0.000259182
0.000257117
0.000252919
0.000244962
0.000230972
0.000208316
0.000174815
0.000130198
7.83287e-05
3.31114e-05
3.3089e-05
9.92996e-05
0.000260471
0.000260294
0.000259788
0.000258642
0.000256241
0.000251522
0.000242849
0.000228017
0.00020456
0.000170511
0.000125689
7.33835e-05
3.06049e-05
4.47734e-05
0.000119654
0.000260227
0.000260005
0.000259384
0.000258025
0.000255269
0.000250023
0.000240662
0.00022508
0.000201021
0.00016678
0.000122038
6.998e-05
2.99912e-05
5.86445e-05
0.000133723
0.000259969
0.000259698
0.000258955
0.000257372
0.000254258
0.000248496
0.000238481
0.000222194
0.000197503
0.000162682
0.000117196
6.39889e-05
3.18343e-05
7.51926e-05
0.000148585
0.000259667
0.000259341
0.000258462
0.00025664
0.000253154
0.000246876
0.000236229
0.000219284
0.000194049
0.000158957
0.000113114
6.01555e-05
3.58247e-05
9.39454e-05
0.00016245
0.000259345
0.000258961
0.000257941
0.000255876
0.000252023
0.000245248
0.000234008
0.000216455
0.000190658
0.000154852
0.000107417
5.41825e-05
4.37372e-05
0.000113039
0.000176246
0.000258973
0.000258525
0.000257354
0.000255034
0.000250804
0.000243533
0.000231718
0.000213576
0.000187201
0.000150632
0.000102062
5.03456e-05
5.41845e-05
0.000131665
0.000190634
0.000258579
0.000258064
0.000256739
0.000254164
0.000249568
0.000241828
0.000229473
0.000210758
0.000183759
0.000146162
9.56093e-05
4.84601e-05
6.87708e-05
0.000149066
0.000205175
0.000258127
0.000257542
0.000256055
0.000253218
0.000248251
0.00024004
0.000227147
0.000207863
0.000180133
0.000140923
8.82352e-05
4.87889e-05
8.4579e-05
0.000165784
0.000219773
0.000257653
0.000256996
0.000255346
0.000252249
0.000246924
0.000238273
0.000224881
0.000204992
0.000176255
0.000135359
8.12476e-05
5.22936e-05
0.000103637
0.000182088
0.000234696
0.000257114
0.000256384
0.000254567
0.000251207
0.000245525
0.000236428
0.000222494
0.000201874
0.000172198
0.000129248
7.50691e-05
5.93327e-05
0.000122722
0.000196501
0.000249009
0.000256556
0.000255752
0.000253769
0.00025015
0.000244119
0.000234591
0.00022013
0.000198779
0.000167601
0.000121855
7.01474e-05
6.95791e-05
0.000141835
0.000212086
0.000263323
0.000255928
0.000255048
0.000252896
0.00024902
0.000242645
0.000232682
0.000217666
0.00019553
0.000162543
0.000114385
6.74638e-05
8.31831e-05
0.000160183
0.000227735
0.00027764
0.000255285
0.000254331
0.000252014
0.000247885
0.000241167
0.00023077
0.000215167
0.000191885
0.000157011
0.000106561
6.74936e-05
9.8883e-05
0.000178243
0.000243564
0.000292099
0.000254567
0.000253537
0.000251052
0.00024667
0.000239618
0.000228778
0.000212457
0.000188205
0.000150931
9.91471e-05
7.07112e-05
0.00011687
0.000195404
0.000259289
0.000306635
0.00025384
0.000252737
0.000250093
0.000245465
0.000238068
0.000226726
0.000209595
0.000183659
0.000143555
9.27407e-05
7.755e-05
0.000135778
0.000212402
0.000274909
0.000321229
0.000253036
0.000251857
0.000249046
0.000244165
0.00023642
0.000224587
0.000206733
0.000179089
0.000136199
8.78694e-05
8.76402e-05
0.0001549
0.000229266
0.000290407
0.000335837
0.000252226
0.000250978
0.000248014
0.000242892
0.00023479
0.000222409
0.000203432
0.000173756
0.000128439
8.55517e-05
0.000100885
0.000173767
0.000246378
0.000305872
0.000350437
0.000251343
0.000250018
0.000246885
0.000241504
0.000233033
0.000220008
0.000200008
0.000167897
0.00012083
8.59566e-05
0.000116345
0.000192642
0.000263494
0.000321445
0.00036511
0.000250452
0.000249062
0.000245785
0.000240166
0.000231275
0.000217444
0.000195791
0.000161052
0.000113692
8.9825e-05
0.000134002
0.000210828
0.00028015
0.00033691
0.000379787
0.000249497
0.000248032
0.000244579
0.000238661
0.0002293
0.000214777
0.000191708
0.000154185
0.000107906
9.70271e-05
0.000152584
0.000228904
0.000296983
0.000352393
0.000394494
0.00024853
0.000246999
0.000243396
0.000237236
0.000227473
0.000211992
0.000186704
0.000146775
0.000104012
0.0001076
0.000171649
0.000247018
0.000313731
0.000367897
0.000409238
0.000247507
0.000245901
0.000242125
0.000235645
0.000225207
0.000208634
0.000181168
0.000139425
0.000102722
0.00012087
0.000190817
0.000265098
0.000330379
0.000383377
0.000423998
0.000246472
0.000244799
0.000240857
0.000234041
0.000222956
0.000205082
0.000175081
0.000132264
0.000104367
0.000136599
0.000210007
0.00028323
0.000347036
0.000398884
0.000438793
0.000245387
0.000243634
0.000239484
0.000232284
0.000220589
0.000201188
0.000168771
0.000126238
0.000109399
0.000154095
0.000228959
0.0003012
0.000363616
0.000414376
0.000453602
0.000244287
0.000242452
0.00023813
0.000230616
0.000218001
0.000196611
0.000161887
0.000121632
0.000117686
0.000172693
0.000248047
0.000319185
0.000380224
0.000429906
0.00046845
0.000243134
0.000241235
0.000236687
0.000228504
0.000215
0.000191597
0.000155035
0.000119399
0.000129115
0.000191841
0.000267058
0.000336932
0.000396726
0.00044542
0.000483317
0.000242003
0.000239974
0.000235117
0.000226517
0.000211847
0.000186189
0.000148284
0.000119733
0.000143069
0.000211371
0.000286201
0.000354901
0.000413271
0.000460949
0.000498203
0.000240736
0.000238646
0.000233613
0.00022439
0.000208207
0.000180461
0.000142427
0.000123283
0.000159416
0.000230999
0.000305354
0.000372648
0.00042982
0.000476521
0.00051313
0.00023961
0.000237375
0.000231874
0.000221858
0.000203976
0.000174208
0.000137794
0.000130058
0.000177287
0.000250756
0.000324321
0.00039016
0.000446252
0.000492068
0.00052807
0.000238227
0.000235848
0.000230022
0.000219424
0.000199665
0.000167982
0.000135211
0.000140018
0.000196167
0.000270627
0.000343271
0.000407848
0.00046271
0.000507625
0.000543027
0.00023705
0.000234555
0.000228349
0.000216384
0.000194832
0.000161879
0.000135036
0.000152762
0.0002158
0.000290616
0.000362185
0.00042547
0.000479163
0.000523196
0.000558004
0.00023562
0.000232899
0.00022619
0.000213035
0.000189647
0.00015651
0.000137834
0.000168081
0.000235779
0.000310654
0.000381061
0.000443052
0.000495616
0.000538786
0.000573006
0.000234338
0.000231372
0.00022416
0.000209418
0.000184131
0.000152294
0.000143814
0.000185338
0.000256112
0.000330702
0.000399888
0.000460595
0.000512057
0.000554379
0.000588011
0.000232776
0.000229732
0.000221704
0.000205557
0.000178624
0.000149933
0.00015295
0.000203949
0.000276697
0.000350738
0.000418678
0.00047811
0.000528492
0.000569987
0.000603052
0.000231404
0.000228105
0.000218877
0.000201277
0.00017333
0.000149887
0.000165037
0.000223651
0.000297533
0.000370757
0.000437396
0.000495593
0.00054493
0.00058562
0.000618122
0.000229992
0.000226262
0.000216037
0.000196723
0.000168729
0.000152686
0.000179842
0.00024396
0.000318456
0.000390736
0.000456141
0.000513051
0.000561353
0.000601255
0.000633204
0.000228679
0.000224165
0.000212918
0.00019202
0.000165338
0.000158624
0.000196815
0.000264874
0.000339546
0.000410785
0.000474886
0.000530556
0.000577816
0.00061692
0.000648286
0.000226866
0.000221911
0.00020951
0.000187374
0.000163751
0.000167701
0.000215452
0.000286202
0.000360632
0.000430666
0.000493344
0.000547939
0.000594244
0.000632587
0.000663373
0.000225013
0.000219617
0.000205893
0.000183116
0.000164499
0.000179848
0.000235394
0.000307892
0.000381763
0.000450551
0.000511942
0.000565336
0.000610672
0.000648264
0.000678477
0.000223207
0.00021717
0.000202144
0.000179675
0.000168105
0.000194815
0.000256228
0.000329788
0.000402882
0.000470394
0.0005305
0.00058272
0.000627098
0.000663945
0.000693589
0.000221366
0.000214574
0.000198435
0.000177626
0.000174856
0.000212085
0.000277866
0.000351903
0.000424046
0.000490239
0.000549046
0.000600111
0.000643537
0.000679643
0.000708718
0.00021951
0.000211927
0.000195043
0.000177527
0.000184819
0.000231229
0.000300076
0.000374101
0.000445152
0.000510005
0.000567526
0.000617466
0.000659965
0.000695343
0.000723859
0.000217639
0.000209289
0.00019233
0.000179961
0.00019795
0.000251833
0.000322785
0.000396452
0.000466318
0.000529805
0.000586032
0.000634845
0.000676417
0.000711066
0.000739021
0.000215881
0.000206879
0.000190831
0.000185427
0.000213948
0.000273626
0.000345835
0.00041881
0.000487364
0.00054947
0.000604438
0.000652172
0.000692848
0.000726788
0.000754187
0.000214366
0.000204963
0.000191117
0.000194163
0.000232345
0.000296339
0.000369156
0.000441265
0.000508541
0.000569372
0.000622948
0.000669539
0.0007093
0.000742523
0.000769367
0.000213328
0.000203944
0.00019382
0.000206314
0.000252782
0.000319851
0.000392745
0.000463779
0.000529627
0.000588943
0.000641371
0.000686897
0.00072576
0.000758269
0.00078455
0.000213124
0.000204386
0.000199543
0.000221716
0.000274851
0.000343927
0.000416451
0.000486235
0.000550599
0.000608479
0.000659714
0.000704209
0.000742207
0.000774017
0.000799738
0.000214213
0.000206903
0.000208687
0.000240044
0.000298304
0.000368516
0.000440326
0.00050875
0.000571633
0.000628146
0.000678099
0.000721525
0.000758639
0.000789724
0.00081491
0.000217245
0.000212258
0.000221555
0.000260922
0.000322841
0.000393446
0.000464245
0.000531208
0.000592589
0.000647716
0.000696425
0.000738789
0.000775018
0.000805386
0.000830028
0.000222969
0.000221102
0.00023807
0.000283967
0.000348284
0.000418724
0.000488313
0.000553754
0.000613604
0.000667309
0.000714764
0.000756068
0.00079143
0.000821122
0.000845166
0.000232225
0.000234008
0.00025809
0.000308866
0.000374468
0.000444222
0.000512357
0.000576152
0.000634426
0.000686767
0.00073303
0.000773313
0.000807825
0.000836825
0.000860286
0.000245794
0.000251315
0.000281258
0.000335274
0.000401233
0.00046992
0.000536504
0.000598712
0.000655556
0.000706332
0.000751308
0.000790528
0.000824161
0.000852414
0.000875334
0.000264275
0.000273102
0.000307249
0.000362994
0.000428542
0.000495834
0.000560712
0.000621186
0.000676331
0.000725789
0.000769542
0.000807705
0.000840451
0.000867945
0.000890303
0.000287873
0.000299162
0.000335712
0.000391816
0.000456266
0.000521841
0.000584849
0.000643502
0.00069697
0.000745101
0.000787671
0.000824795
0.000856641
0.000883385
0.000905173
0.000316336
0.000329087
0.000366325
0.0004216
0.000484365
0.000547967
0.00060901
0.000665847
0.00071772
0.000764361
0.000805667
0.000841701
0.000872608
0.000898627
0.000919855
0.000349014
0.000362297
0.000398791
0.000452236
0.000512792
0.000574168
0.000633124
0.000688084
0.00073833
0.000783528
0.000823593
0.000858582
0.000888636
0.000913812
0.000934408
0.000384987
0.0003981
0.000432799
0.000483605
0.000541492
0.000600426
0.000657231
0.000710353
0.000758849
0.000802576
0.000841396
0.000875331
0.000904493
0.00092884
0.000948783
0.000423238
0.000435739
0.000468001
0.000515611
0.000570487
0.000626818
0.000681405
0.000732603
0.000779349
0.000821565
0.000859092
0.000891917
0.000920107
0.00094364
0.000962924
0.000462838
0.000474513
0.000504067
0.000548157
0.000599732
0.000653224
0.000705354
0.000754354
0.00079951
0.000840252
0.000876454
0.000908094
0.000935391
0.000958127
0.000976767
0.000503013
0.000513785
0.000540588
0.000581002
0.000629051
0.000679511
0.00072911
0.000776056
0.000819457
0.000858725
0.000893678
0.00092429
0.000950531
0.00097238
0.000990333
0.0005431
0.000552968
0.000577141
0.000613934
0.00065843
0.000705864
0.000753024
0.000797763
0.000839317
0.000877065
0.000910725
0.000940189
0.000965415
0.000986366
0.00100359
0.000582637
0.000591665
0.000613451
0.000646839
0.000687858
0.000732214
0.000776737
0.000819247
0.000858872
0.000894965
0.000927185
0.000955531
0.00097981
0.000999937
0.00101644
0.000621295
0.00062955
0.000649183
0.000679371
0.000716934
0.000758074
0.000799764
0.000840267
0.00087811
0.000912672
0.00094362
0.000970687
0.00099389
0.00101314
0.00102889
0.000658828
0.000666358
0.000684042
0.000711293
0.000745615
0.000783766
0.000822835
0.000861057
0.000897039
0.000930034
0.000959621
0.000985467
0.00100759
0.00102596
0.00104094
0.000694925
0.000701826
0.000717849
0.000742544
0.000773946
0.000809267
0.000845605
0.000881454
0.000915463
0.000946807
0.000974966
0.000999678
0.00102078
0.00103829
0.00105252
0.000729818
0.000736134
0.000750644
0.000772951
0.000801471
0.000833798
0.000867884
0.000901635
0.000933835
0.000963503
0.00099012
0.00101356
0.00103357
0.00105019
0.00106365
0.000762852
0.000768619
0.000781759
0.00080193
0.000827897
0.000857637
0.000889271
0.000920852
0.000951135
0.000979252
0.00100457
0.00102684
0.00104583
0.00106158
0.0010743
0.000794646
0.00079996
0.000811978
0.000830389
0.000854203
0.000881422
0.000910651
0.000940202
0.000968484
0.000994764
0.00101862
0.00103967
0.00105761
0.00107251
0.00108447
0.000824554
0.000829411
0.000840318
0.000856956
0.000878481
0.000903715
0.000930739
0.000958102
0.00098477
0.00100954
0.00103206
0.00105194
0.00106886
0.00108294
0.00109417
0.000853057
0.000857527
0.000867516
0.000882729
0.000902244
0.000925379
0.00095038
0.000975908
0.00100056
0.00102377
0.00104494
0.00106368
0.00107961
0.0010929
0.00110343
0.000879801
0.000883914
0.000893056
0.000906934
0.00092489
0.000946017
0.000969028
0.00099268
0.00101565
0.00103737
0.00105725
0.00107487
0.00108986
0.00110238
0.00111227
0.000905141
0.00090892
0.000917287
0.000929613
0.000946235
0.000965699
0.000986968
0.00100866
0.00103004
0.00105034
0.00106897
0.00108553
0.00109962
0.00111143
0.00112072
0.000928723
0.000932228
0.000939793
0.000951364
0.000966492
0.000984365
0.00100391
0.00102391
0.00104375
0.00106269
0.00108013
0.00109567
0.00110892
0.00112007
0.00112883
0.000951238
0.00095417
0.000960911
0.000971702
0.000985599
0.001002
0.00101978
0.00103831
0.00105675
0.00107441
0.00109074
0.00110533
0.00111781
0.00112835
0.00113665
0.000971098
0.000973997
0.000980735
0.000990647
0.00100347
0.00101854
0.00103485
0.00105196
0.00106908
0.00108555
0.00110083
0.00111455
0.00112632
0.00113632
0.00114424
0.000990251
0.000993299
0.000999583
0.00100892
0.00102051
0.00103401
0.00104903
0.00106485
0.00108076
0.00109612
0.00111045
0.00112336
0.00113452
0.00114406
0.00115169
0.00100894
0.00101167
0.00101755
0.00102565
0.00103624
0.00104858
0.0010624
0.00107704
0.00109182
0.00110618
0.00111964
0.00113183
0.00114246
0.00115163
0.00115906
0.00102635
0.0010288
0.00103374
0.00104141
0.00105084
0.0010622
0.00107497
0.00108854
0.00110232
0.00111578
0.00112847
0.00114003
0.00115021
0.0011591
0.00116644
0.00104219
0.00104444
0.00104916
0.00105572
0.00106444
0.00107496
0.0010868
0.00109943
0.00111232
0.00112498
0.001137
0.00114804
0.00115788
0.00116659
0.00117394
0.00105729
0.00105915
0.00106304
0.0010691
0.00107718
0.00108695
0.00109797
0.00110978
0.00112189
0.00113386
0.00114531
0.00115594
0.00116555
0.00117418
0.00118167
0.00107038
0.00107201