/*--------------------------------*- C++ -*----------------------------------*\
  =========                 |
  \\      /  F ield         | OpenFOAM: The Open Source CFD Toolbox
   \\    /   O peration     | Website:  https://openfoam.org
    \\  /    A nd           | Version:  7
     \\/     M anipulation  |
\*---------------------------------------------------------------------------*/
FoamFile
{
    version     2.0;
    format      ascii;
    class       volScalarField;
    location    "200";
    object      p;
}
// * * * * * * * * * * * * * * * * * * * * * * * * * * * * * * * * * * * * * //

dimensions      [0 2 -2 0 0 0 0];

internalField   nonuniform List<scalar> 
32100
(
2.40382
2.40384
2.40388
2.40394
2.40402
2.4041
2.40417
2.40421
2.40417
2.40395
2.40334
2.40204
2.3962
2.36758
2.49046
2.40381
2.40383
2.40387
2.40393
2.40401
2.4041
2.40418
2.40424
2.40424
2.40411
2.40362
2.40294
2.40652
2.37274
2.46942
2.40377
2.4038
2.40384
2.40391
2.40399
2.40409
2.4042
2.4043
2.40439
2.40448
2.40453
2.40368
2.41468
2.38095
2.44861
2.40371
2.40374
2.40379
2.40386
2.40396
2.40408
2.40422
2.40438
2.40457
2.40484
2.40558
2.40369
2.41749
2.38792
2.43596
2.40363
2.40366
2.40371
2.40379
2.4039
2.40404
2.40421
2.40443
2.40471
2.40502
2.40631
2.40347
2.41745
2.39231
2.42906
2.40353
2.40356
2.40361
2.4037
2.40382
2.40398
2.40418
2.40443
2.40477
2.40501
2.40671
2.40335
2.41669
2.39469
2.42443
2.4034
2.40343
2.40349
2.40358
2.40371
2.40388
2.40409
2.40436
2.40477
2.4049
2.40684
2.40328
2.41578
2.39606
2.42073
2.40324
2.40327
2.40333
2.40343
2.40357
2.40374
2.40397
2.40424
2.40469
2.40472
2.40679
2.40314
2.41479
2.39713
2.41766
2.40305
2.40308
2.40315
2.40325
2.40338
2.40356
2.4038
2.40406
2.40454
2.40449
2.40659
2.40294
2.41371
2.39803
2.41515
2.40283
2.40287
2.40293
2.40303
2.40317
2.40335
2.40358
2.40382
2.40432
2.4042
2.40628
2.40269
2.41259
2.39873
2.4131
2.40258
2.40262
2.40268
2.40278
2.40292
2.40309
2.40332
2.40354
2.40404
2.40386
2.40589
2.40242
2.41147
2.39922
2.41136
2.4023
2.40234
2.4024
2.40249
2.40263
2.4028
2.40302
2.40322
2.40372
2.40349
2.40545
2.40213
2.41038
2.39955
2.40985
2.40199
2.40203
2.40208
2.40218
2.40231
2.40247
2.40269
2.40286
2.40335
2.40309
2.40495
2.40182
2.40933
2.39974
2.40852
2.40165
2.40169
2.40174
2.40183
2.40196
2.40211
2.40232
2.40247
2.40294
2.40266
2.40442
2.40148
2.40831
2.39983
2.40733
2.40128
2.40132
2.40137
2.40146
2.40158
2.40172
2.40192
2.40205
2.4025
2.40221
2.40387
2.40113
2.40732
2.39982
2.40626
2.40089
2.40093
2.40097
2.40106
2.40117
2.4013
2.40149
2.40161
2.40204
2.40174
2.40329
2.40074
2.40637
2.39973
2.40526
2.40047
2.40051
2.40055
2.40063
2.40074
2.40086
2.40104
2.40114
2.40155
2.40125
2.4027
2.40034
2.40545
2.39956
2.40433
2.40003
2.40007
2.40011
2.40018
2.40028
2.40039
2.40056
2.40065
2.40103
2.40074
2.4021
2.39992
2.40455
2.39934
2.40346
2.39956
2.3996
2.39964
2.39971
2.3998
2.3999
2.40006
2.40014
2.4005
2.40022
2.40148
2.39948
2.40368
2.39906
2.40262
2.39908
2.39912
2.39915
2.39922
2.3993
2.39939
2.39955
2.39961
2.39995
2.39968
2.40086
2.39902
2.40283
2.39874
2.40181
2.39858
2.39861
2.39864
2.3987
2.39878
2.39887
2.39901
2.39907
2.39939
2.39913
2.40022
2.39854
2.402
2.39837
2.40103
2.39805
2.39809
2.39812
2.39817
2.39825
2.39833
2.39846
2.39851
2.39881
2.39857
2.39958
2.39804
2.40118
2.39797
2.40026
2.39751
2.39755
2.39758
2.39763
2.3977
2.39777
2.3979
2.39794
2.39822
2.398
2.39893
2.39753
2.40038
2.39753
2.39951
2.39696
2.397
2.39702
2.39707
2.39713
2.3972
2.39732
2.39736
2.39762
2.39741
2.39828
2.397
2.39958
2.39707
2.39877
2.39639
2.39643
2.39645
2.39649
2.39655
2.39661
2.39673
2.39676
2.39701
2.39681
2.39762
2.39645
2.3988
2.39658
2.39803
2.39581
2.39584
2.39586
2.3959
2.39596
2.39602
2.39612
2.39615
2.39639
2.39621
2.39695
2.39589
2.39802
2.39607
2.39731
2.39521
2.39525
2.39526
2.3953
2.39535
2.39541
2.39551
2.39554
2.39576
2.39559
2.39628
2.39532
2.39725
2.39553
2.39658
2.3946
2.39464
2.39465
2.39469
2.39474
2.39479
2.39488
2.39491
2.39511
2.39496
2.3956
2.39473
2.39648
2.39497
2.39586
2.39398
2.39402
2.39403
2.39406
2.39411
2.39416
2.39424
2.39427
2.39446
2.39432
2.39492
2.39413
2.39571
2.3944
2.39513
2.39335
2.39339
2.3934
2.39343
2.39347
2.39352
2.3936
2.39363
2.39381
2.39368
2.39423
2.39352
2.39495
2.39381
2.39441
2.39271
2.39274
2.39275
2.39279
2.39283
2.39287
2.39295
2.39297
2.39314
2.39302
2.39354
2.3929
2.39419
2.3932
2.39368
2.39206
2.39209
2.3921
2.39213
2.39217
2.39221
2.39228
2.39231
2.39246
2.39236
2.39284
2.39226
2.39343
2.39258
2.39296
2.3914
2.39143
2.39144
2.39147
2.39151
2.39154
2.39161
2.39164
2.39178
2.39169
2.39213
2.39162
2.39267
2.39194
2.39223
2.39073
2.39077
2.39077
2.3908
2.39083
2.39087
2.39093
2.39096
2.3911
2.39101
2.39142
2.39096
2.3919
2.39129
2.3915
2.39006
2.39009
2.39009
2.39012
2.39015
2.39019
2.39025
2.39027
2.3904
2.39033
2.3907
2.3903
2.39114
2.39063
2.39076
2.38937
2.38941
2.38941
2.38944
2.38947
2.3895
2.38956
2.38958
2.3897
2.38964
2.38998
2.38963
2.39038
2.38996
2.39002
2.38868
2.38872
2.38872
2.38874
2.38877
2.3888
2.38886
2.38888
2.38899
2.38894
2.38926
2.38895
2.38962
2.38928
2.38928
2.38799
2.38802
2.38802
2.38804
2.38807
2.3881
2.38815
2.38817
2.38828
2.38823
2.38852
2.38826
2.38885
2.38859
2.38854
2.38728
2.38732
2.38731
2.38734
2.38736
2.38739
2.38744
2.38746
2.38756
2.38752
2.38779
2.38756
2.38808
2.38789
2.38779
2.38657
2.38661
2.3866
2.38663
2.38665
2.38668
2.38672
2.38674
2.38684
2.3868
2.38705
2.38685
2.38731
2.38718
2.38704
2.38586
2.38589
2.38589
2.38591
2.38593
2.38596
2.386
2.38602
2.38611
2.38608
2.38631
2.38614
2.38654
2.38646
2.38628
2.38513
2.38517
2.38516
2.38518
2.38521
2.38523
2.38527
2.38529
2.38537
2.38535
2.38556
2.38542
2.38577
2.38574
2.38553
2.38441
2.38444
2.38444
2.38446
2.38448
2.3845
2.38454
2.38456
2.38463
2.38461
2.38481
2.3847
2.38499
2.385
2.38476
2.38368
2.38371
2.3837
2.38372
2.38374
2.38376
2.3838
2.38382
2.38389
2.38388
2.38405
2.38396
2.38422
2.38427
2.384
2.38294
2.38297
2.38297
2.38298
2.383
2.38302
2.38306
2.38307
2.38314
2.38313
2.38329
2.38323
2.38344
2.38352
2.38323
2.3822
2.38223
2.38223
2.38224
2.38226
2.38228
2.38231
2.38233
2.38239
2.38238
2.38253
2.38249
2.38266
2.38277
2.38246
2.38145
2.38149
2.38148
2.3815
2.38151
2.38153
2.38156
2.38158
2.38163
2.38163
2.38176
2.38174
2.38187
2.38202
2.38169
2.3807
2.38074
2.38073
2.38074
2.38076
2.38078
2.3808
2.38082
2.38087
2.38088
2.38099
2.38099
2.38109
2.38125
2.38091
2.37995
2.37998
2.37998
2.37999
2.38
2.38002
2.38005
2.38006
2.38011
2.38012
2.38022
2.38023
2.3803
2.38049
2.38013
2.37919
2.37923
2.37922
2.37923
2.37925
2.37926
2.37928
2.3793
2.37934
2.37935
2.37944
2.37947
2.37951
2.37972
2.37935
2.37843
2.37847
2.37846
2.37847
2.37848
2.3785
2.37852
2.37853
2.37857
2.37859
2.37867
2.37871
2.37872
2.37895
2.37857
2.37767
2.3777
2.37769
2.37771
2.37772
2.37773
2.37775
2.37777
2.3778
2.37782
2.37789
2.37794
2.37793
2.37817
2.37778
2.3769
2.37694
2.37693
2.37694
2.37695
2.37696
2.37698
2.37699
2.37703
2.37704
2.3771
2.37717
2.37714
2.37739
2.377
2.37614
2.37617
2.37616
2.37617
2.37618
2.37619
2.37621
2.37622
2.37625
2.37627
2.37632
2.37639
2.37634
2.37661
2.37621
2.37536
2.3754
2.37539
2.3754
2.37541
2.37542
2.37543
2.37544
2.37547
2.37549
2.37553
2.37562
2.37555
2.37582
2.37542
2.37459
2.37462
2.37461
2.37462
2.37463
2.37464
2.37465
2.37467
2.37469
2.37471
2.37475
2.37484
2.37475
2.37503
2.37463
2.37382
2.37385
2.37384
2.37385
2.37385
2.37386
2.37387
2.37388
2.37391
2.37393
2.37396
2.37406
2.37396
2.37424
2.37383
2.37304
2.37307
2.37306
2.37307
2.37307
2.37308
2.37309
2.3731
2.37312
2.37315
2.37317
2.37327
2.37316
2.37345
2.37304
2.37226
2.37229
2.37228
2.37229
2.37229
2.3723
2.37231
2.37232
2.37234
2.37236
2.37237
2.37249
2.37236
2.37266
2.37224
2.37148
2.37151
2.3715
2.37151
2.37151
2.37151
2.37152
2.37153
2.37155
2.37157
2.37158
2.3717
2.37156
2.37186
2.37145
2.3707
2.37073
2.37071
2.37072
2.37072
2.37073
2.37074
2.37075
2.37076
2.37079
2.37079
2.37091
2.37076
2.37106
2.37065
2.36991
2.36994
2.36993
2.36994
2.36994
2.36994
2.36995
2.36996
2.36997
2.37
2.36999
2.37012
2.36996
2.37027
2.36986
2.36913
2.36916
2.36915
2.36915
2.36915
2.36916
2.36916
2.36917
2.36918
2.36921
2.3692
2.36933
2.36916
2.36947
2.36906
2.36834
2.36837
2.36836
2.36836
2.36836
2.36837
2.36837
2.36838
2.36838
2.36841
2.3684
2.36854
2.36836
2.36867
2.36827
2.36756
2.36759
2.36757
2.36758
2.36758
2.36758
2.36758
2.36758
2.36759
2.36762
2.3676
2.36774
2.36756
2.36787
2.36747
2.36677
2.3668
2.36679
2.36679
2.36679
2.36679
2.36679
2.36679
2.36679
2.36683
2.3668
2.36695
2.36676
2.36707
2.36668
2.36599
2.36602
2.366
2.366
2.366
2.366
2.36599
2.366
2.366
2.36603
2.366
2.36615
2.36596
2.36627
2.36588
2.3652
2.36523
2.36521
2.36521
2.36521
2.3652
2.3652
2.3652
2.3652
2.36523
2.3652
2.36535
2.36517
2.36547
2.36509
2.36442
2.36445
2.36443
2.36443
2.36442
2.36441
2.36441
2.36441
2.3644
2.36443
2.3644
2.36456
2.36437
2.36467
2.3643
2.36364
2.36367
2.36364
2.36364
2.36363
2.36362
2.36361
2.36361
2.3636
2.36363
2.3636
2.36376
2.36357
2.36388
2.36352
2.36286
2.36288
2.36286
2.36286
2.36284
2.36283
2.36282
2.36281
2.3628
2.36283
2.36279
2.36295
2.36277
2.36308
2.36274
2.36208
2.36211
2.36208
2.36207
2.36206
2.36204
2.36202
2.36201
2.36199
2.36202
2.36199
2.36215
2.36197
2.36228
2.36197
2.36131
2.36133
2.36131
2.36129
2.36127
2.36125
2.36122
2.36121
2.36119
2.36121
2.36117
2.36134
2.36116
2.36149
2.3612
2.36054
2.36056
2.36054
2.36052
2.36049
2.36046
2.36043
2.36041
2.36038
2.3604
2.36035
2.36052
2.36036
2.36069
2.36045
2.35978
2.3598
2.35977
2.35975
2.35971
2.35968
2.35964
2.3596
2.35956
2.35958
2.35952
2.35969
2.35954
2.35989
2.35971
2.35903
2.35905
2.35901
2.35898
2.35894
2.3589
2.35885
2.3588
2.35875
2.35875
2.35868
2.35885
2.35871
2.35908
2.359
2.35828
2.3583
2.35826
2.35823
2.35818
2.35812
2.35806
2.358
2.35793
2.35791
2.35783
2.35798
2.35785
2.35825
2.35832
2.35755
2.35756
2.35752
2.35748
2.35742
2.35736
2.35728
2.3572
2.35711
2.35706
2.35695
2.35709
2.35696
2.3574
2.35774
2.35683
2.35684
2.35679
2.35675
2.35668
2.3566
2.35651
2.35641
2.35629
2.35621
2.35606
2.35614
2.35601
2.35642
2.35701
2.35613
2.35613
2.35608
2.35603
2.35595
2.35586
2.35574
2.35562
2.35547
2.35535
2.35516
2.35516
2.35501
2.35548
2.35711
2.3541
2.35409
2.35404
2.35396
2.35385
2.35372
2.35356
2.35336
2.35313
2.35286
2.35251
2.35212
2.35156
2.35082
2.34792
2.35111
2.35109
2.35102
2.35092
2.35078
2.3506
2.35037
2.35009
2.34975
2.34934
2.34884
2.34823
2.34738
2.34719
2.34876
2.34896
2.34894
2.34888
2.34879
2.34866
2.34851
2.34832
2.3481
2.34785
2.34758
2.3473
2.34703
2.34646
2.34583
2.34709
2.34762
2.34761
2.34757
2.34751
2.34743
2.34734
2.34723
2.34711
2.34698
2.34683
2.34669
2.34661
2.34642
2.34583
2.34579
2.34674
2.34673
2.34671
2.34667
2.34662
2.34655
2.34648
2.34639
2.34629
2.34617
2.34602
2.34589
2.3458
2.3454
2.34421
2.34609
2.34608
2.34606
2.34603
2.34599
2.34594
2.34588
2.34581
2.34573
2.34564
2.34553
2.3454
2.34542
2.34544
2.34364
2.34564
2.34563
2.34562
2.3456
2.34557
2.34553
2.34549
2.34545
2.3454
2.34535
2.34528
2.34516
2.34515
2.34531
2.34325
2.34537
2.34536
2.34535
2.34534
2.34532
2.3453
2.34527
2.34525
2.34521
2.34518
2.34515
2.34504
2.34503
2.34513
2.34296
2.3452
2.3452
2.34519
2.34518
2.34517
2.34516
2.34514
2.34512
2.3451
2.34508
2.34506
2.34498
2.34501
2.34491
2.34284
2.34509
2.34509
2.34508
2.34508
2.34507
2.34506
2.34505
2.34504
2.34502
2.34501
2.34499
2.34493
2.34502
2.34466
2.34279
2.34502
2.34502
2.34502
2.34501
2.34501
2.345
2.34499
2.34499
2.34498
2.34496
2.34494
2.34489
2.34503
2.34438
2.34278
2.34499
2.34498
2.34498
2.34498
2.34498
2.34497
2.34496
2.34496
2.34495
2.34494
2.34492
2.34487
2.34503
2.34413
2.34279
2.34497
2.34497
2.34497
2.34497
2.34496
2.34496
2.34496
2.34495
2.34495
2.34494
2.34492
2.3449
2.34502
2.34396
2.34281
2.34497
2.34497
2.34497
2.34497
2.34497
2.34497
2.34496
2.34496
2.34496
2.34495
2.34493
2.34494
2.34495
2.34383
2.34284
2.34499
2.34499
2.34499
2.34498
2.34498
2.34498
2.34498
2.34498
2.34497
2.34496
2.34493
2.34498
2.34483
2.34375
2.34286
2.34501
2.34501
2.34501
2.34501
2.34501
2.345
2.345
2.345
2.34499
2.34498
2.34496
2.34504
2.34471
2.3437
2.34285
2.34504
2.34504
2.34504
2.34504
2.34504
2.34503
2.34503
2.34503
2.34503
2.34501
2.34499
2.34509
2.3446
2.34368
2.34285
2.34508
2.34508
2.34508
2.34508
2.34507
2.34507
2.34507
2.34507
2.34507
2.34505
2.34504
2.34512
2.3445
2.34368
2.34286
2.34512
2.34512
2.34512
2.34512
2.34512
2.34512
2.34512
2.34511
2.34511
2.34509
2.34511
2.34511
2.34442
2.34368
2.34289
2.34517
2.34517
2.34517
2.34516
2.34516
2.34516
2.34516
2.34516
2.34515
2.34513
2.34517
2.34508
2.34437
2.34367
2.34291
2.34521
2.34521
2.34521
2.34521
2.34521
2.34521
2.34521
2.34521
2.3452
2.34518
2.34524
2.34503
2.34433
2.34366
2.34292
2.34527
2.34527
2.34527
2.34527
2.34527
2.34526
2.34526
2.34526
2.34525
2.34524
2.3453
2.34498
2.34432
2.34366
2.34294
2.34532
2.34532
2.34532
2.34532
2.34532
2.34532
2.34532
2.34531
2.3453
2.3453
2.34534
2.34492
2.34431
2.34367
2.34297
2.34538
2.34538
2.34538
2.34538
2.34538
2.34538
2.34537
2.34537
2.34535
2.34537
2.34536
2.34488
2.34431
2.34368
2.343
2.34544
2.34544
2.34544
2.34544
2.34544
2.34544
2.34543
2.34543
2.34541
2.34545
2.34536
2.34485
2.3443
2.34368
2.34302
2.3455
2.3455
2.3455
2.3455
2.3455
2.3455
2.3455
2.34549
2.34548
2.34552
2.34535
2.34484
2.3443
2.34369
2.34305
2.34557
2.34557
2.34557
2.34557
2.34557
2.34557
2.34556
2.34555
2.34555
2.34558
2.34533
2.34484
2.3443
2.34371
2.34309
2.34564
2.34564
2.34564
2.34564
2.34564
2.34563
2.34563
2.34562
2.34563
2.34564
2.34532
2.34484
2.34431
2.34372
2.34312
2.34571
2.34571
2.34571
2.34571
2.34571
2.34571
2.3457
2.34569
2.34571
2.34567
2.34531
2.34485
2.34432
2.34375
2.34316
2.34579
2.34579
2.34579
2.34579
2.34579
2.34578
2.34578
2.34577
2.34579
2.3457
2.34531
2.34485
2.34433
2.34377
2.3432
2.34587
2.34587
2.34587
2.34587
2.34587
2.34586
2.34586
2.34585
2.34588
2.34572
2.34532
2.34487
2.34435
2.3438
2.34324
2.34596
2.34596
2.34596
2.34595
2.34595
2.34595
2.34594
2.34594
2.34596
2.34574
2.34534
2.34489
2.34437
2.34383
2.34329
2.34605
2.34605
2.34605
2.34605
2.34604
2.34604
2.34603
2.34604
2.34602
2.34576
2.34536
2.34491
2.3444
2.34388
2.34335
2.34614
2.34614
2.34614
2.34614
2.34614
2.34613
2.34612
2.34614
2.34608
2.34578
2.34539
2.34494
2.34444
2.34392
2.3434
2.34624
2.34624
2.34624
2.34624
2.34624
2.34623
2.34623
2.34624
2.34614
2.34582
2.34542
2.34497
2.34448
2.34397
2.34347
2.34635
2.34635
2.34635
2.34635
2.34635
2.34634
2.34634
2.34635
2.34619
2.34586
2.34546
2.34501
2.34452
2.34403
2.34353
2.34647
2.34647
2.34647
2.34646
2.34646
2.34645
2.34646
2.34645
2.34625
2.34591
2.34551
2.34505
2.34457
2.34409
2.3436
2.34659
2.34659
2.34659
2.34659
2.34658
2.34657
2.34658
2.34654
2.34631
2.34596
2.34556
2.34511
2.34463
2.34415
2.34368
2.34672
2.34672
2.34672
2.34671
2.34671
2.3467
2.34671
2.34664
2.34637
2.34602
2.34561
2.34517
2.3447
2.34423
2.34377
2.34685
2.34685
2.34685
2.34685
2.34684
2.34684
2.34685
2.34673
2.34644
2.34608
2.34567
2.34523
2.34477
2.34431
2.34386
2.347
2.34699
2.34699
2.34699
2.34698
2.34699
2.34698
2.34682
2.34652
2.34615
2.34574
2.3453
2.34485
2.3444
2.34395
2.34714
2.34714
2.34714
2.34714
2.34713
2.34714
2.3471
2.34691
2.3466
2.34623
2.34582
2.34538
2.34493
2.34449
2.34405
2.3473
2.3473
2.3473
2.34729
2.34729
2.3473
2.34723
2.347
2.34668
2.34631
2.3459
2.34547
2.34503
2.34459
2.34416
2.34746
2.34746
2.34746
2.34745
2.34746
2.34745
2.34735
2.3471
2.34677
2.34639
2.34598
2.34555
2.34512
2.34469
2.34427
2.34763
2.34763
2.34763
2.34762
2.34763
2.34761
2.34747
2.3472
2.34686
2.34648
2.34607
2.34565
2.34522
2.3448
2.34439
2.3478
2.3478
2.3478
2.3478
2.3478
2.34776
2.34758
2.3473
2.34696
2.34657
2.34616
2.34574
2.34532
2.34491
2.34451
2.34798
2.34798
2.34797
2.34797
2.34797
2.3479
2.3477
2.3474
2.34705
2.34666
2.34626
2.34584
2.34543
2.34502
2.34463
2.34816
2.34815
2.34815
2.34815
2.34814
2.34804
2.34781
2.3475
2.34714
2.34675
2.34635
2.34594
2.34553
2.34513
2.34475
2.34834
2.34833
2.34833
2.34833
2.34831
2.34816
2.34791
2.34759
2.34723
2.34684
2.34644
2.34604
2.34563
2.34524
2.34486
2.34851
2.3485
2.34851
2.3485
2.34845
2.34828
2.34801
2.34768
2.34731
2.34692
2.34652
2.34612
2.34573
2.34534
2.34497
2.34868
2.34867
2.34868
2.34867
2.34858
2.34838
2.34809
2.34775
2.34738
2.347
2.3466
2.34621
2.34582
2.34544
2.34508
2.34885
2.34883
2.34884
2.34881
2.34869
2.34846
2.34816
2.34781
2.34744
2.34705
2.34666
2.34627
2.34589
2.34552
2.34517
2.349
2.34899
2.34898
2.34893
2.34878
2.34852
2.34821
2.34785
2.34748
2.34709
2.34671
2.34632
2.34595
2.34559
2.34524
2.34914
2.34912
2.34911
2.34903
2.34884
2.34856
2.34823
2.34788
2.3475
2.34711
2.34673
2.34635
2.34598
2.34563
2.34529
2.34927
2.34924
2.34921
2.34909
2.34887
2.34857
2.34823
2.34787
2.34749
2.34711
2.34673
2.34636
2.34599
2.34565
2.34531
2.34937
2.34932
2.34927
2.34911
2.34886
2.34854
2.3482
2.34783
2.34745
2.34707
2.34669
2.34633
2.34597
2.34563
2.3453
2.34945
2.34938
2.34929
2.34909
2.34881
2.34848
2.34812
2.34775
2.34737
2.34699
2.34662
2.34626
2.34591
2.34558
2.34526
2.34949
2.34938
2.34926
2.34902
2.34871
2.34837
2.348
2.34762
2.34724
2.34687
2.3465
2.34615
2.34581
2.34548
2.34517
2.34949
2.34933
2.34917
2.34889
2.34856
2.3482
2.34783
2.34745
2.34707
2.3467
2.34634
2.34599
2.34565
2.34533
2.34503
2.34943
2.34921
2.34901
2.34871
2.34835
2.34798
2.3476
2.34722
2.34684
2.34647
2.34612
2.34577
2.34544
2.34513
2.34484
2.34929
2.34902
2.34879
2.34846
2.34808
2.3477
2.34731
2.34693
2.34655
2.34619
2.34583
2.34549
2.34517
2.34487
2.34458
2.34906
2.34874
2.34848
2.34813
2.34774
2.34735
2.34696
2.34657
2.34619
2.34583
2.34548
2.34515
2.34483
2.34454
2.34426
2.34873
2.34836
2.34809
2.34772
2.34732
2.34692
2.34652
2.34614
2.34576
2.3454
2.34506
2.34473
2.34442
2.34413
2.34386
2.34828
2.34787
2.3476
2.34722
2.34682
2.34641
2.34601
2.34563
2.34526
2.3449
2.34456
2.34424
2.34394
2.34366
2.34339
2.34771
2.34728
2.34701
2.34664
2.34623
2.34582
2.34542
2.34504
2.34467
2.34432
2.34398
2.34367
2.34337
2.3431
2.34284
2.34702
2.34657
2.34631
2.34595
2.34554
2.34514
2.34474
2.34436
2.34399
2.34365
2.34332
2.34301
2.34272
2.34246
2.34221
2.3462
2.34575
2.34551
2.34515
2.34476
2.34436
2.34397
2.34359
2.34323
2.34289
2.34257
2.34227
2.34199
2.34173
2.34149
2.34527
2.34481
2.34459
2.34426
2.34387
2.34348
2.3431
2.34273
2.34238
2.34205
2.34173
2.34144
2.34117
2.34091
2.34068
2.34423
2.34376
2.34356
2.34325
2.34289
2.34251
2.34214
2.34178
2.34144
2.34111
2.34081
2.34052
2.34025
2.34001
2.33978
2.34307
2.34261
2.34243
2.34214
2.3418
2.34144
2.34108
2.34073
2.3404
2.34008
2.33979
2.33951
2.33925
2.33901
2.3388
2.3418
2.34134
2.34119
2.34093
2.3406
2.34026
2.33992
2.33959
2.33927
2.33896
2.33868
2.33841
2.33816
2.33793
2.33772
2.34044
2.33999
2.33985
2.33962
2.33932
2.339
2.33867
2.33835
2.33805
2.33775
2.33748
2.33722
2.33698
2.33676
2.33656
2.33898
2.33853
2.33842
2.33821
2.33793
2.33763
2.33733
2.33702
2.33673
2.33645
2.33619
2.33594
2.33571
2.3355
2.3353
2.33742
2.33699
2.33689
2.3367
2.33645
2.33618
2.33589
2.33561
2.33533
2.33507
2.33482
2.33458
2.33436
2.33416
2.33397
2.33579
2.33536
2.33528
2.33511
2.33488
2.33463
2.33437
2.3341
2.33384
2.33359
2.33335
2.33313
2.33292
2.33273
2.33254
2.33407
2.33366
2.33359
2.33344
2.33324
2.333
2.33276
2.33251
2.33227
2.33204
2.33181
2.3316
2.3314
2.33121
2.33104
2.33228
2.33188
2.33183
2.3317
2.33151
2.3313
2.33107
2.33085
2.33062
2.3304
2.33019
2.32999
2.3298
2.32962
2.32946
2.33042
2.33004
2.33
2.32988
2.32971
2.32952
2.32932
2.32911
2.3289
2.3287
2.3285
2.32831
2.32813
2.32796
2.3278
2.3285
2.32813
2.3281
2.328
2.32785
2.32768
2.32749
2.3273
2.32711
2.32692
2.32673
2.32655
2.32638
2.32622
2.32606
2.32653
2.32617
2.32615
2.32606
2.32593
2.32577
2.3256
2.32543
2.32525
2.32507
2.3249
2.32473
2.32457
2.32441
2.32426
2.32451
2.32417
2.32415
2.32407
2.32395
2.32381
2.32366
2.3235
2.32333
2.32317
2.32301
2.32285
2.32269
2.32254
2.3224
2.32245
2.32212
2.32211
2.32204
2.32193
2.3218
2.32167
2.32152
2.32137
2.32121
2.32106
2.32091
2.32076
2.32062
2.32047
2.32035
2.32004
2.32003
2.31997
2.31987
2.31976
2.31963
2.31949
2.31935
2.31921
2.31906
2.31892
2.31878
2.31864
2.31849
2.31823
2.31793
2.31792
2.31787
2.31778
2.31768
2.31756
2.31743
2.3173
2.31717
2.31703
2.31689
2.31675
2.31661
2.31647
2.3161
2.3158
2.3158
2.31576
2.31568
2.31558
2.31547
2.31535
2.31522
2.31509
2.31496
2.31483
2.31469
2.31455
2.3144
2.31396
2.31367
2.31367
2.31363
2.31355
2.31346
2.31336
2.31325
2.31312
2.313
2.31287
2.31273
2.3126
2.31245
2.31231
2.31184
2.31156
2.31156
2.31152
2.31144
2.31135
2.31125
2.31114
2.31102
2.3109
2.31077
2.31063
2.31049
2.31035
2.31019
2.30974
2.30946
2.30946
2.30942
2.30935
2.30926
2.30916
2.30905
2.30893
2.3088
2.30867
2.30853
2.30839
2.30823
2.30807
2.3077
2.30742
2.30741
2.30737
2.3073
2.30721
2.3071
2.30699
2.30687
2.30674
2.3066
2.30645
2.3063
2.30613
2.30596
2.30573
2.30544
2.30543
2.30539
2.3053
2.30521
2.3051
2.30498
2.30485
2.30471
2.30456
2.30441
2.30424
2.30407
2.30387
2.30387
2.30357
2.30355
2.3035
2.30341
2.3033
2.30319
2.30306
2.30292
2.30276
2.3026
2.30243
2.30225
2.30205
2.30184
2.30216
2.30184
2.30181
2.30174
2.30164
2.30152
2.30139
2.30125
2.30109
2.30092
2.30074
2.30055
2.30035
2.30013
2.2999
2.30065
2.30029
2.30025
2.30016
2.30004
2.29991
2.29976
2.29959
2.29942
2.29922
2.29902
2.2988
2.29857
2.29833
2.29807
2.29939
2.29899
2.29892
2.29882
2.29868
2.29852
2.29834
2.29815
2.29794
2.29772
2.29749
2.29724
2.29698
2.2967
2.2964
2.29845
2.29799
2.2979
2.29777
2.2976
2.2974
2.29719
2.29697
2.29673
2.29647
2.29619
2.29591
2.29561
2.29529
2.29494
2.29794
2.29738
2.29726
2.2971
2.29689
2.29665
2.2964
2.29613
2.29585
2.29554
2.29522
2.29488
2.29453
2.29416
2.29377
2.29794
2.29727
2.29711
2.2969
2.29664
2.29635
2.29605
2.29572
2.29538
2.29502
2.29463
2.29424
2.29383
2.2934
2.29295
2.29859
2.29777
2.29756
2.2973
2.29697
2.29662
2.29625
2.29586
2.29544
2.29501
2.29455
2.29408
2.2936
2.2931
2.29257
2.3
2.29899
2.29873
2.2984
2.298
2.29756
2.29711
2.29663
2.29613
2.29561
2.29507
2.29451
2.29394
2.29335
2.29274
2.30234
2.3011
2.30077
2.30037
2.29987
2.29933
2.29878
2.2982
2.2976
2.29697
2.29632
2.29566
2.29498
2.29428
2.29356
2.30574
2.30425
2.30384
2.30335
2.30275
2.3021
2.30142
2.30072
2.29998
2.29923
2.29845
2.29766
2.29685
2.29602
2.29518
2.31032
2.30854
2.30806
2.30748
2.30675
2.30597
2.30516
2.30431
2.30342
2.30251
2.30157
2.30062
2.29966
2.29867
2.29768
2.31601
2.31396
2.31344
2.31278
2.31194
2.31102
2.31006
2.30904
2.30799
2.3069
2.30578
2.30465
2.3035
2.30234
2.30118
2.3226
2.32034
2.31984
2.31914
2.31821
2.31717
2.31606
2.31488
2.31365
2.31238
2.31108
2.30975
2.30839
2.30703
2.30569
2.32948
2.32711
2.32671
2.32604
2.32508
2.32398
2.32277
2.32147
2.32009
2.31865
2.31716
2.31563
2.31408
2.31252
2.311
2.33571
2.3334
2.33319
2.33263
2.33174
2.33065
2.32942
2.32807
2.32661
2.32506
2.32345
2.32179
2.3201
2.3184
2.31674
2.34063
2.33852
2.33855
2.33817
2.33741
2.33642
2.33526
2.33394
2.3325
2.33095
2.32932
2.32763
2.32589
2.32414
2.32244
2.34381
2.34198
2.34226
2.34209
2.34152
2.3407
2.33969
2.33851
2.33719
2.33574
2.3342
2.33258
2.33091
2.32923
2.32759
2.34538
2.34381
2.34426
2.34426
2.34389
2.34328
2.34247
2.34149
2.34036
2.33911
2.33776
2.33632
2.33484
2.33333
2.33185
2.34597
2.34457
2.34507
2.34518
2.34496
2.34452
2.34392
2.34316
2.34226
2.34125
2.34014
2.33896
2.33772
2.33646
2.33521
2.34617
2.34489
2.34535
2.34549
2.34535
2.34505
2.34461
2.34404
2.34336
2.34258
2.34171
2.34078
2.33979
2.33878
2.33777
2.34625
2.34507
2.34545
2.34557
2.34549
2.34527
2.34494
2.34452
2.34401
2.34342
2.34276
2.34204
2.34128
2.34049
2.33969
2.34645
2.34535
2.34564
2.34572
2.34565
2.34548
2.34524
2.34492
2.34454
2.3441
2.3436
2.34306
2.34248
2.34189
2.34127
2.34684
2.34582
2.34602
2.34606
2.34599
2.34586
2.34566
2.34542
2.34513
2.3448
2.34443
2.34402
2.34359
2.34314
2.34267
2.34732
2.3464
2.34652
2.34654
2.34647
2.34635
2.3462
2.34601
2.34579
2.34553
2.34525
2.34494
2.34461
2.34427
2.3439
2.34785
2.34703
2.3471
2.3471
2.34703
2.34693
2.3468
2.34665
2.34647
2.34627
2.34605
2.34581
2.34556
2.34529
2.345
2.34841
2.34768
2.34773
2.34771
2.34764
2.34755
2.34744
2.34732
2.34717
2.34702
2.34684
2.34665
2.34645
2.34625
2.34602
2.34897
2.34834
2.34836
2.34833
2.34827
2.34819
2.34809
2.34799
2.34787
2.34775
2.34761
2.34746
2.3473
2.34713
2.34695
2.34953
2.34898
2.34899
2.34896
2.3489
2.34883
2.34875
2.34866
2.34856
2.34846
2.34835
2.34822
2.3481
2.34796
2.34782
2.35007
2.3496
2.34959
2.34956
2.34951
2.34945
2.34938
2.34931
2.34923
2.34914
2.34905
2.34895
2.34885
2.34874
2.34862
2.35059
2.35018
2.35017
2.35015
2.3501
2.35004
2.34999
2.34992
2.34986
2.34978
2.34971
2.34963
2.34954
2.34945
2.34936
2.35108
2.35073
2.35072
2.3507
2.35065
2.35061
2.35056
2.3505
2.35045
2.35039
2.35033
2.35026
2.35019
2.35012
2.35004
2.35154
2.35124
2.35123
2.35121
2.35117
2.35113
2.35109
2.35105
2.351
2.35095
2.3509
2.35084
2.35078
2.35072
2.35066
2.35197
2.35172
2.35171
2.35168
2.35165
2.35162
2.35158
2.35155
2.35151
2.35147
2.35142
2.35138
2.35133
2.35128
2.35122
2.35236
2.35215
2.35214
2.35212
2.35209
2.35207
2.35204
2.352
2.35197
2.35194
2.3519
2.35186
2.35182
2.35178
2.35174
2.35273
2.35255
2.35254
2.35252
2.3525
2.35247
2.35245
2.35242
2.3524
2.35237
2.35234
2.35231
2.35227
2.35224
2.3522
2.35306
2.35291
2.3529
2.35289
2.35287
2.35285
2.35283
2.3528
2.35278
2.35276
2.35273
2.35271
2.35268
2.35265
2.35262
2.35336
2.35323
2.35323
2.35322
2.3532
2.35318
2.35316
2.35315
2.35313
2.35311
2.35309
2.35307
2.35304
2.35302
2.35299
2.35363
2.35353
2.35352
2.35351
2.3535
2.35348
2.35347
2.35345
2.35344
2.35342
2.35341
2.35339
2.35337
2.35335
2.35333
2.35388
2.35379
2.35378
2.35378
2.35376
2.35375
2.35374
2.35373
2.35372
2.3537
2.35369
2.35368
2.35366
2.35365
2.35363
2.3541
2.35402
2.35402
2.35401
2.354
2.35399
2.35398
2.35397
2.35396
2.35395
2.35394
2.35393
2.35392
2.35391
2.35389
2.35429
2.35423
2.35422
2.35422
2.35421
2.35421
2.3542
2.35419
2.35418
2.35417
2.35417
2.35416
2.35415
2.35414
2.35412
2.35446
2.35441
2.35441
2.3544
2.3544
2.35439
2.35439
2.35438
2.35437
2.35437
2.35436
2.35435
2.35435
2.35434
2.35433
2.35461
2.35457
2.35457
2.35456
2.35456
2.35456
2.35455
2.35455
2.35454
2.35454
2.35453
2.35453
2.35452
2.35451
2.35451
2.35474
2.3547
2.3547
2.3547
2.3547
2.3547
2.35469
2.35469
2.35469
2.35469
2.35468
2.35468
2.35467
2.35467
2.35466
2.35485
2.35482
2.35482
2.35482
2.35482
2.35482
2.35482
2.35482
2.35482
2.35481
2.35481
2.35481
2.3548
2.3548
2.3548
2.35495
2.35493
2.35493
2.35493
2.35493
2.35493
2.35493
2.35493
2.35493
2.35492
2.35492
2.35492
2.35492
2.35492
2.35491
2.35503
2.35501
2.35502
2.35502
2.35502
2.35502
2.35502
2.35502
2.35502
2.35502
2.35502
2.35502
2.35502
2.35502
2.35501
2.3551
2.35509
2.35509
2.3551
2.3551
2.3551
2.3551
2.3551
2.3551
2.3551
2.3551
2.3551
2.3551
2.3551
2.3551
2.35517
2.35516
2.35516
2.35516
2.35516
2.35516
2.35517
2.35517
2.35517
2.35517
2.35517
2.35518
2.35518
2.35518
2.35518
2.35522
2.35521
2.35522
2.35522
2.35522
2.35522
2.35522
2.35523
2.35523
2.35523
2.35524
2.35524
2.35524
2.35525
2.35525
2.35527
2.35526
2.35526
2.35527
2.35527
2.35527
2.35528
2.35528
2.35528
2.35529
2.35529
2.3553
2.3553
2.3553
2.35531
2.3553
2.35529
2.3553
2.3553
2.3553
2.35531
2.35531
2.35532
2.35532
2.35532
2.35533
2.35533
2.35534
2.35534
2.35534
2.35529
2.35529
2.3553
2.3553
2.35531
2.35531
2.35532
2.35532
2.35532
2.35533
2.35533
2.35533
2.35533
2.35534
2.35534
2.35524
2.35524
2.35525
2.35526
2.35526
2.35527
2.35527
2.35528
2.35528
2.35528
2.35528
2.35528
2.35527
2.35527
2.35527
2.35512
2.35513
2.35514
2.35515
2.35516
2.35517
2.35517
2.35517
2.35517
2.35517
2.35516
2.35516
2.35515
2.35515
2.35514
2.35497
2.35498
2.35499
2.355
2.35501
2.35501
2.35501
2.35501
2.35501
2.35501
2.355
2.355
2.35499
2.35498
2.35497
2.35479
2.3548
2.35481
2.35482
2.35483
2.35483
2.35483
2.35483
2.35483
2.35482
2.35482
2.35481
2.3548
2.3548
2.35479
2.35461
2.35462
2.35463
2.35463
2.35464
2.35464
2.35464
2.35464
2.35464
2.35463
2.35463
2.35462
2.35462
2.35461
2.3546
2.35443
2.35444
2.35445
2.35445
2.35445
2.35446
2.35446
2.35446
2.35445
2.35445
2.35445
2.35444
2.35444
2.35443
2.35443
2.35426
2.35427
2.35427
2.35427
2.35428
2.35428
2.35428
2.35428
2.35428
2.35428
2.35427
2.35427
2.35427
2.35426
2.35426
2.35409
2.3541
2.3541
2.3541
2.35411
2.35411
2.35411
2.35411
2.35411
2.35411
2.35411
2.3541
2.3541
2.3541
2.3541
2.35392
2.35393
2.35394
2.35394
2.35394
2.35394
2.35394
2.35395
2.35395
2.35395
2.35394
2.35394
2.35394
2.35394
2.35394
2.35376
2.35377
2.35377
2.35378
2.35378
2.35378
2.35378
2.35378
2.35378
2.35378
2.35379
2.35379
2.35379
2.35378
2.35378
2.35359
2.35361
2.35361
2.35361
2.35361
2.35362
2.35362
2.35362
2.35362
2.35362
2.35363
2.35363
2.35363
2.35363
2.35363
2.35342
2.35344
2.35344
2.35345
2.35345
2.35345
2.35345
2.35346
2.35346
2.35346
2.35346
2.35347
2.35347
2.35347
2.35347
2.35324
2.35327
2.35327
2.35327
2.35328
2.35328
2.35328
2.35329
2.35329
2.35329
2.3533
2.3533
2.3533
2.35331
2.35331
2.35305
2.35308
2.35309
2.35309
2.35309
2.3531
2.3531
2.35311
2.35311
2.35312
2.35312
2.35313
2.35313
2.35314
2.35314
2.35285
2.35289
2.35289
2.35289
2.35289
2.3529
2.35291
2.35291
2.35292
2.35292
2.35293
2.35294
2.35294
2.35295
2.35296
2.35262
2.35267
2.35267
2.35267
2.35267
2.35268
2.35269
2.35269
2.3527
2.35271
2.35272
2.35273
2.35274
2.35275
2.35276
2.35235
2.35241
2.35241
2.35241
2.35242
2.35243
2.35244
2.35245
2.35246
2.35247
2.35248
2.35249
2.35251
2.35252
2.35253
2.35203
2.35211
2.35211
2.35211
2.35212
2.35213
2.35214
2.35215
2.35217
2.35218
2.3522
2.35221
2.35223
2.35225
2.35227
2.35164
2.35174
2.35174
2.35174
2.35175
2.35177
2.35178
2.3518
2.35182
2.35184
2.35186
2.35188
2.35191
2.35193
2.35196
2.35115
2.35128
2.35127
2.35128
2.35129
2.35131
2.35133
2.35135
2.35138
2.3514
2.35143
2.35147
2.3515
2.35154
2.35157
2.35051
2.35068
2.35067
2.35067
2.35069
2.35072
2.35075
2.35078
2.35081
2.35085
2.35089
2.35094
2.35098
2.35103
2.35109
2.34966
2.34988
2.34987
2.34988
2.3499
2.34994
2.34998
2.35002
2.35007
2.35013
2.35018
2.35025
2.35031
2.35038
2.35046
2.3485
2.34881
2.34879
2.3488
2.34884
2.34889
2.34894
2.34901
2.34908
2.34916
2.34924
2.34933
2.34943
2.34953
2.34963
2.3469
2.34732
2.3473
2.34732
2.34737
2.34744
2.34752
2.34762
2.34772
2.34783
2.34796
2.34809
2.34823