/*--------------------------------*- C++ -*----------------------------------*\
  =========                 |
  \\      /  F ield         | OpenFOAM: The Open Source CFD Toolbox
   \\    /   O peration     | Website:  https://openfoam.org
    \\  /    A nd           | Version:  7
     \\/     M anipulation  |
\*---------------------------------------------------------------------------*/
FoamFile
{
    version     2.0;
    format      ascii;
    class       volScalarField;
    location    "200";
    object      p_tot;
}
// * * * * * * * * * * * * * * * * * * * * * * * * * * * * * * * * * * * * * //

dimensions      [0 2 -2 0 0 0 0];

internalField   nonuniform List<scalar> 
32100
(
3.2812
3.28122
3.28126
3.28132
3.2814
3.28148
3.28155
3.28159
3.28156
3.28134
3.28072
3.27942
3.27358
3.24496
3.36784
3.27015
3.27017
3.27022
3.27028
3.27036
3.27044
3.27052
3.27058
3.27058
3.27045
3.26997
3.26928
3.27286
3.23909
3.33577
3.25908
3.2591
3.25915
3.25922
3.2593
3.2594
3.25951
3.25961
3.25969
3.25978
3.25984
3.25899
3.26999
3.23626
3.30392
3.24799
3.24801
3.24806
3.24813
3.24823
3.24835
3.24849
3.24865
3.24884
3.24911
3.24985
3.24797
3.26176
3.2322
3.28023
3.23687
3.2369
3.23695
3.23703
3.23714
3.23728
3.23745
3.23767
3.23795
3.23825
3.23955
3.2367
3.25069
3.22554
3.2623
3.22573
3.22576
3.22581
3.2259
3.22602
3.22618
3.22638
3.22663
3.22697
3.22721
3.22891
3.22555
3.23889
3.21689
3.24663
3.21456
3.21459
3.21465
3.21475
3.21488
3.21504
3.21526
3.21553
3.21593
3.21606
3.21801
3.21444
3.22695
3.20723
3.2319
3.20336
3.2034
3.20346
3.20356
3.20369
3.20387
3.2041
3.20436
3.20481
3.20485
3.20692
3.20327
3.21491
3.19726
3.21778
3.19214
3.19218
3.19224
3.19234
3.19248
3.19266
3.19289
3.19315
3.19363
3.19358
3.19568
3.19203
3.2028
3.18712
3.20424
3.18088
3.18092
3.18098
3.18108
3.18122
3.1814
3.18164
3.18188
3.18238
3.18225
3.18434
3.18075
3.19065
3.17678
3.19115
3.1696
3.16964
3.1697
3.1698
3.16993
3.17011
3.17034
3.17056
3.17106
3.17088
3.17291
3.16944
3.17849
3.16624
3.17838
3.15828
3.15832
3.15838
3.15848
3.15861
3.15878
3.15901
3.1592
3.1597
3.15947
3.16143
3.15812
3.16637
3.15553
3.16583
3.14693
3.14697
3.14703
3.14713
3.14726
3.14741
3.14764
3.14781
3.1483
3.14804
3.1499
3.14677
3.15427
3.14469
3.15347
3.13556
3.1356
3.13565
3.13574
3.13587
3.13602
3.13623
3.13638
3.13685
3.13657
3.13833
3.13539
3.14222
3.13374
3.14124
3.12415
3.1242
3.12425
3.12433
3.12445
3.12459
3.12479
3.12493
3.12538
3.12508
3.12674
3.124
3.1302
3.12269
3.12913
3.11273
3.11277
3.11281
3.1129
3.11301
3.11314
3.11333
3.11344
3.11388
3.11358
3.11513
3.11258
3.11821
3.11156
3.1171
3.10127
3.10131
3.10135
3.10143
3.10154
3.10166
3.10184
3.10194
3.10235
3.10205
3.1035
3.10114
3.10625
3.10036
3.10514
3.08979
3.08983
3.08987
3.08995
3.09004
3.09015
3.09033
3.09041
3.0908
3.09051
3.09186
3.08969
3.09432
3.0891
3.09322
3.07829
3.07833
3.07837
3.07844
3.07853
3.07863
3.07879
3.07887
3.07923
3.07895
3.08021
3.07821
3.08241
3.07779
3.08135
3.06677
3.06681
3.06684
3.06691
3.06699
3.06709
3.06724
3.0673
3.06765
3.06738
3.06855
3.06671
3.07053
3.06643
3.0695
3.05523
3.05527
3.0553
3.05536
3.05544
3.05553
3.05567
3.05572
3.05605
3.05579
3.05688
3.05519
3.05866
3.05503
3.05768
3.04367
3.04371
3.04374
3.04379
3.04387
3.04395
3.04408
3.04413
3.04443
3.04419
3.0452
3.04366
3.0468
3.04359
3.04588
3.0321
3.03214
3.03216
3.03221
3.03228
3.03236
3.03248
3.03252
3.03281
3.03258
3.03352
3.03211
3.03496
3.03212
3.03409
3.02051
3.02054
3.02057
3.02061
3.02068
3.02075
3.02087
3.0209
3.02117
3.02096
3.02183
3.02054
3.02313
3.02062
3.02232
3.0089
3.00894
3.00896
3.009
3.00906
3.00913
3.00924
3.00927
3.00952
3.00933
3.01013
3.00896
3.01131
3.00909
3.01055
2.99728
2.99732
2.99733
2.99738
2.99744
2.99749
2.9976
2.99763
2.99786
2.99768
2.99843
2.99737
2.9995
2.99754
2.99878
2.98565
2.98569
2.9857
2.98574
2.98579
2.98585
2.98595
2.98598
2.98619
2.98603
2.98672
2.98576
2.98769
2.98597
2.98702
2.974
2.97404
2.97405
2.97409
2.97414
2.97419
2.97428
2.97431
2.97452
2.97436
2.97501
2.97413
2.97588
2.97438
2.97526
2.96235
2.96238
2.96239
2.96243
2.96248
2.96253
2.96261
2.96264
2.96283
2.96269
2.96329
2.9625
2.96408
2.96277
2.9635
2.95068
2.95072
2.95073
2.95076
2.9508
2.95085
2.95093
2.95096
2.95114
2.95101
2.95156
2.95085
2.95228
2.95114
2.95174
2.939
2.93904
2.93905
2.93908
2.93912
2.93916
2.93924
2.93927
2.93943
2.93932
2.93983
2.93919
2.94048
2.93949
2.93998
2.92732
2.92735
2.92736
2.92739
2.92743
2.92747
2.92754
2.92757
2.92772
2.92762
2.92809
2.92752
2.92868
2.92783
2.92821
2.91562
2.91566
2.91566
2.91569
2.91573
2.91577
2.91583
2.91586
2.91601
2.91591
2.91635
2.91584
2.91689
2.91616
2.91645
2.90392
2.90395
2.90396
2.90398
2.90402
2.90406
2.90412
2.90414
2.90428
2.9042
2.9046
2.90415
2.90509
2.90448
2.90468
2.89221
2.89224
2.89224
2.89227
2.8923
2.89234
2.8924
2.89242
2.89255
2.89248
2.89285
2.89245
2.89329
2.89278
2.89291
2.88049
2.88052
2.88052
2.88055
2.88058
2.88061
2.88067
2.88069
2.88081
2.88075
2.88109
2.88074
2.88149
2.88107
2.88114
2.86876
2.86879
2.8688
2.86882
2.86885
2.86888
2.86893
2.86896
2.86907
2.86901
2.86933
2.86902
2.86969
2.86936
2.86936
2.85703
2.85706
2.85706
2.85708
2.85711
2.85714
2.85719
2.85721
2.85732
2.85727
2.85757
2.8573
2.85789
2.85763
2.85758
2.84529
2.84532
2.84532
2.84534
2.84537
2.8454
2.84544
2.84546
2.84556
2.84552
2.84579
2.84556
2.84609
2.84589
2.84579
2.83354
2.83357
2.83357
2.83359
2.83362
2.83364
2.83369
2.83371
2.8338
2.83377
2.83402
2.83382
2.83428
2.83414
2.83401
2.82179
2.82182
2.82182
2.82184
2.82186
2.82189
2.82193
2.82195
2.82204
2.82201
2.82224
2.82207
2.82247
2.82239
2.82222
2.81003
2.81006
2.81006
2.81008
2.8101
2.81013
2.81017
2.81019
2.81027
2.81024
2.81045
2.81032
2.81066
2.81063
2.81042
2.79827
2.7983
2.7983
2.79832
2.79834
2.79836
2.7984
2.79842
2.79849
2.79847
2.79866
2.79856
2.79885
2.79886
2.79862
2.7865
2.78653
2.78653
2.78655
2.78656
2.78659
2.78662
2.78664
2.78671
2.7867
2.78687
2.78679
2.78704
2.78709
2.78682
2.77473
2.77476
2.77475
2.77477
2.77479
2.77481
2.77484
2.77486
2.77493
2.77492
2.77508
2.77501
2.77522
2.77531
2.77502
2.76295
2.76298
2.76298
2.76299
2.76301
2.76303
2.76306
2.76308
2.76314
2.76313
2.76328
2.76324
2.76341
2.76352
2.76321
2.75117
2.7512
2.75119
2.75121
2.75123
2.75124
2.75127
2.75129
2.75135
2.75135
2.75147
2.75145
2.75159
2.75173
2.7514
2.73938
2.73941
2.73941
2.73942
2.73944
2.73945
2.73948
2.7395
2.73955
2.73955
2.73967
2.73967
2.73977
2.73993
2.73959
2.72759
2.72763
2.72762
2.72763
2.72765
2.72766
2.72769
2.7277
2.72775
2.72776
2.72786
2.72787
2.72794
2.72813
2.72778
2.7158
2.71583
2.71582
2.71584
2.71585
2.71587
2.71589
2.7159
2.71595
2.71596
2.71605
2.71608
2.71612
2.71633
2.71596
2.704
2.70404
2.70403
2.70404
2.70405
2.70407
2.70409
2.7041
2.70414
2.70416
2.70424
2.70428
2.70429
2.70452
2.70414
2.6922
2.69224
2.69223
2.69224
2.69225
2.69226
2.69228
2.6923
2.69234
2.69235
2.69242
2.69247
2.69246
2.6927
2.69232
2.6804
2.68043
2.68043
2.68044
2.68045
2.68046
2.68048
2.68049
2.68053
2.68054
2.6806
2.68066
2.68064
2.68089
2.68049
2.6686
2.66863
2.66862
2.66863
2.66864
2.66865
2.66867
2.66868
2.66871
2.66873
2.66878
2.66885
2.6688
2.66907
2.66867
2.65679
2.65682
2.65681
2.65682
2.65683
2.65684
2.65686
2.65687
2.6569
2.65692
2.65696
2.65704
2.65697
2.65725
2.65684
2.64498
2.64501
2.645
2.64501
2.64502
2.64503
2.64504
2.64505
2.64508
2.6451
2.64513
2.64523
2.64514
2.64542
2.64501
2.63317
2.6332
2.63319
2.6332
2.6332
2.63321
2.63323
2.63324
2.63326
2.63328
2.63331
2.63341
2.63331
2.63359
2.63318
2.62135
2.62139
2.62137
2.62138
2.62139
2.6214
2.62141
2.62142
2.62144
2.62146
2.62148
2.62159
2.62147
2.62177
2.62135
2.60954
2.60957
2.60956
2.60957
2.60957
2.60958
2.60959
2.6096
2.60961
2.60964
2.60965
2.60977
2.60964
2.60994
2.60952
2.59772
2.59775
2.59774
2.59775
2.59775
2.59776
2.59777
2.59778
2.59779
2.59782
2.59782
2.59794
2.5978
2.5981
2.59769
2.5859
2.58593
2.58592
2.58593
2.58593
2.58594
2.58594
2.58595
2.58596
2.58599
2.58599
2.58612
2.58597
2.58627
2.58586
2.57408
2.57412
2.5741
2.57411
2.57411
2.57411
2.57412
2.57413
2.57414
2.57417
2.57416
2.57429
2.57413
2.57444
2.57403
2.56226
2.56229
2.56228
2.56229
2.56229
2.56229
2.56229
2.5623
2.56231
2.56234
2.56233
2.56246
2.5623
2.5626
2.5622
2.55044
2.55047
2.55046
2.55046
2.55046
2.55046
2.55047
2.55047
2.55048
2.55051
2.5505
2.55063
2.55046
2.55077
2.55036
2.53862
2.53865
2.53864
2.53864
2.53864
2.53864
2.53864
2.53865
2.53865
2.53868
2.53866
2.5388
2.53862
2.53893
2.53853
2.5268
2.52683
2.52681
2.52682
2.52681
2.52681
2.52681
2.52682
2.52682
2.52685
2.52683
2.52697
2.52679
2.52709
2.5267
2.51498
2.51501
2.51499
2.51499
2.51499
2.51498
2.51498
2.51499
2.51499
2.51502
2.51499
2.51514
2.51495
2.51526
2.51487
2.50316
2.50319
2.50317
2.50317
2.50316
2.50316
2.50315
2.50315
2.50315
2.50319
2.50316
2.50331
2.50312
2.50342
2.50305
2.49134
2.49136
2.49135
2.49134
2.49134
2.49133
2.49132
2.49132
2.49132
2.49135
2.49132
2.49147
2.49128
2.49159
2.49122
2.47952
2.47955
2.47953
2.47952
2.47951
2.4795
2.47949
2.47949
2.47948
2.47951
2.47948
2.47964
2.47945
2.47976
2.4794
2.4677
2.46773
2.46771
2.4677
2.46769
2.46767
2.46766
2.46765
2.46764
2.46767
2.46764
2.4678
2.46761
2.46792
2.46758
2.45589
2.45592
2.45589
2.45588
2.45586
2.45585
2.45583
2.45582
2.4558
2.45583
2.45579
2.45596
2.45578
2.45609
2.45577
2.44408
2.44411
2.44408
2.44407
2.44404
2.44402
2.444
2.44398
2.44396
2.44399
2.44394
2.44411
2.44394
2.44426
2.44397
2.43228
2.4323
2.43227
2.43225
2.43223
2.4322
2.43217
2.43214
2.43211
2.43213
2.43209
2.43226
2.43209
2.43243
2.43218
2.42048
2.4205
2.42047
2.42045
2.42041
2.42038
2.42034
2.4203
2.42026
2.42028
2.42022
2.42039
2.42024
2.42059
2.42041
2.40869
2.40871
2.40867
2.40865
2.40861
2.40856
2.40851
2.40846
2.40841
2.40841
2.40834
2.40851
2.40837
2.40875
2.40867
2.39691
2.39693
2.39689
2.39686
2.39681
2.39675
2.39669
2.39663
2.39655
2.39654
2.39645
2.39661
2.39648
2.39688
2.39694
2.38514
2.38515
2.38511
2.38507
2.38502
2.38495
2.38487
2.38479
2.3847
2.38465
2.38455
2.38468
2.38456
2.38499
2.38533
2.37339
2.3734
2.37335
2.3733
2.37324
2.37316
2.37306
2.37296
2.37284
2.37276
2.37262
2.3727
2.37256
2.37298
2.37356
2.36165
2.36165
2.3616
2.36155
2.36147
2.36138
2.36126
2.36114
2.36099
2.36087
2.36068
2.36068
2.36053
2.361
2.36263
2.32685
2.32684
2.32679
2.32671
2.3266
2.32647
2.32631
2.32611
2.32588
2.32561
2.32526
2.32487
2.32431
2.32357
2.32067
2.26936
2.26934
2.26927
2.26917
2.26903
2.26885
2.26862
2.26834
2.268
2.26759
2.26709
2.26648
2.26563
2.26544
2.26701
2.21271
2.21269
2.21263
2.21254
2.21241
2.21226
2.21207
2.21185
2.2116
2.21133
2.21105
2.21078
2.21021
2.20958
2.21084
2.15687
2.15686
2.15682
2.15676
2.15668
2.15659
2.15648
2.15636
2.15623
2.15608
2.15594
2.15586
2.15567
2.15508
2.15504
2.10149
2.10148
2.10146
2.10142
2.10137
2.1013
2.10123
2.10114
2.10104
2.10092
2.10077
2.10064
2.10055
2.10015
2.09896
2.04634
2.04633
2.04631
2.04628
2.04624
2.04619
2.04613
2.04606
2.04598
2.04589
2.04578
2.04565
2.04567
2.04569
2.04389
1.99139
1.99138
1.99137
1.99135
1.99132
1.99128
1.99124
1.9912
1.99115
1.9911
1.99103
1.99091
1.9909
1.99106
1.989
1.93662
1.93661
1.9366
1.93659
1.93657
1.93655
1.93652
1.9365
1.93646
1.93643
1.9364
1.93629
1.93628
1.93638
1.93421
1.88195
1.88195
1.88194
1.88193
1.88192
1.88191
1.88189
1.88187
1.88185
1.88183
1.88181
1.88173
1.88176
1.88166
1.87959
1.82734
1.82734
1.82733
1.82733
1.82732
1.82731
1.8273
1.82729
1.82727
1.82726
1.82724
1.82718
1.82727
1.82691
1.82504
1.77277
1.77277
1.77277
1.77276
1.77276
1.77275
1.77274
1.77274
1.77273
1.77271
1.77269
1.77264
1.77278
1.77213
1.77053
1.71824
1.71823
1.71823
1.71823
1.71823
1.71822
1.71821
1.71821
1.7182
1.71819
1.71817
1.71812
1.71828
1.71738
1.71604
1.66372
1.66372
1.66372
1.66372
1.66371
1.66371
1.66371
1.6637
1.6637
1.66369
1.66367
1.66365
1.66377
1.66271
1.66156
1.60922
1.60922
1.60922
1.60922
1.60922
1.60922
1.60921
1.60921
1.60921
1.6092
1.60918
1.60919
1.6092
1.60808
1.60709
1.55474
1.55474
1.55474
1.55473
1.55473
1.55473
1.55473
1.55473
1.55472
1.55471
1.55468
1.55473
1.55458
1.5535
1.55261
1.50026
1.50026
1.50026
1.50026
1.50026
1.50025
1.50025
1.50025
1.50024
1.50023
1.50021
1.50029
1.49996
1.49895
1.4981
1.44579
1.44579
1.44579
1.44579
1.44579
1.44578
1.44578
1.44578
1.44578
1.44576
1.44574
1.44584
1.44535
1.44443
1.4436
1.39133
1.39133
1.39133
1.39133
1.39132
1.39132
1.39132
1.39132
1.39132
1.3913
1.39129
1.39137
1.39075
1.38993
1.38911
1.33687
1.33687
1.33687
1.33687
1.33687
1.33687
1.33687
1.33686
1.33686
1.33684
1.33686
1.33686
1.33617
1.33543
1.33464
1.28242
1.28242
1.28242
1.28241
1.28241
1.28241
1.28241
1.28241
1.2824
1.28238
1.28242
1.28233
1.28162
1.28092
1.28016
1.22796
1.22796
1.22796
1.22796
1.22796
1.22796
1.22796
1.22796
1.22795
1.22793
1.22799
1.22778
1.22708
1.22641
1.22567
1.17352
1.17352
1.17352
1.17352
1.17352
1.17351
1.17351
1.17351
1.1735
1.17349
1.17355
1.17323
1.17257
1.17191
1.17119
1.11907
1.11907
1.11907
1.11907
1.11907
1.11907
1.11907
1.11906
1.11905
1.11905
1.11909
1.11867
1.11806
1.11742
1.11672
1.06463
1.06463
1.06463
1.06463
1.06463
1.06463
1.06462
1.06462
1.0646
1.06462
1.06461
1.06413
1.06356
1.06293
1.06225
1.01019
1.01019
1.01019
1.01019
1.01019
1.01019
1.01018
1.01018
1.01016
1.0102
1.01011
1.0096
1.00905
1.00843
1.00777
0.955752
0.955752
0.955752
0.955751
0.95575
0.95575
0.955747
0.955737
0.955728
0.955768
0.9556
0.955092
0.954549
0.953941
0.953303
0.901319
0.901318
0.901318
0.901317
0.901317
0.901316
0.901312
0.901301
0.901299
0.901333
0.901085
0.900588
0.900051
0.899455
0.898836
0.846888
0.846888
0.846888
0.846887
0.846886
0.846885
0.84688
0.846868
0.846876
0.846885
0.84657
0.84609
0.845558
0.844974
0.844372
0.792462
0.792461
0.792461
0.79246
0.79246
0.792458
0.792452
0.792441
0.792459
0.792424
0.792062
0.791596
0.791069
0.790496
0.78991
0.738039
0.738038
0.738038
0.738037
0.738036
0.738034
0.738027
0.738018
0.738043
0.737951
0.737563
0.737105
0.736583
0.736021
0.73545
0.68362
0.68362
0.683619
0.683618
0.683617
0.683614
0.683606
0.683601
0.683626
0.683473
0.683074
0.682617
0.682101
0.681551
0.680995
0.629206
0.629205
0.629205
0.629204
0.629203
0.629199
0.62919
0.629193
0.629205
0.628993
0.628593
0.628136
0.627624
0.627085
0.626543
0.574797
0.574796
0.574796
0.574795
0.574793
0.574789
0.574779
0.574789
0.574773
0.57451
0.574113
0.573659
0.573155
0.572626
0.572097
0.520393
0.520392
0.520391
0.52039
0.520388
0.520382
0.520374
0.52039
0.520334
0.520034
0.519639
0.519186
0.518689
0.518171
0.517655
0.465994
0.465993
0.465993
0.465992
0.465989
0.465982
0.465978
0.465994
0.465891
0.465569
0.465173
0.46472
0.464227
0.46372
0.463215
0.411603
0.411601
0.411601
0.4116
0.411597
0.411589
0.411589
0.411598
0.411445
0.411111
0.410712
0.410259
0.409773
0.409275
0.408782
0.357217
0.357216
0.357216
0.357214
0.35721
0.357203
0.357209
0.357198
0.356998
0.356658
0.356256
0.355805
0.355325
0.354837
0.354355
0.302839
0.302838
0.302837
0.302835
0.302831
0.302824
0.302834
0.302794
0.302556
0.302211
0.301806
0.301357
0.300884
0.300405
0.299933
0.248467
0.248466
0.248465
0.248463
0.248458
0.248454
0.248464
0.248386
0.24812
0.247769
0.247362
0.246915
0.246449
0.245979
0.245517
0.194103
0.194101
0.194101
0.194098
0.194092
0.194092
0.194096
0.193975
0.193691
0.193334
0.192924
0.192481
0.192021
0.19156
0.191107
0.139746
0.139744
0.139743
0.13974
0.139735
0.139738
0.139727
0.139565
0.139267
0.138904
0.138493
0.138052
0.137599
0.137146
0.136703
0.0853949
0.0853928
0.0853922
0.0853886
0.0853842
0.0853906
0.0853545
0.0851557
0.0848468
0.0844784
0.0840674
0.0836311
0.0831842
0.0827391
0.0823048
0.0310506
0.0310481
0.0310473
0.0310432
0.0310408
0.0310462
0.0309776
0.0307486
0.0304299
0.0300569
0.0296468
0.0292154
0.0287753
0.0283381
0.0279122
-0.0232871
-0.02329
-0.023291
-0.0232951
-0.0232948
-0.0232963
-0.0234018
-0.0236535
-0.0239806
-0.0243575
-0.024768
-0.0251963
-0.0256297
-0.0260588
-0.0264762
-0.0776188
-0.0776221
-0.0776233
-0.0776269
-0.077624
-0.0776404
-0.0777837
-0.0780529
-0.0783882
-0.0787687
-0.0791787
-0.0796031
-0.0800301
-0.0804516
-0.0808608
-0.131946
-0.13195
-0.131951
-0.131953
-0.13195
-0.131989
-0.132168
-0.132452
-0.132794
-0.133178
-0.133586
-0.134006
-0.134426
-0.13484
-0.135242
-0.186269
-0.186274
-0.186275
-0.186276
-0.186276
-0.186345
-0.186554
-0.186851
-0.1872
-0.187586
-0.187992
-0.188407
-0.188822
-0.189228
-0.189622
-0.240591
-0.240597
-0.240598
-0.240597
-0.240606
-0.24071
-0.240944
-0.241253
-0.241608
-0.241995
-0.242399
-0.242809
-0.243217
-0.243617
-0.244003
-0.294913
-0.29492
-0.29492
-0.294919
-0.294945
-0.295085
-0.295339
-0.295658
-0.296019
-0.296408
-0.29681
-0.297215
-0.297616
-0.298008
-0.298387
-0.349236
-0.349245
-0.349244
-0.349245
-0.349296
-0.349471
-0.349743
-0.350071
-0.350437
-0.350826
-0.351225
-0.351626
-0.352021
-0.352406
-0.352777
-0.403565
-0.403576
-0.403575
-0.403584
-0.403667
-0.403872
-0.404161
-0.404499
-0.404868
-0.405255
-0.405649
-0.406044
-0.406432
-0.406811
-0.407174
-0.457902
-0.457915
-0.457914
-0.457939
-0.458057
-0.45829
-0.458593
-0.458938
-0.45931
-0.459696
-0.460087
-0.460476
-0.460858
-0.461228
-0.461584
-0.512248
-0.512265
-0.512268
-0.512316
-0.512471
-0.512728
-0.513043
-0.513395
-0.51377
-0.514155
-0.514543
-0.514927
-0.515302
-0.515665
-0.516013
-0.566606
-0.566629
-0.566641
-0.56672
-0.566911
-0.567189
-0.567516
-0.567875
-0.568251
-0.568635
-0.569019
-0.569397
-0.569766
-0.570122
-0.570463
-0.620981
-0.621014
-0.621043
-0.621159
-0.621383
-0.62168
-0.622019
-0.622383
-0.62276
-0.623141
-0.623521
-0.623893
-0.624255
-0.624605
-0.624939
-0.675376
-0.675427
-0.67548
-0.675636
-0.675891
-0.676206
-0.676554
-0.676923
-0.677301
-0.677681
-0.678056
-0.678423
-0.678778
-0.67912
-0.679446
-0.729798
-0.729875
-0.729961
-0.730158
-0.73044
-0.730771
-0.731129
-0.731502
-0.731881
-0.732259
-0.73263
-0.732991
-0.73334
-0.733674
-0.733992
-0.784255
-0.784369
-0.784494
-0.78473
-0.785038
-0.785385
-0.785752
-0.786128
-0.786506
-0.786879
-0.787246
-0.787602
-0.787944
-0.78827
-0.788581
-0.838758
-0.83892
-0.839084
-0.839357
-0.839689
-0.840049
-0.840424
-0.840803
-0.84118
-0.841551
-0.841913
-0.842262
-0.842598
-0.842917
-0.843219
-0.89332
-0.893536
-0.893738
-0.894043
-0.894396
-0.894768
-0.89515
-0.895531
-0.895909
-0.896278
-0.896635
-0.896979
-0.897307
-0.897619
-0.897914
-0.947957
-0.948229
-0.948463
-0.948795
-0.949166
-0.94955
-0.949937
-0.950322
-0.950699
-0.951065
-0.951417
-0.951755
-0.952078
-0.952383
-0.95267
-1.00269
-1.00301
-1.00327
-1.00362
-1.00401
-1.0044
-1.00479
-1.00518
-1.00556
-1.00592
-1.00627
-1.0066
-1.00692
-1.00721
-1.00749
-1.05752
-1.05789
-1.05816
-1.05853
-1.05893
-1.05933
-1.05973
-1.06011
-1.06049
-1.06085
-1.06119
-1.06152
-1.06183
-1.06212
-1.06239
-1.11247
-1.11288
-1.11315
-1.11353
-1.11393
-1.11434
-1.11474
-1.11512
-1.11549
-1.11585
-1.11619
-1.11651
-1.11681
-1.11709
-1.11736
-1.16754
-1.16797
-1.16824
-1.16861
-1.16902
-1.16943
-1.16983
-1.17021
-1.17058
-1.17093
-1.17127
-1.17158
-1.17188
-1.17215
-1.17241
-1.22273
-1.22318
-1.22344
-1.2238
-1.22421
-1.22461
-1.22501
-1.22539
-1.22576
-1.2261
-1.22643
-1.22674
-1.22703
-1.22729
-1.22754
-1.27805
-1.2785
-1.27874
-1.2791
-1.27949
-1.27989
-1.28028
-1.28066
-1.28102
-1.28136
-1.28168
-1.28198
-1.28226
-1.28252
-1.28276
-1.33348
-1.33394
-1.33416
-1.33449
-1.33488
-1.33527
-1.33565
-1.33602
-1.33637
-1.3367
-1.33702
-1.33731
-1.33758
-1.33784
-1.33807
-1.38902
-1.38949
-1.38969
-1.39
-1.39036
-1.39074
-1.39111
-1.39147
-1.39181
-1.39214
-1.39244
-1.39273
-1.393
-1.39324
-1.39347
-1.44468
-1.44514
-1.44532
-1.44561
-1.44595
-1.44631
-1.44667
-1.44702
-1.44735
-1.44767
-1.44796
-1.44824
-1.4485
-1.44874
-1.44895
-1.50045
-1.50091
-1.50106
-1.50132
-1.50165
-1.50199
-1.50233
-1.50266
-1.50298
-1.50329
-1.50357
-1.50384
-1.50409
-1.50432
-1.50453
-1.55631
-1.55676
-1.5569
-1.55713
-1.55743
-1.55775
-1.55808
-1.5584
-1.5587
-1.559
-1.55927
-1.55953
-1.55977
-1.55999
-1.56019
-1.61227
-1.61272
-1.61283
-1.61304
-1.61332
-1.61362
-1.61392
-1.61423
-1.61452
-1.6148
-1.61506
-1.61531
-1.61554
-1.61575
-1.61595
-1.66833
-1.66876
-1.66886
-1.66905
-1.6693
-1.66957
-1.66986
-1.67014
-1.67042
-1.67068
-1.67093
-1.67117
-1.67139
-1.67159
-1.67178
-1.72446
-1.72489
-1.72497
-1.72514
-1.72537
-1.72562
-1.72588
-1.72615
-1.72641
-1.72666
-1.7269
-1.72712
-1.72733
-1.72752
-1.72771
-1.78068
-1.78109
-1.78116
-1.78131
-1.78151
-1.78175
-1.78199
-1.78224
-1.78248
-1.78271
-1.78294
-1.78315
-1.78335
-1.78354
-1.78371
-1.83697
-1.83737
-1.83742
-1.83755
-1.83774
-1.83795
-1.83818
-1.8384
-1.83863
-1.83885
-1.83906
-1.83926
-1.83945
-1.83963
-1.83979
-1.89333
-1.89371
-1.89375
-1.89387
-1.89404
-1.89423
-1.89443
-1.89464
-1.89485
-1.89505
-1.89525
-1.89544
-1.89562
-1.89579
-1.89595
-1.94975
-1.95012
-1.95015
-1.95025
-1.9504
-1.95057
-1.95076
-1.95095
-1.95114
-1.95133
-1.95152
-1.9517
-1.95187
-1.95203
-1.95219
-2.00622
-2.00658
-2.0066
-2.00669
-2.00682
-2.00698
-2.00715
-2.00732
-2.0075
-2.00768
-2.00785
-2.00802
-2.00818
-2.00834
-2.00849
-2.06274
-2.06308
-2.0631
-2.06318
-2.0633
-2.06344
-2.06359
-2.06375
-2.06392
-2.06408
-2.06424
-2.0644
-2.06456
-2.06471
-2.06485
-2.1193
-2.11963
-2.11964
-2.11971
-2.11982
-2.11995
-2.12008
-2.12023
-2.12038
-2.12054
-2.12069
-2.12084
-2.12099
-2.12113
-2.12128
-2.1759
-2.17621
-2.17622
-2.17628
-2.17638
-2.17649
-2.17662
-2.17676
-2.1769
-2.17704
-2.17719
-2.17733
-2.17747
-2.17761
-2.17776
-2.23252
-2.23282
-2.23283
-2.23288
-2.23297
-2.23307
-2.23319
-2.23332
-2.23345
-2.23358
-2.23372
-2.23386
-2.234
-2.23414
-2.23428
-2.28915
-2.28945
-2.28945
-2.28949
-2.28957
-2.28967
-2.28978
-2.2899
-2.29003
-2.29016
-2.29029
-2.29042
-2.29056
-2.2907
-2.29085
-2.34579
-2.34608
-2.34608
-2.34612
-2.3462
-2.34629
-2.34639
-2.3465
-2.34663
-2.34675
-2.34688
-2.34702
-2.34715
-2.3473
-2.34744
-2.40241
-2.40269
-2.40269
-2.40273
-2.40281
-2.4029
-2.403
-2.40311
-2.40323
-2.40335
-2.40348
-2.40362
-2.40376
-2.4039
-2.40406
-2.45901
-2.45929
-2.45929
-2.45933
-2.4594
-2.45949
-2.45959
-2.4597
-2.45982
-2.45995
-2.46008
-2.46022
-2.46036
-2.46052
-2.46068
-2.51555
-2.51583
-2.51584
-2.51588
-2.51595
-2.51604
-2.51615
-2.51626
-2.51638
-2.51651
-2.51665
-2.5168
-2.51695
-2.51712
-2.51729
-2.57202
-2.57231
-2.57232
-2.57236
-2.57245
-2.57254
-2.57265
-2.57277
-2.5729
-2.57304
-2.57319
-2.57334
-2.57351
-2.57368
-2.57388
-2.62838
-2.62868
-2.6287
-2.62875
-2.62884
-2.62895
-2.62906
-2.62919
-2.62933
-2.62949
-2.62965
-2.62982
-2.63
-2.6302
-2.63041
-2.68459
-2.68491
-2.68494
-2.68501
-2.68511
-2.68523
-2.68536
-2.6855
-2.68566
-2.68583
-2.68601
-2.6862
-2.6864
-2.68662
-2.68685
-2.7406
-2.74096
-2.741
-2.74109
-2.74121
-2.74134
-2.74149
-2.74166
-2.74183
-2.74203
-2.74223
-2.74245
-2.74268
-2.74292
-2.74318
-2.79636
-2.79676
-2.79683
-2.79693
-2.79707
-2.79723
-2.79741
-2.7976
-2.79781
-2.79803
-2.79826
-2.79851
-2.79877
-2.79905
-2.79935
-2.8518
-2.85226
-2.85235
-2.85248
-2.85265
-2.85285
-2.85306
-2.85328
-2.85352
-2.85378
-2.85406
-2.85434
-2.85464
-2.85496
-2.85531
-2.90681
-2.90737
-2.90749
-2.90765
-2.90786
-2.9081
-2.90835
-2.90862
-2.9089
-2.90921
-2.90953
-2.90987
-2.91022
-2.91059
-2.91098
-2.96131
-2.96198
-2.96214
-2.96235
-2.96261
-2.9629
-2.9632
-2.96353
-2.96387
-2.96423
-2.96462
-2.96501
-2.96542
-2.96585
-2.9663
-3.01516
-3.01598
-3.01619
-3.01645
-3.01678
-3.01713
-3.0175
-3.01789
-3.01831
-3.01874
-3.0192
-3.01967
-3.02015
-3.02065
-3.02118
-3.06825
-3.06926
-3.06952
-3.06985
-3.07025
-3.07069
-3.07114
-3.07162
-3.07212
-3.07264
-3.07318
-3.07374
-3.07431
-3.0749
-3.07551
-3.12041
-3.12165
-3.12198
-3.12238
-3.12288
-3.12342
-3.12397
-3.12455
-3.12515
-3.12578
-3.12643
-3.12709
-3.12777
-3.12847
-3.12919
-3.17151
-3.173
-3.17341
-3.1739
-3.1745
-3.17515
-3.17583
-3.17653
-3.17727
-3.17802
-3.1788
-3.17959
-3.1804
-3.18123
-3.18207
-3.22143
-3.22321
-3.22369
-3.22427
-3.225
-3.22578
-3.22659
-3.22744
-3.22833
-3.22924
-3.23018
-3.23113
-3.23209
-3.23308
-3.23407
-3.27024
-3.27229
-3.27281
-3.27347
-3.27431
-3.27523
-3.27619
-3.27721
-3.27826
-3.27935
-3.28047
-3.2816
-3.28275
-3.28391
-3.28507
-3.31815
-3.32041
-3.32091
-3.32161
-3.32254
-3.32358
-3.32469
-3.32587
-3.3271
-3.32837
-3.32967
-3.331
-3.33236
-3.33372
-3.33506
-3.36577
-3.36814
-3.36854
-3.36921
-3.37017
-3.37127
-3.37248
-3.37378
-3.37516
-3.3766
-3.37809
-3.37962
-3.38117
-3.38273
-3.38425
-3.41404
-3.41635
-3.41656
-3.41712
-3.41801
-3.4191
-3.42033
-3.42168
-3.42314
-3.42469
-3.4263
-3.42796
-3.42965
-3.43135
-3.43301
-3.46362
-3.46573
-3.4657
-3.46608
-3.46684
-3.46783
-3.46899
-3.47031
-3.47175
-3.4733
-3.47493
-3.47662
-3.47836
-3.48011
-3.48181
-3.51494
-3.51677
-3.51649
-3.51666
-3.51723
-3.51805
-3.51906
-3.52024
-3.52156
-3.52301
-3.52455
-3.52617
-3.52784
-3.52952
-3.53116
-3.56787
-3.56944
-3.56899
-3.56899
-3.56936
-3.56997
-3.57078
-3.57176
-3.57289
-3.57414
-3.57549
-3.57693
-3.57841
-3.57992
-3.5814
-3.62178
-3.62318
-3.62268
-3.62257
-3.62279
-3.62323
-3.62383
-3.62459
-3.62549
-3.6265
-3.62761
-3.62879
-3.63003
-3.63129
-3.63254
-3.67608
-3.67736
-3.6769
-3.67676
-3.6769
-3.6772
-3.67764
-3.67821
-3.67889
-3.67967
-3.68054
-3.68147
-3.68246
-3.68347
-3.68448
-3.7305
-3.73168
-3.7313
-3.73118
-3.73126
-3.73148
-3.73181
-3.73223
-3.73274
-3.73333
-3.73399
-3.73471
-3.73547
-3.73626
-3.73706
-3.7848
-3.7859
-3.78561
-3.78553
-3.7856
-3.78577
-3.78601
-3.78633
-3.78671
-3.78715
-3.78765
-3.78819
-3.78877
-3.78936
-3.78998
-3.83891
-3.83993
-3.83973
-3.83969
-3.83976
-3.83989
-3.84009
-3.84033
-3.84062
-3.84095
-3.84132
-3.84173
-3.84216
-3.84261
-3.84308
-3.89293
-3.89385
-3.89373
-3.89371
-3.89378
-3.8939
-3.89405
-3.89424
-3.89446
-3.89472
-3.895
-3.89531
-3.89564
-3.89598
-3.89635
-3.9469
-3.94772
-3.94765
-3.94765
-3.94772
-3.94782
-3.94795
-3.9481
-3.94828
-3.94848
-3.9487
-3.94894
-3.94919
-3.94946
-3.94975
-4.00084
-4.00157
-4.00152
-4.00154
-4.00161
-4.0017
-4.00181
-4.00193
-4.00208
-4.00223
-4.00241
-4.0026
-4.0028
-4.003
-4.00323
-4.05478
-4.05541
-4.05539
-4.05542
-4.05548
-4.05556
-4.05566
-4.05576
-4.05588
-4.056
-4.05614
-4.05629
-4.05645
-4.05662
-4.0568
-4.10872
-4.10927
-4.10926
-4.10929
-4.10935
-4.10942
-4.1095
-4.10959
-4.10969
-4.10979
-4.1099
-4.11003
-4.11015
-4.11029
-4.11043
-4.16268
-4.16315
-4.16316
-4.16319
-4.16324
-4.1633
-4.16337
-4.16344
-4.16352
-4.16361
-4.1637
-4.1638
-4.1639
-4.16401
-4.16413
-4.21666
-4.21707
-4.21708
-4.2171
-4.21715
-4.21721
-4.21726
-4.21733
-4.21739
-4.21747
-4.21754
-4.21762
-4.21771
-4.2178
-4.21789
-4.27067
-4.27102
-4.27103
-4.27105
-4.2711
-4.27114
-4.27119
-4.27125
-4.2713
-4.27136
-4.27142
-4.27149
-4.27156
-4.27163
-4.27171
-4.32471
-4.32501
-4.32502
-4.32504
-4.32508
-4.32512
-4.32516
-4.3252
-4.32525
-4.3253
-4.32535
-4.32541
-4.32547
-4.32553
-4.32559
-4.37878
-4.37903
-4.37904
-4.37907
-4.3791
-4.37913
-4.37917
-4.3792
-4.37924
-4.37928
-4.37933
-4.37937
-4.37942
-4.37947
-4.37953
-4.43289
-4.4331
-4.43311
-4.43313
-4.43316
-4.43318
-4.43321
-4.43325
-4.43328
-4.43331
-4.43335
-4.43339
-4.43343
-4.43347
-4.43351
-4.48702
-4.4872
-4.48721
-4.48723
-4.48725
-4.48728
-4.4873
-4.48733
-4.48735
-4.48738
-4.48741
-4.48744
-4.48748
-4.48751
-4.48755
-4.54119
-4.54134
-4.54135
-4.54136
-4.54138
-4.5414
-4.54142
-4.54145
-4.54147
-4.54149
-4.54152
-4.54154
-4.54157
-4.5416
-4.54163
-4.59539
-4.59552
-4.59552
-4.59553
-4.59555
-4.59557
-4.59559
-4.5956
-4.59562
-4.59564
-4.59566
-4.59568
-4.59571
-4.59573
-4.59576
-4.64962
-4.64972
-4.64973
-4.64974
-4.64975
-4.64977
-4.64978
-4.6498
-4.64981
-4.64983
-4.64984
-4.64986
-4.64988
-4.6499
-4.64992
-4.70387
-4.70396
-4.70397
-4.70397
-4.70399
-4.704
-4.70401
-4.70402
-4.70403
-4.70405
-4.70406
-4.70407
-4.70409
-4.7041
-4.70412
-4.75815
-4.75823
-4.75823
-4.75824
-4.75825
-4.75826
-4.75827
-4.75828
-4.75829
-4.7583
-4.75831
-4.75832
-4.75833
-4.75834
-4.75836
-4.81246
-4.81252
-4.81253
-4.81253
-4.81254
-4.81254
-4.81255
-4.81256
-4.81257
-4.81258
-4.81258
-4.81259
-4.8126
-4.81261
-4.81263
-4.86679
-4.86684
-4.86684
-4.86685
-4.86685
-4.86686
-4.86686
-4.86687
-4.86688
-4.86688
-4.86689
-4.8669
-4.8669
-4.86691
-4.86692
-4.92114
-4.92118
-4.92118
-4.92119
-4.92119
-4.92119
-4.9212
-4.9212
-4.92121
-4.92121
-4.92122
-4.92122
-4.92123
-4.92124
-4.92124
-4.97551
-4.97555
-4.97555
-4.97555
-4.97555
-4.97555
-4.97556
-4.97556
-4.97556
-4.97556
-4.97557
-4.97557
-4.97558
-4.97558
-4.97559
-5.0299
-5.02993
-5.02993
-5.02993
-5.02993
-5.02993
-5.02993
-5.02993
-5.02993
-5.02994
-5.02994
-5.02994
-5.02995
-5.02995
-5.02995
-5.0843
-5.08432
-5.08432
-5.08432
-5.08432
-5.08432
-5.08432
-5.08432
-5.08432
-5.08433
-5.08433
-5.08433
-5.08433
-5.08433
-5.08434
-5.13872
-5.13874
-5.13873
-5.13873
-5.13873
-5.13873
-5.13873
-5.13873
-5.13873
-5.13873
-5.13873
-5.13873
-5.13873
-5.13873
-5.13874
-5.19315
-5.19316
-5.19316
-5.19315
-5.19315
-5.19315
-5.19315
-5.19315
-5.19315
-5.19315
-5.19315
-5.19315
-5.19315
-5.19315
-5.19315
-5.24758
-5.24759
-5.24759
-5.24759
-5.24759
-5.24759
-5.24758
-5.24758
-5.24758
-5.24758
-5.24758
-5.24757
-5.24757
-5.24757
-5.24757
-5.30203
-5.30204
-5.30203
-5.30203
-5.30203
-5.30203
-5.30203
-5.30202
-5.30202
-5.30202
-5.30201
-5.30201
-5.30201
-5.302
-5.302
-5.35648
-5.35649
-5.35649
-5.35648
-5.35648
-5.35648
-5.35647
-5.35647
-5.35647
-5.35646
-5.35646
-5.35645
-5.35645
-5.35645
-5.35644
-5.41095
-5.41096
-5.41095
-5.41095
-5.41095
-5.41094
-5.41094
-5.41093
-5.41093
-5.41093
-5.41092
-5.41092
-5.41091
-5.41091
-5.41091
-5.46546
-5.46546
-5.46545
-5.46545
-5.46544
-5.46544
-5.46543
-5.46543
-5.46543
-5.46542
-5.46542
-5.46542
-5.46542
-5.46541
-5.46541
-5.52001
-5.52001
-5.52
-5.51999
-5.51999
-5.51998
-5.51998
-5.51997
-5.51997
-5.51997
-5.51997
-5.51997
-5.51998
-5.51998
-5.51998
-5.57463
-5.57462
-5.57461
-5.5746
-5.57459
-5.57458
-5.57458
-5.57458
-5.57458
-5.57458
-5.57459
-5.57459
-5.5746
-5.5746
-5.57461
-5.62928
-5.62927
-5.62926
-5.62925
-5.62924
-5.62924
-5.62924
-5.62924
-5.62924
-5.62924
-5.62925
-5.62925
-5.62926
-5.62927
-5.62928
-5.68396
-5.68395
-5.68394
-5.68393
-5.68392
-5.68392
-5.68392
-5.68392
-5.68392
-5.68393
-5.68393
-5.68394
-5.68395
-5.68395
-5.68396
-5.73864
-5.73863
-5.73862
-5.73862
-5.73861
-5.73861
-5.73861
-5.73861
-5.73861
-5.73862
-5.73862
-5.73863
-5.73863
-5.73864