/*--------------------------------*- C++ -*----------------------------------*\
  =========                 |
  \\      /  F ield         | OpenFOAM: The Open Source CFD Toolbox
   \\    /   O peration     | Website:  https://openfoam.org
    \\  /    A nd           | Version:  7
     \\/     M anipulation  |
\*---------------------------------------------------------------------------*/
FoamFile
{
    version     2.0;
    format      ascii;
    class       surfaceScalarField;
    location    "200";
    object      phi;
}
// * * * * * * * * * * * * * * * * * * * * * * * * * * * * * * * * * * * * * //

dimensions      [0 3 -1 0 0 0 0];

internalField   nonuniform List<scalar> 
63695
(
-7.61993e-13
1.94049e-07
-2.89785e-12
5.82146e-07
-6.25944e-12
9.70243e-07
-1.02447e-11
1.35834e-06
-1.38274e-11
1.74644e-06
-1.4961e-11
2.13453e-06
-9.45686e-12
2.52262e-06
1.16007e-11
2.9107e-06
7.16595e-11
3.29876e-06
2.39199e-10
3.68674e-06
5.87784e-10
4.07466e-06
2.02444e-09
4.46167e-06
1.80947e-08
4.83513e-06
2.54446e-08
5.23195e-06
5.65284e-06
-2.25353e-12
1.94051e-07
-8.71338e-12
5.82153e-07
-1.87106e-11
9.70253e-07
-3.05509e-11
1.35835e-06
-4.10596e-11
1.74645e-06
-4.39392e-11
2.13453e-06
-2.61903e-11
2.5226e-06
4.02815e-11
2.91063e-06
2.18791e-10
3.29858e-06
6.99926e-10
3.68626e-06
2.04795e-09
4.07331e-06
3.93505e-09
4.45978e-06
1.40185e-08
4.82505e-06
2.67606e-08
5.2192e-06
5.6796e-06
-3.80784e-12
1.94055e-07
-1.47931e-11
5.82164e-07
-3.18846e-11
9.7027e-07
-5.25183e-11
1.35837e-06
-7.19065e-11
1.74647e-06
-8.08024e-11
2.13454e-06
-6.09402e-11
2.52258e-06
2.57099e-11
2.91055e-06
2.53288e-10
3.29835e-06
7.59707e-10
3.68576e-06
2.20804e-09
4.07186e-06
3.72768e-09
4.45826e-06
8.48315e-09
4.82029e-06
1.90328e-08
5.20865e-06
5.69863e-06
-5.47069e-12
1.9406e-07
-2.13629e-11
5.82179e-07
-4.63662e-11
9.70295e-07
-7.74662e-11
1.3584e-06
-1.09169e-10
1.7465e-06
-1.31331e-10
2.13456e-06
-1.25486e-10
2.52258e-06
-5.64821e-11
2.91048e-06
1.42894e-10
3.29815e-06
5.01107e-10
3.6854e-06
1.63248e-09
4.07073e-06
3.01904e-09
4.45687e-06
4.12337e-09
4.81919e-06
1.1327e-08
5.20145e-06
5.70996e-06
-7.26771e-12
1.94068e-07
-2.85428e-11
5.82201e-07
-6.24654e-11
9.70329e-07
-1.06019e-10
1.35845e-06
-1.53917e-10
1.74655e-06
-1.96884e-10
2.13461e-06
-2.19416e-10
2.5226e-06
-1.96393e-10
2.91045e-06
-6.66416e-11
3.29802e-06
1.32971e-10
3.6852e-06
8.59107e-10
4.07001e-06
2.08904e-09
4.45564e-06
1.03345e-09
4.82024e-06
4.77679e-09
5.19771e-06
5.71473e-06
-9.20662e-12
1.94077e-07
-3.63463e-11
5.82228e-07
-8.01816e-11
9.70373e-07
-1.38041e-10
1.3585e-06
-2.05456e-10
1.74661e-06
-2.74973e-10
2.13468e-06
-3.34625e-10
2.52266e-06
-3.70364e-10
2.91049e-06
-3.26952e-10
3.29798e-06
-2.57509e-10
3.68513e-06
7.93901e-11
4.06967e-06
1.01823e-09
4.45471e-06
-1.00137e-09
4.82226e-06
-5.46886e-10
5.19725e-06
5.71419e-06
-1.12765e-11
1.94088e-07
-4.47056e-11
5.82261e-07
-9.92941e-11
9.70428e-07
-1.72923e-10
1.35858e-06
-2.62218e-10
1.7467e-06
-3.61905e-10
2.13478e-06
-4.63153e-10
2.52276e-06
-5.61326e-10
2.91059e-06
-6.12105e-10
3.29803e-06
-6.56108e-10
3.68517e-06
-6.39135e-10
4.06965e-06
-2.61564e-11
4.45409e-06
-2.32532e-09
4.82456e-06
-4.62019e-09
5.19955e-06
5.70957e-06
-1.34509e-11
1.94101e-07
-5.35026e-11
5.82301e-07
-1.19469e-10
9.70494e-07
-2.09881e-10
1.35867e-06
-3.22526e-10
1.74681e-06
-4.54351e-10
2.13491e-06
-5.99311e-10
2.5229e-06
-7.59404e-10
2.91075e-06
-9.04621e-10
3.29817e-06
-1.05007e-09
3.68532e-06
-1.26489e-09
4.06987e-06
-9.47846e-10
4.45378e-06
-3.31956e-09
4.82693e-06
-7.50959e-09
5.20374e-06
5.70206e-06
-1.56966e-11
1.94117e-07
-6.25929e-11
5.82348e-07
-1.40331e-10
9.70572e-07
-2.48111e-10
1.35878e-06
-3.84824e-10
1.74695e-06
-5.49449e-10
2.13507e-06
-7.38445e-10
2.52309e-06
-9.57316e-10
2.91097e-06
-1.18989e-09
3.29841e-06
-1.42454e-09
3.68555e-06
-1.80094e-09
4.07024e-06
-1.74115e-09
4.45372e-06
-4.13838e-09
4.82933e-06
-9.51681e-09
5.20912e-06
5.69254e-06
-1.79783e-11
1.94135e-07
-7.18275e-11
5.82402e-07
-1.61505e-10
9.70661e-07
-2.86842e-10
1.3589e-06
-4.47695e-10
1.74711e-06
-6.44706e-10
2.13527e-06
-8.76485e-10
2.52332e-06
-1.14947e-09
2.91124e-06
-1.45883e-09
3.29872e-06
-1.77141e-09
3.68587e-06
-2.26277e-09
4.07073e-06
-2.42415e-09
4.45388e-06
-4.82447e-09
4.83173e-06
-1.09396e-08
5.21523e-06
5.6816e-06
-2.02626e-11
1.94155e-07
-8.10627e-11
5.82463e-07
-1.82639e-10
9.70763e-07
-3.25376e-10
1.35904e-06
-5.09919e-10
1.7473e-06
-7.3812e-10
2.1355e-06
-1.01035e-09
2.5236e-06
-1.33237e-09
2.91156e-06
-1.70774e-09
3.29909e-06
-2.08844e-09
3.68625e-06
-2.66353e-09
4.07131e-06
-3.01455e-09
4.45423e-06
-5.40228e-09
4.83412e-06
-1.19641e-08
5.22179e-06
5.66964e-06
-2.25183e-11
1.94178e-07
-9.01724e-11
5.82531e-07
-2.03432e-10
9.70876e-07
-3.63133e-10
1.3592e-06
-5.70531e-10
1.7475e-06
-8.28259e-10
2.13575e-06
-1.13806e-09
2.52391e-06
-1.50416e-09
2.91193e-06
-1.93578e-09
3.29952e-06
-2.37601e-09
3.68669e-06
-3.01314e-09
4.07195e-06
-3.52731e-09
4.45474e-06
-5.89567e-09
4.83649e-06
-1.27009e-08
5.2286e-06
5.65694e-06
-2.47203e-11
1.94203e-07
-9.90501e-11
5.82605e-07
-2.2364e-10
9.71001e-07
-3.99668e-10
1.35938e-06
-6.28832e-10
1.74773e-06
-9.14191e-10
2.13604e-06
-1.25847e-09
2.52425e-06
-1.66405e-09
2.91233e-06
-2.14337e-09
3.3e-06
-2.63577e-09
3.68718e-06
-3.32025e-09
4.07263e-06
-3.97536e-09
4.4554e-06
-6.32451e-09
4.83884e-06
-1.32275e-08
5.2355e-06
5.64371e-06
-2.68475e-11
1.9423e-07
-1.07615e-10
5.82686e-07
-2.43081e-10
9.71136e-07
-4.34661e-10
1.35957e-06
-6.84353e-10
1.74798e-06
-9.95357e-10
2.13635e-06
-1.37103e-09
2.52463e-06
-1.81186e-09
2.91277e-06
-2.33166e-09
3.30052e-06
-2.87011e-09
3.68772e-06
-3.59254e-09
4.07335e-06
-4.36965e-09
4.45617e-06
-6.70287e-09
4.84117e-06
-1.36024e-08
5.2424e-06
5.63011e-06
-2.88858e-11
1.94258e-07
-1.15807e-10
5.82773e-07
-2.61625e-10
9.71282e-07
-4.67903e-10
1.35978e-06
-7.36811e-10
1.74825e-06
-1.07148e-09
2.13669e-06
-1.4756e-09
2.52503e-06
-1.94794e-09
2.91325e-06
-2.50227e-09
3.30108e-06
-3.08174e-09
3.6883e-06
-3.83639e-09
4.07411e-06
-4.7192e-09
4.45706e-06
-7.04051e-09
4.84349e-06
-1.38681e-08
5.24923e-06
5.61624e-06
-3.08243e-11
1.94289e-07
-1.23588e-10
5.82865e-07
-2.79194e-10
9.71437e-07
-4.99277e-10
1.36e-06
-7.86075e-10
1.74854e-06
-1.14252e-09
2.13704e-06
-1.57236e-09
2.52546e-06
-2.07291e-09
2.91375e-06
-2.65698e-09
3.30166e-06
-3.27333e-09
3.68891e-06
-4.05683e-09
4.07489e-06
-5.03137e-09
4.45803e-06
-7.34448e-09
4.8458e-06
-1.40542e-08
5.25594e-06
5.60218e-06
-3.26581e-11
1.94322e-07
-1.30936e-10
5.82964e-07
-2.9575e-10
9.71602e-07
-5.28737e-10
1.36023e-06
-8.32129e-10
1.74884e-06
-1.20856e-09
2.13742e-06
-1.66165e-09
2.52591e-06
-2.18758e-09
2.91427e-06
-2.79757e-09
3.30227e-06
-3.44735e-09
3.68956e-06
-4.25779e-09
4.0757e-06
-5.31212e-09
4.45909e-06
-7.62023e-09
4.84811e-06
-1.41817e-08
5.2625e-06
5.588e-06
-3.43841e-11
1.94356e-07
-1.37846e-10
5.83067e-07
-3.11284e-10
9.71776e-07
-5.56299e-10
1.36048e-06
-8.75047e-10
1.74916e-06
-1.26982e-09
2.13781e-06
-1.74397e-09
2.52639e-06
-2.29281e-09
2.91482e-06
-2.92572e-09
3.3029e-06
-3.60605e-09
3.69024e-06
-4.44241e-09
4.07654e-06
-5.56636e-09
4.46021e-06
-7.87201e-09
4.85042e-06
-1.42659e-08
5.26889e-06
5.57374e-06
-3.60039e-11
1.94392e-07
-1.44321e-10
5.83175e-07
-3.25816e-10
9.71957e-07
-5.82014e-10
1.36073e-06
-9.14956e-10
1.74949e-06
-1.32658e-09
2.13822e-06
-1.81983e-09
2.52688e-06
-2.38947e-09
2.91539e-06
-3.04294e-09
3.30356e-06
-3.75143e-09
3.69095e-06
-4.61318e-09
4.0774e-06
-5.79807e-09
4.46139e-06
-8.10324e-09
4.85272e-06
-1.43178e-08
5.27511e-06
5.55942e-06
-3.75192e-11
1.9443e-07
-1.50374e-10
5.83288e-07
-3.39381e-10
9.72146e-07
-6.05967e-10
1.361e-06
-9.52025e-10
1.74984e-06
-1.37914e-09
2.13865e-06
-1.88979e-09
2.52739e-06
-2.47841e-09
2.91598e-06
-3.1506e-09
3.30423e-06
-3.88525e-09
3.69169e-06
-4.77208e-09
4.07829e-06
-6.01052e-09
4.46263e-06
-8.31662e-09
4.85503e-06
-1.43453e-08
5.28114e-06
5.54507e-06
-3.89352e-11
1.94469e-07
-1.56023e-10
5.83405e-07
-3.52026e-10
9.72342e-07
-6.28258e-10
1.36128e-06
-9.86442e-10
1.7502e-06
-1.42783e-09
2.13909e-06
-1.9544e-09
2.52792e-06
-2.56043e-09
2.91659e-06
-3.24988e-09
3.30492e-06
-4.00901e-09
3.69245e-06
-4.92069e-09
4.0792e-06
-6.20637e-09
4.46392e-06
-8.51436e-09
4.85734e-06
-1.43545e-08
5.28698e-06
5.53072e-06
-4.02561e-11
1.94509e-07
-1.61292e-10
5.83526e-07
-3.63807e-10
9.72545e-07
-6.48997e-10
1.36156e-06
-1.01841e-09
1.75057e-06
-1.47297e-09
2.13955e-06
-2.01416e-09
2.52846e-06
-2.63626e-09
2.91721e-06
-3.34184e-09
3.30562e-06
-4.12401e-09
3.69323e-06
-5.06029e-09
4.08013e-06
-6.38782e-09
4.46525e-06
-8.69825e-09
4.85965e-06
-1.43494e-08
5.29263e-06
5.51637e-06
-4.14889e-11
1.9455e-07
-1.66204e-10
5.83651e-07
-3.74782e-10
9.72753e-07
-6.68298e-10
1.36185e-06
-1.04811e-09
1.75095e-06
-1.51488e-09
2.14001e-06
-2.06955e-09
2.52901e-06
-2.70656e-09
2.91785e-06
-3.42737e-09
3.30634e-06
-4.23133e-09
3.69403e-06
-5.19192e-09
4.0811e-06
-6.55668e-09
4.46661e-06
-8.8698e-09
4.86196e-06
-1.43333e-08
5.29809e-06
5.50204e-06
-4.26385e-11
1.94593e-07
-1.70785e-10
5.83779e-07
-3.85012e-10
9.72968e-07
-6.86275e-10
1.36216e-06
-1.07575e-09
1.75134e-06
-1.55384e-09
2.14049e-06
-2.12102e-09
2.52958e-06
-2.77193e-09
2.9185e-06
-3.50723e-09
3.30708e-06
-4.33192e-09
3.69486e-06
-5.31642e-09
4.08208e-06
-6.71443e-09
4.46801e-06
-9.03024e-09
4.86428e-06
-1.43084e-08
5.30337e-06
5.48773e-06
-4.37122e-11
1.94637e-07
-1.75059e-10
5.83911e-07
-3.94554e-10
9.73187e-07
-7.03037e-10
1.36246e-06
-1.10151e-09
1.75173e-06
-1.59014e-09
2.14098e-06
-2.16896e-09
2.53016e-06
-2.83289e-09
2.91916e-06
-3.58208e-09
3.30783e-06
-4.42654e-09
3.6957e-06
-5.43448e-09
4.08309e-06
-6.86231e-09
4.46944e-06
-9.18063e-09
4.86659e-06
-1.42763e-08
5.30847e-06
5.47345e-06
-4.47147e-11
1.94682e-07
-1.79052e-10
5.84045e-07
-4.03465e-10
9.73411e-07
-7.18687e-10
1.36278e-06
-1.12555e-09
1.75214e-06
-1.62402e-09
2.14148e-06
-2.21372e-09
2.53075e-06
-2.88991e-09
2.91984e-06
-3.65248e-09
3.30859e-06
-4.51587e-09
3.69656e-06
-5.54668e-09
4.08412e-06
-7.00136e-09
4.47089e-06
-9.32184e-09
4.86891e-06
-1.42383e-08
5.31338e-06
5.45921e-06
-4.56531e-11
1.94727e-07
-1.82785e-10
5.84182e-07
-4.11798e-10
9.7364e-07
-7.33321e-10
1.3631e-06
-1.14803e-09
1.75256e-06
-1.6557e-09
2.14199e-06
-2.25562e-09
2.53135e-06
-2.94339e-09
2.92052e-06
-3.7189e-09
3.30937e-06
-4.60045e-09
3.69745e-06
-5.6535e-09
4.08517e-06
-7.13244e-09
4.47237e-06
-9.45462e-09
4.87124e-06
-1.41953e-08
5.31812e-06
5.44502e-06
-4.65312e-11
1.94774e-07
-1.86282e-10
5.84322e-07
-4.19602e-10
9.73874e-07
-7.47027e-10
1.36343e-06
-1.16908e-09
1.75298e-06
-1.68539e-09
2.1425e-06
-2.29493e-09
2.53196e-06
-2.99369e-09
2.92122e-06
-3.78175e-09
3.31015e-06
-4.68074e-09
3.69835e-06
-5.75534e-09
4.08625e-06
-7.25627e-09
4.47387e-06
-9.5796e-09
4.87356e-06
-1.41478e-08
5.32269e-06
5.43087e-06
-4.73554e-11
1.94821e-07
-1.89561e-10
5.84464e-07
-4.26921e-10
9.74111e-07
-7.59885e-10
1.36376e-06
-1.18884e-09
1.75341e-06
-1.71327e-09
2.14303e-06
-2.33189e-09
2.53258e-06
-3.04111e-09
2.92193e-06
-3.84136e-09
3.31095e-06
-4.75713e-09
3.69926e-06
-5.85254e-09
4.08734e-06
-7.37345e-09
4.47539e-06
-9.69733e-09
4.87588e-06
-1.40964e-08
5.32709e-06
5.41677e-06
-4.81287e-11
1.94869e-07
-1.92641e-10
5.84609e-07
-4.33796e-10
9.74352e-07
-7.71967e-10
1.3641e-06
-1.20741e-09
1.75384e-06
-1.7395e-09
2.14356e-06
-2.36672e-09
2.5332e-06
-3.08592e-09
2.92265e-06
-3.89802e-09
3.31177e-06
-4.82995e-09
3.70019e-06
-5.9454e-09
4.08846e-06
-7.4845e-09
4.47693e-06
-9.80826e-09
4.87821e-06
-1.40413e-08
5.33132e-06
5.40273e-06
-4.88566e-11
1.94918e-07
-1.95537e-10
5.84755e-07
-4.40263e-10
9.74597e-07
-7.83336e-10
1.36444e-06
-1.22489e-09
1.75428e-06
-1.76421e-09
2.1441e-06
-2.39961e-09
2.53384e-06
-3.12835e-09
2.92338e-06
-3.95198e-09
3.31259e-06
-4.89947e-09
3.70114e-06
-6.03416e-09
4.08959e-06
-7.58986e-09
4.47849e-06
-9.9128e-09
4.88053e-06
-1.39829e-08
5.33539e-06
5.38875e-06
-4.95414e-11
1.94968e-07
-1.98265e-10
5.84904e-07
-4.46356e-10
9.74845e-07
-7.9405e-10
1.36479e-06
-1.24138e-09
1.75473e-06
-1.78754e-09
2.14465e-06
-2.4307e-09
2.53448e-06
-3.16859e-09
2.92412e-06
-4.00343e-09
3.31343e-06
-4.9659e-09
3.7021e-06
-6.11903e-09
4.09074e-06
-7.6899e-09
4.48006e-06
-1.00113e-08
4.88285e-06
-1.39212e-08
5.3393e-06
5.37483e-06
-5.01877e-11
1.95018e-07
-2.00837e-10
5.85055e-07
-4.52102e-10
9.75096e-07
-8.04159e-10
1.36514e-06
-1.25694e-09
1.75518e-06
-1.80958e-09
2.1452e-06
-2.46015e-09
2.53513e-06
-3.20682e-09
2.92486e-06
-4.05256e-09
3.31427e-06
-5.02945e-09
3.70308e-06
-6.2002e-09
4.09192e-06
-7.78493e-09
4.48164e-06
-1.0104e-08
4.88517e-06
-1.38564e-08
5.34305e-06
5.36097e-06
-5.07971e-11
1.95069e-07
-2.03265e-10
5.85207e-07
-4.57528e-10
9.75351e-07
-8.13709e-10
1.3655e-06
-1.27165e-09
1.75564e-06
-1.83043e-09
2.14576e-06
-2.48807e-09
2.53579e-06
-3.24317e-09
2.92562e-06
-4.09951e-09
3.31513e-06
-5.09027e-09
3.70407e-06
-6.27782e-09
4.0931e-06
-7.87523e-09
4.48324e-06
-1.01913e-08
4.88749e-06
-1.37887e-08
5.34665e-06
5.34718e-06
-5.13734e-11
1.9512e-07
-2.05559e-10
5.85361e-07
-4.62656e-10
9.75608e-07
-8.22737e-10
1.36586e-06
-1.28557e-09
1.75611e-06
-1.85017e-09
2.14632e-06
-2.51457e-09
2.53646e-06
-3.27778e-09
2.92638e-06
-4.14439e-09
3.31599e-06
-5.1485e-09
3.70507e-06
-6.35204e-09
4.09431e-06
-7.96104e-09
4.48485e-06
-1.02733e-08
4.8898e-06
-1.3718e-08
5.3501e-06
5.33346e-06
-5.19176e-11
1.95172e-07
-2.07729e-10
5.85517e-07
-4.67506e-10
9.75868e-07
-8.31278e-10
1.36622e-06
-1.29875e-09
1.75657e-06
-1.86888e-09
2.14689e-06
-2.53973e-09
2.53713e-06
-3.31074e-09
2.92715e-06
-4.18732e-09
3.31687e-06
-5.20424e-09
3.70609e-06
-6.42297e-09
4.09553e-06
-8.04255e-09
4.48647e-06
-1.03502e-08
4.89211e-06
-1.36444e-08
5.35339e-06
5.31982e-06
-5.24331e-11
1.95224e-07
-2.09781e-10
5.85674e-07
-4.72095e-10
9.7613e-07
-8.39364e-10
1.36659e-06
-1.31122e-09
1.75704e-06
-1.88661e-09
2.14747e-06
-2.56363e-09
2.5378e-06
-3.34216e-09
2.92793e-06
-4.22839e-09
3.31776e-06
-5.2576e-09
3.70712e-06
-6.49074e-09
4.09676e-06
-8.11996e-09
4.4881e-06
-1.04223e-08
4.89441e-06
-1.35679e-08
5.35654e-06
5.30625e-06
-5.29202e-11
1.95277e-07
-2.11724e-10
5.85833e-07
-4.76439e-10
9.76395e-07
-8.47019e-10
1.36696e-06
-1.32305e-09
1.75752e-06
-1.90343e-09
2.14805e-06
-2.58635e-09
2.53849e-06
-3.37211e-09
2.92872e-06
-4.26767e-09
3.31865e-06
-5.30866e-09
3.70816e-06
-6.55543e-09
4.09801e-06
-8.19342e-09
4.48974e-06
-1.04896e-08
4.8967e-06
-1.34887e-08
5.35954e-06
5.29276e-06
-5.33818e-11
1.95331e-07
-2.13562e-10
5.85993e-07
-4.80552e-10
9.76662e-07
-8.54268e-10
1.36733e-06
-1.33424e-09
1.758e-06
-1.91938e-09
2.14863e-06
-2.60795e-09
2.53918e-06
-3.40065e-09
2.92951e-06
-4.30522e-09
3.31956e-06
-5.3575e-09
3.70921e-06
-6.61714e-09
4.09926e-06
-8.26307e-09
4.49138e-06
-1.05523e-08
4.89899e-06
-1.34068e-08
5.36239e-06
5.27936e-06
-5.38181e-11
1.95384e-07
-2.15302e-10
5.86155e-07
-4.84444e-10
9.76931e-07
-8.61131e-10
1.36771e-06
-1.34485e-09
1.75848e-06
-1.93451e-09
2.14922e-06
-2.62846e-09
2.53987e-06
-3.42785e-09
2.93031e-06
-4.34111e-09
3.32047e-06
-5.40416e-09
3.71028e-06
-6.67594e-09
4.10054e-06
-8.32903e-09
4.49303e-06
-1.06106e-08
4.90128e-06
-1.33221e-08
5.3651e-06
5.26603e-06
-5.42314e-11
1.95439e-07
-2.16948e-10
5.86318e-07
-4.88128e-10
9.77202e-07
-8.67626e-10
1.36809e-06
-1.3549e-09
1.75897e-06
-1.94884e-09
2.14982e-06
-2.64795e-09
2.54057e-06
-3.45376e-09
2.93112e-06
-4.37539e-09
3.32139e-06
-5.44872e-09
3.71135e-06
-6.73192e-09
4.10182e-06
-8.39144e-09
4.49469e-06
-1.06646e-08
4.90355e-06
-1.32348e-08
5.36767e-06
5.2528e-06
-5.46218e-11
1.95493e-07
-2.18505e-10
5.86481e-07
-4.91611e-10
9.77475e-07
-8.7377e-10
1.36847e-06
-1.3644e-09
1.75946e-06
-1.96242e-09
2.15041e-06
-2.66645e-09
2.54127e-06
-3.47843e-09
2.93193e-06
-4.40809e-09
3.32232e-06
-5.49122e-09
3.71243e-06
-6.78513e-09
4.10311e-06
-8.45038e-09
4.49636e-06
-1.07144e-08
4.90581e-06
-1.31449e-08
5.3701e-06
5.23966e-06
-5.49911e-11
1.95548e-07
-2.19977e-10
5.86646e-07
-4.94903e-10
9.7775e-07
-8.79576e-10
1.36886e-06
-1.37339e-09
1.75996e-06
-1.97527e-09
2.15102e-06
-2.684e-09
2.54198e-06
-3.50189e-09
2.93275e-06
-4.43926e-09
3.32326e-06
-5.5317e-09
3.71353e-06
-6.83566e-09
4.10442e-06
-8.50596e-09
4.49803e-06
-1.076e-08
4.90807e-06
-1.30524e-08
5.37239e-06
5.2266e-06
-5.53394e-11
1.95604e-07
-2.21366e-10
5.86812e-07
-4.98012e-10
9.78027e-07
-8.85059e-10
1.36924e-06
-1.38188e-09
1.76045e-06
-1.98743e-09
2.15162e-06
-2.70063e-09
2.54269e-06
-3.52418e-09
2.93357e-06
-4.46893e-09
3.3242e-06
-5.57022e-09
3.71463e-06
-6.88356e-09
4.10573e-06
-8.55827e-09
4.4997e-06
-1.08017e-08
4.91031e-06
-1.29575e-08
5.37455e-06
5.21365e-06
-5.56681e-11
1.95659e-07
-2.22676e-10
5.86979e-07
-5.00943e-10
9.78305e-07
-8.90229e-10
1.36963e-06
-1.38989e-09
1.76095e-06
-1.9989e-09
2.15223e-06
-2.71637e-09
2.54341e-06
-3.54533e-09
2.9344e-06
-4.49714e-09
3.32516e-06
-5.60681e-09
3.71574e-06
-6.92889e-09
4.10705e-06
-8.6074e-09
4.50138e-06
-1.08394e-08
4.91254e-06
-1.28602e-08
5.37657e-06
5.20078e-06
-5.59775e-11
1.95715e-07
-2.23909e-10
5.87147e-07
-5.03703e-10
9.78585e-07
-8.95098e-10
1.37002e-06
-1.39744e-09
1.76145e-06
-2.00973e-09
2.15284e-06
-2.73125e-09
2.54413e-06
-3.56538e-09
2.93523e-06
-4.52392e-09
3.32611e-06
-5.6415e-09
3.71685e-06
-6.97172e-09
4.10838e-06
-8.65342e-09
4.50306e-06
-1.08733e-08
4.91476e-06
-1.27605e-08
5.37846e-06
5.18802e-06
-5.62686e-11
1.95772e-07
-2.25069e-10
5.87316e-07
-5.06298e-10
9.78866e-07
-8.99676e-10
1.37042e-06
-1.40453e-09
1.76196e-06
-2.01992e-09
2.15346e-06
-2.74529e-09
2.54486e-06
-3.58435e-09
2.93607e-06
-4.54929e-09
3.32708e-06
-5.67435e-09
3.71798e-06
-7.01209e-09
4.10972e-06
-8.69643e-09
4.50475e-06
-1.09035e-08
4.91697e-06
-1.26586e-08
5.38021e-06
5.17537e-06
-5.65416e-11
1.95828e-07
-2.26157e-10
5.87486e-07
-5.08732e-10
9.79148e-07
-9.03971e-10
1.37081e-06
-1.4112e-09
1.76247e-06
-2.0295e-09
2.15408e-06
-2.75852e-09
2.54559e-06
-3.60227e-09
2.93692e-06
-4.5733e-09
3.32805e-06
-5.70538e-09
3.71911e-06
-7.05007e-09
4.11107e-06
-8.73648e-09
4.50644e-06
-1.09301e-08
4.91916e-06
-1.25546e-08
5.38184e-06
5.16281e-06
-5.67973e-11
1.95885e-07
-2.27176e-10
5.87656e-07
-5.11012e-10
9.79432e-07
-9.07993e-10
1.37121e-06
-1.41744e-09
1.76298e-06
-2.03849e-09
2.1547e-06
-2.77096e-09
2.54632e-06
-3.61916e-09
2.93776e-06
-4.59595e-09
3.32903e-06
-5.73464e-09
3.72025e-06
-7.08572e-09
4.11242e-06
-8.77367e-09
4.50812e-06
-1.09531e-08
4.92134e-06
-1.24485e-08
5.38333e-06
5.15036e-06
-5.70361e-11
1.95942e-07
-2.28128e-10
5.87827e-07
-5.13141e-10
9.79717e-07
-9.11748e-10
1.37161e-06
-1.42327e-09
1.76349e-06
-2.0469e-09
2.15532e-06
-2.78263e-09
2.54706e-06
-3.63506e-09
2.93862e-06
-4.6173e-09
3.33001e-06
-5.76216e-09
3.7214e-06
-7.11909e-09
4.11377e-06
-8.80807e-09
4.50981e-06
-1.09726e-08
4.92351e-06
-1.23404e-08
5.3847e-06
5.13802e-06
-5.72585e-11
1.95999e-07
-2.29015e-10
5.87999e-07
-5.15123e-10
9.80003e-07
-9.15246e-10
1.37201e-06
-1.4287e-09
1.764e-06
-2.05475e-09
2.15595e-06
-2.79355e-09
2.54779e-06
-3.64997e-09
2.93947e-06
-4.63736e-09
3.331e-06
-5.78799e-09
3.72255e-06
-7.15023e-09
4.11514e-06
-8.83974e-09
4.5115e-06
-1.09888e-08
4.92566e-06
-1.22304e-08
5.38594e-06
5.12579e-06
-5.7465e-11
1.96057e-07
-2.29837e-10
5.88171e-07
-5.16963e-10
9.8029e-07
-9.18493e-10
1.37241e-06
-1.43375e-09
1.76452e-06
-2.06205e-09
2.15658e-06
-2.80375e-09
2.54854e-06
-3.66394e-09
2.94033e-06
-4.65617e-09
3.33199e-06
-5.81216e-09
3.7237e-06
-7.17922e-09
4.1165e-06
-8.86877e-09
4.51319e-06
-1.10016e-08
4.92779e-06
-1.21187e-08
5.38706e-06
5.11367e-06
-5.76557e-11
1.96114e-07
-2.30598e-10
5.88344e-07
-5.18665e-10
9.80578e-07
-9.21496e-10
1.37281e-06
-1.43843e-09
1.76503e-06
-2.06883e-09
2.15721e-06
-2.81324e-09
2.54928e-06
-3.67698e-09
2.9412e-06
-4.67375e-09
3.33299e-06
-5.83472e-09
3.72486e-06
-7.20611e-09
4.11787e-06
-8.89524e-09
4.51488e-06
-1.10113e-08
4.9299e-06
-1.20053e-08
5.38805e-06
5.10167e-06
-5.78315e-11
1.96172e-07
-2.31298e-10
5.88518e-07
-5.2023e-10
9.80867e-07
-9.24262e-10
1.37322e-06
-1.44274e-09
1.76555e-06
-2.0751e-09
2.15784e-06
-2.82204e-09
2.55003e-06
-3.68912e-09
2.94206e-06
-4.69014e-09
3.33399e-06
-5.8557e-09
3.72603e-06
-7.23096e-09
4.11925e-06
-8.91921e-09
4.51657e-06
-1.10179e-08
4.932e-06
-1.18904e-08
5.38893e-06
5.08978e-06
-5.7992e-11
1.9623e-07
-2.31939e-10
5.88692e-07
-5.21664e-10
9.81157e-07
-9.26794e-10
1.37362e-06
-1.44669e-09
1.76607e-06
-2.08086e-09
2.15847e-06
-2.83018e-09
2.55078e-06
-3.70038e-09
2.94293e-06
-4.70537e-09
3.33499e-06
-5.87517e-09
3.7272e-06
-7.25384e-09
4.12063e-06
-8.94078e-09
4.51826e-06
-1.10214e-08
4.93408e-06
-1.17741e-08
5.38968e-06
5.078e-06
-5.81382e-11
1.96288e-07
-2.32521e-10
5.88866e-07
-5.22967e-10
9.81448e-07
-9.291e-10
1.37403e-06
-1.4503e-09
1.76659e-06
-2.08614e-09
2.15911e-06
-2.83766e-09
2.55153e-06
-3.71079e-09
2.94381e-06
-4.71948e-09
3.336e-06
-5.89316e-09
3.72837e-06
-7.27482e-09
4.12201e-06
-8.96002e-09
4.51994e-06
-1.10221e-08
4.93615e-06
-1.16564e-08
5.39031e-06
5.06635e-06
-5.82692e-11
1.96347e-07
-2.33045e-10
5.89041e-07
-5.24141e-10
9.81739e-07
-9.31182e-10
1.37444e-06
-1.45356e-09
1.76712e-06
-2.09094e-09
2.15975e-06
-2.84452e-09
2.55228e-06
-3.72038e-09
2.94468e-06
-4.73251e-09
3.33701e-06
-5.90974e-09
3.72955e-06
-7.29398e-09
4.12339e-06
-8.97703e-09
4.52162e-06
-1.102e-08
4.93819e-06
-1.15376e-08
5.39083e-06
5.05481e-06
-5.83863e-11
1.96405e-07
-2.33511e-10
5.89216e-07
-5.25189e-10
9.8203e-07
-9.33043e-10
1.37484e-06
-1.4565e-09
1.76764e-06
-2.09529e-09
2.16038e-06
-2.85076e-09
2.55304e-06
-3.72917e-09
2.94556e-06
-4.74448e-09
3.33803e-06
-5.92495e-09
3.73073e-06
-7.31138e-09
4.12478e-06
-8.9919e-09
4.5233e-06
-1.10152e-08
4.94021e-06
-1.14177e-08
5.39123e-06
5.04339e-06
-5.84881e-11
1.96463e-07
-2.3392e-10
5.89391e-07
-5.26108e-10
9.82323e-07
-9.34684e-10
1.37525e-06
-1.4591e-09
1.76816e-06
-2.09917e-09
2.16102e-06
-2.85641e-09
2.55379e-06
-3.73718e-09
2.94644e-06
-4.75546e-09
3.33905e-06
-5.93886e-09
3.73191e-06
-7.32712e-09
4.12617e-06
-9.00474e-09
4.52498e-06
-1.10078e-08
4.94222e-06
-1.12971e-08
5.39152e-06
5.03209e-06
-5.85756e-11
1.96522e-07
-2.34269e-10
5.89567e-07
-5.26899e-10
9.82615e-07
-9.36103e-10
1.37566e-06
-1.46137e-09
1.76869e-06
-2.10261e-09
2.16167e-06
-2.86147e-09
2.55455e-06
-3.74445e-09
2.94732e-06
-4.76547e-09
3.34007e-06
-5.95153e-09
3.7331e-06
-7.34129e-09
4.12756e-06
-9.01566e-09
4.52666e-06
-1.09981e-08
4.9442e-06
-1.11756e-08
5.3917e-06
5.02092e-06
-5.86466e-11
1.96581e-07
-2.34559e-10
5.89743e-07
-5.27556e-10
9.82908e-07
-9.37297e-10
1.37607e-06
-1.46331e-09
1.76921e-06
-2.1056e-09
2.16231e-06
-2.86596e-09
2.55531e-06
-3.751e-09
2.94821e-06
-4.77456e-09
3.34109e-06
-5.96304e-09
3.73429e-06
-7.35399e-09
4.12895e-06
-9.02479e-09
4.52833e-06
-1.0986e-08
4.94616e-06
-1.10537e-08
5.39177e-06
5.00987e-06
-5.87025e-11
1.96639e-07
-2.34783e-10
5.89919e-07
-5.28076e-10
9.83201e-07
-9.38258e-10
1.37648e-06
-1.46491e-09
1.76974e-06
-2.10813e-09
2.16295e-06
-2.86987e-09
2.55608e-06
-3.75684e-09
2.9491e-06
-4.78278e-09
3.34212e-06
-5.97346e-09
3.73548e-06
-7.36534e-09
4.13034e-06
-9.03227e-09
4.52999e-06
-1.09719e-08
4.9481e-06
-1.09314e-08
5.39173e-06
4.99893e-06
-5.87396e-11
1.96698e-07
-2.34941e-10
5.90095e-07
-5.28447e-10
9.83495e-07
-9.38971e-10
1.37689e-06
-1.46616e-09
1.77027e-06
-2.1102e-09
2.1636e-06
-2.87321e-09
2.55684e-06
-3.76199e-09
2.94999e-06
-4.79017e-09
3.34314e-06
-5.98288e-09
3.73667e-06
-7.37547e-09
4.13173e-06
-9.0383e-09
4.53166e-06
-1.09559e-08
4.95002e-06
-1.08091e-08
5.39158e-06
4.98812e-06
-5.87588e-11
1.96757e-07
-2.35022e-10
5.90272e-07
-5.28659e-10
9.83789e-07
-9.39418e-10
1.3773e-06
-1.46702e-09
1.7708e-06
-2.11178e-09
2.16424e-06
-2.87596e-09
2.5576e-06
-3.76646e-09
2.95088e-06
-4.79677e-09
3.34417e-06
-5.9914e-09
3.73787e-06
-7.38454e-09
4.13313e-06
-9.04305e-09
4.53332e-06
-1.09383e-08
4.95191e-06
-1.0687e-08
5.39133e-06
4.97744e-06
-5.8755e-11
1.96816e-07
-2.35022e-10
5.90448e-07
-5.28692e-10
9.84082e-07
-9.39571e-10
1.37771e-06
-1.46747e-09
1.77132e-06
-2.11283e-09
2.16489e-06
-2.8781e-09
2.55837e-06
-3.77024e-09
2.95177e-06
-4.80263e-09
3.34521e-06
-5.99911e-09
3.73906e-06
-7.39271e-09
4.13452e-06
-9.0468e-09
4.53497e-06
-1.09194e-08
4.95378e-06
-1.05657e-08
5.39098e-06
4.96687e-06
-5.87287e-11
1.96874e-07
-2.34926e-10
5.90624e-07
-5.28524e-10
9.84376e-07
-9.39392e-10
1.37812e-06
-1.46745e-09
1.77185e-06
-2.1133e-09
2.16553e-06
-2.87956e-09
2.55913e-06
-3.77331e-09
2.95266e-06
-4.80776e-09
3.34624e-06
-6.00611e-09
3.74026e-06
-7.4002e-09
4.13591e-06
-9.04981e-09
4.53662e-06
-1.08995e-08
4.95563e-06
-1.04453e-08
5.39052e-06
4.95643e-06
-5.86725e-11
1.96933e-07
-2.34723e-10
5.908e-07
-5.28123e-10
9.84669e-07
-9.38831e-10
1.37853e-06
-1.46689e-09
1.77238e-06
-2.1131e-09
2.16618e-06
-2.88028e-09
2.5599e-06
-3.77561e-09
2.95356e-06
-4.81219e-09
3.34728e-06
-6.01253e-09
3.74146e-06
-7.40724e-09
4.13731e-06
-9.0525e-09
4.53826e-06
-1.08792e-08
4.95746e-06
-1.03268e-08
5.38997e-06
4.9461e-06
-5.85856e-11
1.96992e-07
-2.3439e-10
5.90976e-07
-5.2745e-10
9.84962e-07
-9.37822e-10
1.37894e-06
-1.46571e-09
1.77291e-06
-2.11213e-09
2.16682e-06
-2.88014e-09
2.56067e-06
-3.77706e-09
2.95445e-06
-4.81587e-09
3.34832e-06
-6.01845e-09
3.74266e-06
-7.4141e-09
4.13871e-06
-9.05529e-09
4.53991e-06
-1.08591e-08
4.95926e-06
-1.02109e-08
5.38932e-06
4.93589e-06
-5.84576e-11
1.9705e-07
-2.33911e-10
5.91151e-07
-5.26456e-10
9.85255e-07
-9.36282e-10
1.37935e-06
-1.46379e-09
1.77344e-06
-2.11023e-09
2.16747e-06
-2.87897e-09
2.56144e-06
-3.77751e-09
2.95535e-06
-4.81876e-09
3.34936e-06
-6.02396e-09
3.74387e-06
-7.4211e-09
4.1401e-06
-9.05882e-09
4.54154e-06
-1.08401e-08
4.96105e-06
-1.0099e-08
5.38858e-06
4.92579e-06
-5.8287e-11
1.97108e-07
-2.3325e-10
5.91326e-07
-5.25078e-10
9.85547e-07
-9.34105e-10
1.37976e-06
-1.46095e-09
1.77396e-06
-2.1072e-09
2.16812e-06
-2.87654e-09
2.56221e-06
-3.77674e-09
2.95625e-06
-4.82071e-09
3.3504e-06
-6.02911e-09
3.74508e-06
-7.42858e-09
4.1415e-06
-9.06376e-09
4.54318e-06
-1.08231e-08
4.9628e-06
-9.99242e-09
5.38775e-06
4.9158e-06
-5.80594e-11
1.97166e-07
-2.32382e-10
5.91501e-07
-5.23243e-10
9.85838e-07
-9.3116e-10
1.38017e-06
-1.45702e-09
1.77449e-06
-2.10277e-09
2.16876e-06
-2.87253e-09
2.56298e-06
-3.77442e-09
2.95715e-06
-4.82146e-09
3.35145e-06
-6.03385e-09
3.74629e-06
-7.43689e-09
4.1429e-06
-9.07109e-09
4.54481e-06
-1.081e-08
4.96454e-06
-9.89398e-09
5.38683e-06
4.9059e-06
-5.77714e-11
1.97224e-07
-2.3126e-10
5.91674e-07
-5.20862e-10
9.86127e-07
-9.27292e-10
1.38058e-06
-1.45175e-09
1.77501e-06
-2.09662e-09
2.16941e-06
-2.86653e-09
2.56375e-06
-3.77009e-09
2.95806e-06
-4.82061e-09
3.3525e-06
-6.03801e-09
3.74751e-06
-7.44636e-09
4.14431e-06
-9.08186e-09
4.54645e-06
-1.08026e-08
4.96626e-06
-9.80686e-09
5.38584e-06
4.8961e-06
-5.74046e-11
1.97282e-07
-2.29848e-10
5.91847e-07
-5.17833e-10
9.86415e-07
-9.22314e-10
1.38098e-06
-1.44485e-09
1.77554e-06
-2.0883e-09
2.17005e-06
-2.85796e-09
2.56452e-06
-3.76309e-09
2.95896e-06
-4.8175e-09
3.35355e-06
-6.04117e-09
3.74873e-06
-7.45719e-09
4.14573e-06
-9.09748e-09
4.54809e-06
-1.0804e-08
4.96797e-06
-9.73687e-09
5.38477e-06
4.88636e-06
-5.69549e-11
1.97338e-07
-2.28084e-10
5.92018e-07
-5.14039e-10
9.86701e-07
-9.16013e-10
1.38138e-06
-1.43596e-09
1.77606e-06
-2.07732e-09
2.17069e-06
-2.84613e-09
2.56529e-06
-3.75252e-09
2.95987e-06
-4.81116e-09
3.35461e-06
-6.04255e-09
3.74996e-06
-7.4693e-09
4.14716e-06
-9.11942e-09
4.54974e-06
-1.08181e-08
4.96967e-06
-9.6915e-09
5.38364e-06
4.87667e-06
-5.63987e-11
1.97395e-07
-2.25927e-10
5.92187e-07
-5.09352e-10
9.86985e-07
-9.08149e-10
1.38178e-06
-1.42469e-09
1.77657e-06
-2.06304e-09
2.17133e-06
-2.83013e-09
2.56605e-06
-3.73718e-09
2.96078e-06
-4.80014e-09
3.35568e-06
-6.04073e-09
3.7512e-06
-7.48199e-09
4.1486e-06
-9.14893e-09
4.55141e-06
-1.0849e-08
4.97137e-06
-9.68233e-09
5.38248e-06
4.86699e-06
-5.57302e-11
1.97451e-07
-2.23305e-10
5.92355e-07
-5.03636e-10
9.87265e-07
-8.98464e-10
1.38218e-06
-1.41058e-09
1.77708e-06
-2.04476e-09
2.17196e-06
-2.80887e-09
2.56682e-06
-3.71553e-09
2.96168e-06
-4.78241e-09
3.35674e-06
-6.0335e-09
3.75245e-06
-7.49376e-09
4.15006e-06
-9.18817e-09
4.5531e-06
-1.09086e-08
4.97309e-06
-9.73774e-09
5.38131e-06
4.85725e-06
-5.49204e-11
1.97506e-07
-2.20179e-10
5.9252e-07
-4.96755e-10
9.87542e-07
-8.86689e-10
1.38257e-06
-1.39318e-09
1.77759e-06
-2.02167e-09
2.17259e-06
-2.78109e-09
2.56758e-06
-3.68564e-09
2.96259e-06
-4.75513e-09
3.35781e-06
-6.01721e-09
3.75372e-06
-7.50028e-09
4.15154e-06
-9.23309e-09
4.55483e-06
-1.09879e-08
4.97485e-06
-9.8571e-09
5.38018e-06
4.84739e-06
-5.39558e-11
1.9756e-07
-2.16474e-10
5.92683e-07
-4.88568e-10
9.87814e-07
-8.72563e-10
1.38295e-06
-1.37197e-09
1.77809e-06
-1.99292e-09
2.17321e-06
-2.74533e-09
2.56833e-06
-3.64518e-09
2.96349e-06
-4.71465e-09
3.35888e-06
-5.98723e-09
3.75499e-06
-7.49737e-09
4.15305e-06
-9.29429e-09
4.55663e-06
-1.11558e-08
4.97671e-06
-1.01965e-08
5.37922e-06
4.8372e-06
-5.27795e-11
1.97612e-07
-2.12152e-10
5.92842e-07
-4.78918e-10
9.88081e-07
-8.55802e-10
1.38333e-06
-1.34642e-09
1.77858e-06
-1.95754e-09
2.17383e-06
-2.69977e-09
2.56907e-06
-3.59101e-09
2.96438e-06
-4.65482e-09
3.35995e-06
-5.9329e-09
3.75627e-06
-7.46082e-09
4.15458e-06
-9.31561e-09
4.55849e-06
-1.12162e-08
4.97861e-06
-1.06015e-08
5.3786e-06
4.82659e-06
-5.13683e-11
1.97664e-07
-2.0722e-10
5.92998e-07
-4.68016e-10
9.88341e-07
-8.36821e-10
1.3837e-06
-1.31722e-09
1.77906e-06
-1.91651e-09
2.17443e-06
-2.64581e-09
2.5698e-06
-3.52499e-09
2.96526e-06
-4.57879e-09
3.361e-06
-5.86169e-09
3.75755e-06
-7.41691e-09
4.15613e-06
-9.42869e-09
4.5605e-06
-1.18352e-08
4.98101e-06
-1.19034e-08
5.37867e-06
4.81469e-06
-2.31528e-10
1.97895e-07
-9.31353e-10
5.93698e-07
-2.10727e-09
9.89517e-07
-3.76903e-09
1.38536e-06
-5.93555e-09
1.78123e-06
-8.63825e-09
2.17713e-06
-1.19297e-08
2.57309e-06
-1.58908e-08
2.96922e-06
-2.06432e-08
3.36575e-06
-2.63481e-08
3.76325e-06
-3.32454e-08
4.16303e-06
-4.15606e-08
4.56881e-06
-4.97076e-08
4.98916e-06
-2.29051e-08
5.35187e-06
4.62377e-06
1.68019e-07
-1.82091e-10
1.98077e-07
-7.22374e-10
5.94238e-07
-1.61946e-09
9.90414e-07
-2.87136e-09
1.38661e-06
-4.47674e-09
1.78283e-06
-6.4357e-09
2.17909e-06
-8.75203e-09
2.57541e-06
-1.14327e-08
2.9719e-06
-1.44807e-08
3.3688e-06
-1.78832e-08