/*--------------------------------*- C++ -*----------------------------------*\
  =========                 |
  \\      /  F ield         | OpenFOAM: The Open Source CFD Toolbox
   \\    /   O peration     | Website:  https://openfoam.org
    \\  /    A nd           | Version:  7
     \\/     M anipulation  |
\*---------------------------------------------------------------------------*/
FoamFile
{
    version     2.0;
    format      ascii;
    class       volVectorField;
    location    "200";
    object      U;
}
// * * * * * * * * * * * * * * * * * * * * * * * * * * * * * * * * * * * * * //

dimensions      [0 1 -1 0 0 0 0];

internalField   nonuniform List<vector> 
32100
(
(-3.11843e-06 4.60751e-17 1.6)
(-7.0687e-06 -3.20819e-16 1.6)
(-1.09086e-05 4.62136e-16 1.6)
(-1.41958e-05 2.91063e-16 1.6)
(-1.61767e-05 -8.74848e-18 1.6)
(-1.58445e-05 7.79744e-18 1.6)
(-1.13368e-05 7.44988e-17 1.6)
(1.08755e-06 -2.44664e-17 1.6)
(3.02283e-05 -2.67858e-16 1.59999)
(9.49014e-05 -2.25459e-18 1.59999)
(0.000237621 1.18491e-16 1.59998)
(0.00089576 1.50835e-16 1.59993)
(0.00345331 7.25491e-18 1.59832)
(-0.00877672 -1.21645e-16 1.5995)
(0.068534 2.33808e-16 1.60054)
(-9.10506e-06 1.70694e-16 1.60001)
(-2.13305e-05 1.48469e-16 1.60001)
(-3.30189e-05 -4.9275e-16 1.60001)
(-4.31399e-05 -2.30479e-16 1.60001)
(-4.94657e-05 1.17098e-17 1.60001)
(-4.91746e-05 -2.20634e-18 1.6)
(-3.70014e-05 -1.7494e-16 1.59999)
(-2.91114e-06 -3.76104e-16 1.59998)
(7.54961e-05 -1.07367e-15 1.59994)
(0.000256272 5.26422e-17 1.59985)
(0.000584941 2.88879e-17 1.59967)
(0.00109571 -3.71804e-16 1.59924)
(0.00867923 -1.11733e-16 1.59336)
(-0.0204856 -6.73406e-16 1.59631)
(0.0818804 -3.76462e-16 1.60944)
(-1.51948e-05 7.07144e-16 1.60004)
(-3.62447e-05 3.52633e-15 1.60004)
(-5.62706e-05 2.24123e-15 1.60003)
(-7.40933e-05 -2.18436e-15 1.60003)
(-8.61929e-05 7.79851e-17 1.60002)
(-8.8596e-05 -4.17664e-17 1.60001)
(-7.39837e-05 -4.5238e-16 1.59998)
(-2.9308e-05 -1.48153e-15 1.59993)
(6.79422e-05 1.47029e-15 1.59984)
(0.000284517 2.56629e-16 1.59963)
(0.000771333 2.38383e-16 1.59909)
(-5.23362e-05 -5.05303e-16 1.59849)
(0.011745 -1.75183e-16 1.59004)
(-0.0260669 1.18754e-16 1.59236)
(0.0716043 -6.72382e-16 1.61813)
(-2.16565e-05 7.09884e-16 1.60008)
(-5.2292e-05 3.80945e-15 1.60007)
(-8.15272e-05 2.59439e-15 1.60007)
(-0.000108512 1.35863e-15 1.60006)
(-0.000128779 8.79173e-17 1.60004)
(-0.000138161 -6.51423e-17 1.60002)
(-0.000129268 -2.1997e-16 1.59997)
(-8.91789e-05 4.0071e-16 1.59988)
(-2.58709e-06 1.09731e-15 1.59972)
(0.000147511 1.17509e-15 1.59941)
(0.000890634 3.87675e-16 1.59852)
(-0.00157572 -2.31674e-16 1.59794)
(0.0129571 -5.28353e-17 1.58907)
(-0.0278668 -4.14441e-16 1.58925)
(0.059635 -5.20087e-16 1.62303)
(-2.86066e-05 5.12628e-16 1.60013)
(-6.97152e-05 1.48608e-15 1.60012)
(-0.000109254 1.14894e-15 1.60012)
(-0.000147125 5.39955e-16 1.6001)
(-0.000178249 8.48318e-17 1.60008)
(-0.000199037 -1.05315e-16 1.60004)
(-0.000203519 -9.11223e-16 1.59997)
(-0.000180996 -9.17649e-17 1.59985)
(-0.000113268 5.48515e-16 1.59964)
(-0.000107015 -2.64161e-16 1.59928)
(0.000976505 1.86028e-16 1.59813)
(-0.00290343 1.12241e-16 1.59752)
(0.0129783 -1.38994e-16 1.58938)
(-0.0279437 1.02092e-15 1.58751)
(0.0495488 -1.24243e-15 1.62486)
(-3.60754e-05 5.18797e-16 1.6002)
(-8.85445e-05 2.17838e-15 1.60019)
(-0.000139475 6.018e-15 1.60018)
(-0.000189845 8.39275e-16 1.60016)
(-0.000234168 1.2065e-16 1.60013)
(-0.000269796 -1.15428e-16 1.60008)
(-0.000292513 -7.70554e-16 1.6)
(-0.000296952 -3.13884e-16 1.59985)
(-0.000240008 1.75355e-15 1.59959)
(-0.000418701 5.20394e-17 1.59922)
(0.00100145 2.69179e-16 1.59793)
(-0.00391665 -3.49956e-17 1.59714)
(0.0124065 -5.91079e-17 1.59007)
(-0.0272552 -2.17861e-16 1.58686)
(0.0413329 4.47119e-16 1.62517)
(-4.40268e-05 5.73689e-16 1.60028)
(-0.000108645 1.41786e-15 1.60027)
(-0.000171889 7.14509e-16 1.60026)
(-0.000236047 6.43293e-16 1.60024)
(-0.000295286 1.2828e-16 1.6002)
(-0.000348038 -1.33412e-16 1.60014)
(-0.000390991 -6.65179e-16 1.60005)
(-0.000429455 -3.10721e-16 1.59989)
(-0.000372219 3.78421e-16 1.59959)
(-0.000744704 7.00892e-17 1.59922)
(0.000952168 3.90708e-16 1.59787)
(-0.00465582 1.21061e-16 1.59686)
(0.0116022 6.39876e-16 1.59083)
(-0.026145 -4.24098e-16 1.58729)
(0.0345437 -1.27219e-16 1.62427)
(-5.23649e-05 1.0403e-15 1.60038)
(-0.000129759 -2.32911e-15 1.60037)
(-0.000206005 2.75148e-15 1.60036)
(-0.000284855 -2.65633e-15 1.60033)
(-0.00036008 1.37645e-16 1.60029)
(-0.00043139 -1.68423e-16 1.60023)
(-0.000494583 -1.16613e-15 1.60012)
(-0.000571924 -5.12696e-16 1.59996)
(-0.000506735 -8.5865e-16 1.59964)
(-0.00105856 1.81986e-16 1.59927)
(0.000844302 6.31604e-16 1.59792)
(-0.00517537 3.51814e-16 1.59668)
(0.0106972 -4.45942e-16 1.5916)
(-0.0247976 -9.29503e-18 1.58839)
(0.0288883 -4.13055e-16 1.62248)
(-6.09648e-05 9.54783e-16 1.6005)
(-0.000151566 4.94803e-15 1.60049)
(-0.000241247 2.48991e-15 1.60048)
(-0.000335322 1.40821e-15 1.60045)
(-0.000427014 1.53692e-16 1.60041)
(-0.000517669 -1.51043e-16 1.60034)
(-0.000599868 -4.1428e-16 1.60023)
(-0.00071813 -4.40833e-16 1.60007)
(-0.0006412 8.49616e-16 1.59973)
(-0.00134581 2.70741e-16 1.59935)
(0.000698385 6.63868e-16 1.59804)
(-0.00552166 -3.69577e-17 1.59662)
(0.00973897 9.243e-16 1.59239)
(-0.0233473 4.57114e-16 1.5899)
(0.0241542 -5.23136e-16 1.62001)
(-6.96913e-05 6.24069e-16 1.60064)
(-0.000173723 1.20194e-15 1.60063)
(-0.00027702 1.86049e-15 1.60062)
(-0.000386515 3.81387e-15 1.60059)
(-0.000494634 1.25685e-16 1.60054)
(-0.000604844 -1.20165e-16 1.60048)
(-0.000704172 -1.98159e-16 1.60036)
(-0.000862719 -2.1539e-15 1.6002)
(-0.000773184 1.3551e-15 1.59987)
(-0.00160055 3.4268e-16 1.59947)
(0.000527813 -6.21033e-16 1.59821)
(-0.00573244 -2.58421e-17 1.59664)
(0.00876154 -2.63428e-16 1.59318)
(-0.0218882 1.17571e-16 1.59167)
(0.0201659 -3.64929e-16 1.61707)
(-7.84181e-05 6.86619e-16 1.6008)
(-0.000195903 1.92686e-15 1.60079)
(-0.000312759 2.18236e-15 1.60077)
(-0.000437577 -1.8691e-16 1.60075)
(-0.00056167 1.51894e-16 1.6007)
(-0.000691136 -9.29976e-17 1.60063)
(-0.000805552 -6.23025e-17 1.60052)
(-0.00100187 -1.28771e-16 1.60037)
(-0.00090098 2.7563e-15 1.60003)
(-0.0018219 3.96537e-16 1.59962)
(0.000340801 6.49201e-16 1.59843)
(-0.00584001 -3.03416e-16 1.59674)
(0.00779551 -5.01251e-16 1.59397)
(-0.020476 -2.57861e-16 1.59362)
(0.0167815 7.92636e-16 1.61378)
(-8.70287e-05 3.61094e-16 1.60097)
(-0.000217807 7.81208e-15 1.60096)
(-0.000347965 2.8424e-15 1.60095)
(-0.000487776 2.31401e-15 1.60092)
(-0.000627103 2.76588e-16 1.60088)
(-0.000775135 -1.05525e-16 1.60082)
(-0.000902741 -4.13478e-16 1.60071)
(-0.00113324 1.50164e-15 1.60056)
(-0.00102367 2.34861e-15 1.60023)
(-0.00201141 4.34436e-16 1.5998)
(0.000143811 2.40707e-16 1.59867)
(-0.00587197 -4.42974e-16 1.5969)
(0.00686242 -8.03971e-16 1.59476)
(-0.0191389 -1.05479e-15 1.59568)
(0.0138912 -3.8544e-16 1.61025)
(-9.54277e-05 5.18464e-16 1.60117)
(-0.000239188 -1.84241e-16 1.60116)
(-0.000382227 2.56517e-15 1.60115)
(-0.000536526 1.92595e-15 1.60112)
(-0.000690184 3.41143e-16 1.60108)
(-0.000855817 -9.75687e-17 1.60102)
(-0.000994991 -2.32401e-15 1.60092)
(-0.00125554 -2.99921e-16 1.60077)
(-0.00114079 1.77238e-15 1.60045)
(-0.00217185 4.95454e-16 1.6)
(-5.77186e-05 1.39903e-16 1.59893)
(-0.0058506 -5.09801e-16 1.59711)
(0.00597417 -1.5895e-15 1.59554)
(-0.0178908 5.78721e-16 1.59778)
(0.0114093 7.51697e-16 1.60656)
(-0.000103537 1.06173e-15 1.60138)
(-0.000259848 4.49196e-15 1.60137)
(-0.000415234 3.14464e-15 1.60136)
(-0.00058339 2.58924e-15 1.60134)
(-0.0007504 4.28799e-16 1.6013)
(-0.000932493 -6.74137e-17 1.60125)
(-0.00108192 1.48291e-16 1.60115)
(-0.00136823 -8.30489e-16 1.601)
(-0.00125215 2.84861e-15 1.6007)
(-0.0023067 5.51327e-16 1.60023)
(-0.000259538 6.1351e-16 1.5992)
(-0.00579305 -5.91517e-16 1.59737)
(0.00513673 -3.59322e-16 1.59631)
(-0.0167373 2.05134e-16 1.5999)
(0.00926745 -1.08205e-15 1.60273)
(-0.000111303 1.14086e-15 1.60161)
(-0.000279644 3.90961e-15 1.6016)
(-0.00044676 3.07334e-15 1.60159)
(-0.000628064 2.25444e-15 1.60157)
(-0.000807436 4.87634e-16 1.60154)
(-0.00100475 -8.91181e-17 1.60149)
(-0.00116342 -6.9311e-16 1.60139)
(-0.00147127 -4.75558e-16 1.60125)
(-0.0013577 2.75138e-15 1.60096)
(-0.00241963 6.2943e-16 1.60047)
(-0.000458554 8.46603e-16 1.5995)
(-0.0057121 -1.38921e-15 1.59767)
(0.00435271 -1.51088e-15 1.59708)
(-0.0156789 -1.4536e-15 1.602)
(0.00741049 -1.95212e-15 1.59882)
(-0.000118686 1.49927e-15 1.60186)
(-0.000298479 5.43307e-15 1.60185)
(-0.000476666 5.37229e-15 1.60184)
(-0.00067036 3.23134e-15 1.60182)
(-0.000861137 6.00531e-16 1.60179)
(-0.0010724 -1.29711e-16 1.60175)
(-0.00123955 -1.17946e-15 1.60166)
(-0.00156503 -7.3097e-16 1.60152)
(-0.00145753 1.41934e-15 1.60123)
(-0.00251414 6.43688e-16 1.60073)
(-0.00065258 1.63128e-15 1.5998)
(-0.00561718 8.34823e-17 1.598)
(0.00362257 -2.79682e-16 1.59784)
(-0.0147124 9.80551e-17 1.60407)
(0.00579382 -3.28954e-16 1.59484)
(-0.000125667 1.44806e-15 1.60212)
(-0.000316296 5.48691e-15 1.60211)
(-0.000504877 5.27602e-15 1.60211)
(-0.000710188 3.68685e-15 1.60209)
(-0.000911471 7.01245e-16 1.60207)
(-0.00113543 -1.08487e-16 1.60202)
(-0.00131052 -2.49094e-15 1.60194)
(-0.00165007 -6.16896e-16 1.6018)
(-0.0015518 5.14106e-16 1.60152)
(-0.00259342 5.16243e-16 1.60101)
(-0.000840112 5.32485e-17 1.60011)
(-0.00551517 -4.04909e-16 1.59836)
(0.00294521 -2.47114e-16 1.5986)
(-0.0138328 -2.03336e-17 1.6061)
(0.00438119 -7.13486e-16 1.59083)
(-0.000132236 1.36653e-15 1.6024)
(-0.000333072 3.59282e-15 1.60239)
(-0.000531375 3.86746e-15 1.60239)
(-0.000747533 2.71397e-15 1.60237)
(-0.0009585 7.31402e-16 1.60235)
(-0.00119395 -7.81283e-17 1.60231)
(-0.0013766 -9.97868e-17 1.60223)
(-0.00172712 4.78087e-18 1.6021)
(-0.00164071 2.34848e-15 1.60183)
(-0.00266023 1.03059e-15 1.6013)
(-0.00102017 2.44926e-16 1.60043)
(-0.00541097 -6.01813e-16 1.59876)
(0.00231846 4.02543e-16 1.59936)
(-0.0130339 -4.70336e-17 1.60807)
(0.00314288 -6.93754e-16 1.58678)
(-0.0001384 1.42154e-15 1.60269)
(-0.000348815 4.56304e-15 1.60268)
(-0.000556185 4.46422e-15 1.60268)
(-0.000782442 6.18039e-15 1.60267)
(-0.00100235 7.29208e-16 1.60265)
(-0.00124815 -7.48183e-17 1.60261)
(-0.00143811 -5.39677e-16 1.60254)
(-0.00179693 -2.18223e-16 1.60241)
(-0.00172453 1.32341e-15 1.60214)
(-0.00271695 1.16877e-15 1.6016)
(-0.00119218 7.57443e-16 1.60077)
(-0.00530801 -6.92582e-16 1.59917)
(0.00173954 4.64026e-17 1.60012)
(-0.0123095 3.09143e-17 1.61)
(0.00205436 -6.13258e-16 1.58271)
(-0.000144165 1.50327e-15 1.60299)
(-0.000363547 3.97967e-15 1.60299)
(-0.000579363 4.13085e-15 1.60298)
(-0.000815003 2.19146e-15 1.60298)
(-0.00104318 7.03206e-16 1.60296)
(-0.00129829 -8.38743e-17 1.60293)
(-0.00149538 1.30284e-15 1.60286)
(-0.00186026 -4.22711e-16 1.60273)
(-0.00180351 2.82023e-15 1.60246)
(-0.00276557 8.02773e-16 1.60191)
(-0.00135588 8.79193e-16 1.60111)
(-0.0052086 -1.44065e-15 1.5996)
(0.00120538 3.64792e-16 1.60088)
(-0.0116532 -8.80347e-16 1.61187)
(0.00109522 -8.56125e-16 1.57864)
(-0.000149552 1.80225e-15 1.60331)
(-0.000377311 -4.35245e-16 1.6033)
(-0.000600986 -4.78689e-16 1.6033)
(-0.000845332 1.29424e-15 1.6033)
(-0.00108119 6.85768e-16 1.60328)
(-0.00134466 -9.33535e-17 1.60325)
(-0.00154873 -8.85534e-16 1.60319)
(-0.00191783 -1.66477e-15 1.60306)
(-0.00187793 1.6645e-15 1.60279)
(-0.00280772 7.45278e-16 1.60223)
(-0.00151124 1.50143e-15 1.60146)
(-0.00511423 -5.22913e-18 1.60006)
(0.000712809 -6.31724e-16 1.60164)
(-0.0110589 -4.82414e-16 1.61368)
(0.000248424 -9.87962e-16 1.57455)
(-0.000154577 1.67137e-15 1.60363)
(-0.000390155 5.35735e-15 1.60363)
(-0.000621145 3.9525e-15 1.60363)
(-0.000873565 1.49206e-15 1.60363)
(-0.00111657 7.26114e-16 1.60362)
(-0.00138756 -8.79891e-17 1.60359)
(-0.00159849 -3.60281e-16 1.60353)
(-0.00197032 1.21178e-16 1.60339)
(-0.00194807 1.58154e-15 1.60313)
(-0.00284476 7.04291e-16 1.60257)
(-0.00165838 1.66851e-16 1.60183)
(-0.00502578 -8.81172e-16 1.60053)
(0.000258671 3.53629e-16 1.6024)
(-0.0105208 1.35965e-17 1.61544)
(-0.000500383 -1.74184e-15 1.57047)
(-0.000159267 1.9314e-15 1.60397)
(-0.000402137 -3.06304e-16 1.60397)
(-0.000639936 6.36094e-15 1.60397)
(-0.000899845 3.06173e-15 1.60397)
(-0.00114954 8.29222e-16 1.60396)
(-0.00142726 -7.67456e-17 1.60394)
(-0.00164496 -1.87092e-16 1.60387)
(-0.00201834 3.30326e-16 1.60374)
(-0.0020142 5.63131e-18 1.60347)
(-0.00287775 6.74141e-16 1.60291)
(-0.00179755 1.30895e-15 1.6022)
(-0.00494371 -7.13434e-16 1.60101)
(-0.000160085 -1.04425e-15 1.60317)
(-0.0100336 -1.78266e-16 1.61713)
(-0.00116332 -4.43342e-16 1.56639)
(-0.000163642 1.81643e-15 1.60432)
(-0.000413314 6.40665e-15 1.60432)
(-0.000657462 6.61159e-15 1.60432)
(-0.000924317 3.50883e-15 1.60432)
(-0.00118027 9.18119e-16 1.60431)
(-0.00146408 -9.66725e-17 1.60429)
(-0.00168841 1.23934e-15 1.60423)
(-0.00206244 4.3385e-16 1.60409)
(-0.00207659 1.6181e-15 1.60383)
(-0.00290757 6.67778e-16 1.60327)
(-0.00192904 -8.62004e-17 1.60258)
(-0.00486819 -5.98344e-16 1.6015)
(-0.000546341 -8.22811e-16 1.60393)
(-0.00959233 1.03112e-15 1.61877)
(-0.00175072 3.47496e-16 1.56232)
(-0.000167728 1.70449e-15 1.60467)
(-0.000423747 3.67523e-15 1.60467)
(-0.000673818 8.06451e-15 1.60468)
(-0.000947126 3.79265e-15 1.60468)
(-0.00120898 9.60395e-16 1.60467)
(-0.00149826 -1.49007e-16 1.60465)
(-0.00172912 -1.11672e-15 1.60459)
(-0.0021031 -2.00707e-16 1.60446)
(-0.0021355 1.64847e-15 1.60419)
(-0.0029349 6.69613e-16 1.60363)
(-0.00205323 1.56706e-16 1.60297)
(-0.00479915 -9.81823e-16 1.60201)
(-0.000902803 -1.08015e-15 1.60469)
(-0.00919248 -2.60781e-16 1.62036)
(-0.00227138 -1.06163e-15 1.55826)
(-0.000171544 2.06186e-15 1.60504)
(-0.000433491 6.8603e-15 1.60504)
(-0.000689102 4.0782e-15 1.60504)
(-0.000968408 1.85813e-15 1.60505)
(-0.00123581 9.29936e-16 1.60504)
(-0.00153007 -1.8388e-16 1.60502)
(-0.00176731 -1.08018e-15 1.60496)
(-0.00214074 -1.92422e-15 1.60482)
(-0.00219117 1.60667e-15 1.60455)
(-0.00296028 -5.47014e-16 1.604)
(-0.00217047 3.74079e-16 1.60337)
(-0.00473639 -3.82093e-16 1.60253)
(-0.00123197 -1.09961e-15 1.60546)
(-0.00882998 -8.64716e-16 1.62189)
(-0.00273291 -2.25044e-15 1.5542)
(-0.000175116 1.955e-15 1.60541)
(-0.000442604 7.01293e-15 1.60541)
(-0.0007034 2.40048e-15 1.60542)
(-0.000988292 6.33937e-15 1.60542)
(-0.00126095 9.71961e-16 1.60542)
(-0.00155972 -1.81419e-16 1.6054)
(-0.00180319 -8.49975e-16 1.60534)
(-0.00217573 2.63612e-16 1.6052)
(-0.00224382 2.98725e-15 1.60493)
(-0.00298412 9.41917e-16 1.60438)
(-0.00228117 5.41919e-16 1.60378)
(-0.00467962 -2.84614e-16 1.60305)
(-0.00153615 -1.00572e-15 1.60623)
(-0.00850114 -1.22256e-15 1.62336)
(-0.00314182 -7.02073e-16 1.55016)
(-0.00017846 1.72683e-15 1.60579)
(-0.000451135 4.79475e-15 1.60579)
(-0.000716797 5.57707e-15 1.6058)
(-0.0010069 3.40701e-15 1.6058)
(-0.00128453 1.01688e-15 1.6058)
(-0.00158742 -1.62223e-16 1.60578)
(-0.00183696 -7.71889e-16 1.60573)
(-0.00220839 -2.45799e-16 1.60558)
(-0.00229366 9.51368e-16 1.60531)
(-0.00300674 -7.51547e-16 1.60476)
(-0.00238568 4.70228e-16 1.6042)
(-0.00462849 -6.4852e-16 1.60359)
(-0.00181743 -8.53566e-16 1.60699)
(-0.00820262 -7.88745e-16 1.62478)
(-0.00350378 -7.05864e-16 1.54613)
(-0.0001816 1.57201e-15 1.60618)
(-0.000459134 4.44067e-15 1.60618)
(-0.000729365 4.56054e-16 1.60619)
(-0.00102434 3.07537e-15 1.60619)
(-0.00130668 1.03979e-15 1.60619)
(-0.00161336 -1.33306e-16 1.60617)
(-0.00186879 -6.95078e-16 1.60612)
(-0.00223897 -2.72007e-16 1.60597)
(-0.00234089 1.33068e-15 1.60569)
(-0.00302838 -2.37993e-16 1.60516)
(-0.00248439 4.26205e-16 1.60463)
(-0.00458261 -3.48533e-16 1.60413)
(-0.00207776 -8.31488e-16 1.60776)
(-0.00793141 -8.22645e-16 1.62615)
(-0.00382373 -4.83129e-16 1.54212)
(-0.000184547 1.44246e-15 1.60657)
(-0.000466643 4.15754e-15 1.60657)
(-0.000741177 1.05043e-15 1.60658)
(-0.00104071 3.13025e-15 1.60659)
(-0.00132753 1.07753e-15 1.60659)
(-0.0016377 -9.51925e-17 1.60657)
(-0.00189883 -6.05044e-16 1.60651)
(-0.0022677 1.25254e-16 1.60636)
(-0.00238568 -2.17901e-17 1.60608)
(-0.00304922 1.79495e-15 1.60556)
(-0.00257764 4.81855e-16 1.60506)
(-0.00454159 -1.15251e-15 1.60468)
(-0.00231885 -7.68122e-16 1.60852)
(-0.00768479 -8.8736e-16 1.62747)
(-0.00410599 4.357e-16 1.53812)
(-0.000187321 1.30835e-15 1.60697)
(-0.000473703 3.72373e-15 1.60697)
(-0.000752292 4.52764e-15 1.60698)
(-0.00105609 3.0042e-15 1.60699)
(-0.00134718 1.10736e-15 1.60699)
(-0.00166058 -5.12169e-17 1.60697)
(-0.00192721 -5.18921e-16 1.60691)
(-0.00229479 7.51993e-17 1.60676)
(-0.00242819 2.36901e-15 1.60648)
(-0.00306939 -9.38358e-17 1.60597)
(-0.00266576 4.91819e-16 1.6055)
(-0.00450504 1.21965e-15 1.60523)
(-0.00254231 -7.01733e-16 1.60929)
(-0.00746035 -8.82032e-16 1.62874)
(-0.00435431 -7.1422e-16 1.53413)
(-0.000189932 1.17362e-15 1.60738)
(-0.000480349 3.12403e-15 1.60738)
(-0.000762766 5.56328e-15 1.60739)
(-0.00107058 2.70182e-15 1.6074)
(-0.00136571 1.12497e-15 1.6074)
(-0.00168212 -2.00433e-18 1.60738)
(-0.00195406 -4.33355e-16 1.60732)
(-0.00232039 9.36548e-17 1.60716)
(-0.00246858 1.52035e-15 1.60688)
(-0.00308898 1.62158e-15 1.60638)
(-0.00274905 5.30798e-16 1.60595)
(-0.00447257 1.25724e-15 1.60579)
(-0.00274955 -6.69698e-16 1.61006)
(-0.00725587 -8.82563e-16 1.62996)
(-0.00457204 -7.91079e-16 1.53016)
(-0.000192397 1.05559e-15 1.60779)
(-0.000486614 2.90327e-15 1.60779)
(-0.000772647 1.52306e-15 1.6078)
(-0.00108424 2.61964e-15 1.60781)
(-0.00138322 1.14536e-15 1.60781)
(-0.00170244 4.98617e-17 1.60779)
(-0.00197948 -3.49892e-16 1.60773)
(-0.00234463 1.52786e-16 1.60757)
(-0.00250697 3.41699e-16 1.60729)
(-0.00310805 8.65983e-16 1.6068)
(-0.00282782 5.73039e-16 1.60641)
(-0.0044438 -2.90701e-16 1.60636)
(-0.00294188 -6.61597e-16 1.61082)
(-0.0070694 -8.59111e-16 1.63113)
(-0.0047621 -1.9285e-16 1.52622)
(-0.000194722 8.222e-16 1.6082)
(-0.000492524 2.06357e-15 1.60821)
(-0.000781981 3.97192e-15 1.60822)
(-0.00109713 2.39502e-15 1.60823)
(-0.00139978 1.1436e-15 1.60823)
(-0.00172163 1.00448e-16 1.60821)
(-0.00200358 -2.78811e-16 1.60814)
(-0.00236763 1.09951e-16 1.60798)
(-0.00254347 -2.51508e-16 1.6077)
(-0.00312665 2.39702e-15 1.60723)
(-0.00290232 5.90509e-16 1.60687)
(-0.00441839 7.00231e-16 1.60693)
(-0.00312048 -6.44812e-16 1.61159)
(-0.00689914 -8.44713e-16 1.63225)
(-0.00492711 -8.40746e-16 1.52229)
(-0.000196921 9.45075e-16 1.60863)
(-0.000498107 2.95055e-15 1.60863)
(-0.000790802 -2.24629e-15 1.60864)
(-0.0011093 2.55026e-15 1.60865)
(-0.00141545 1.14435e-15 1.60865)
(-0.00173978 1.47718e-16 1.60863)
(-0.00202642 -2.06203e-16 1.60856)
(-0.00238949 -1.63477e-15 1.6084)
(-0.00257821 1.13181e-15 1.60812)
(-0.00314479 3.82044e-16 1.60766)
(-0.00297279 5.91063e-16 1.60734)
(-0.00439601 -6.1606e-16 1.60751)
(-0.00328639 -5.83551e-16 1.61235)
(-0.00674351 -2.29658e-15 1.63332)
(-0.00506938 3.46181e-16 1.51837)
(-0.000198998 1.20884e-15 1.60905)
(-0.000503383 3.94962e-15 1.60906)
(-0.000799148 -1.36464e-15 1.60906)
(-0.00112082 3.16872e-15 1.60907)
(-0.00143029 1.19412e-15 1.60908)
(-0.00175695 1.91806e-16 1.60905)
(-0.00204809 -2.17202e-16 1.60898)
(-0.00241029 4.27347e-16 1.60882)
(-0.00261127 -6.43968e-16 1.60854)
(-0.00316248 1.41952e-15 1.6081)
(-0.00303947 6.03031e-16 1.60782)
(-0.00437633 -2.97524e-16 1.60808)
(-0.00344059 -6.77127e-16 1.61311)
(-0.00660106 -9.9669e-16 1.63435)
(-0.00519098 -1.00137e-15 1.51448)
(-0.000200966 1.20399e-15 1.60948)
(-0.000508374 3.6372e-15 1.60949)
(-0.000807046 -6.61712e-16 1.6095)
(-0.00113171 3.06216e-15 1.6095)
(-0.00144434 1.24332e-15 1.60951)
(-0.0017732 2.54161e-16 1.60948)
(-0.00206866 -2.12897e-15 1.60941)
(-0.0024301 4.45019e-16 1.60925)
(-0.00264274 1.23659e-15 1.60897)
(-0.00317972 1.5798e-15 1.60855)
(-0.00310257 6.26948e-16 1.6083)
(-0.00435908 -5.75996e-17 1.60867)
(-0.00358394 -2.03152e-15 1.61387)
(-0.00647051 -9.27899e-16 1.63533)
(-0.00529373 -6.38987e-16 1.51062)
(-0.000202826 1.10509e-15 1.60992)
(-0.000513094 2.13302e-15 1.60992)
(-0.000814524 7.61707e-15 1.60993)
(-0.00114201 2.34525e-15 1.60994)
(-0.00145765 1.27138e-15 1.60994)
(-0.00178861 3.30089e-16 1.60992)
(-0.00208817 2.16784e-16 1.60984)
(-0.00244897 5.21185e-16 1.60968)
(-0.0026727 2.33757e-15 1.6094)
(-0.00319651 1.53766e-15 1.60899)
(-0.00316227 5.38592e-16 1.60878)
(-0.00434399 -1.18919e-16 1.60925)
(-0.00371723 -3.98602e-16 1.61463)
(-0.00635066 -9.62553e-16 1.63627)
(-0.00537933 -6.48196e-16 1.50677)
(-0.000204588 1.45394e-15 1.61035)
(-0.000517562 4.96935e-15 1.61036)
(-0.000821603 5.66807e-15 1.61037)
(-0.00115177 1.96465e-15 1.61038)
(-0.00147026 1.3209e-15 1.61038)
(-0.0018032 3.80011e-16 1.61035)
(-0.00210669 1.53994e-16 1.61028)
(-0.00246695 2.0172e-15 1.61011)
(-0.00270121 1.92099e-15 1.60984)
(-0.00321283 3.56073e-17 1.60945)
(-0.00321875 8.09269e-16 1.60928)
(-0.00433082 5.82727e-16 1.60984)
(-0.00384118 -2.97719e-16 1.61539)
(-0.00624049 1.57048e-17 1.63717)
(-0.00544923 8.88208e-16 1.50295)
(-0.000206255 1.34683e-15 1.6108)
(-0.000521789 5.03295e-15 1.6108)
(-0.000828305 1.03234e-15 1.61081)
(-0.001161 9.89022e-16 1.61082)
(-0.00148221 1.4836e-15 1.61082)
(-0.00181702 4.37785e-16 1.61079)
(-0.00212425 7.69022e-17 1.61072)
(-0.00248407 -1.13559e-16 1.61055)
(-0.00272834 7.52163e-16 1.61028)
(-0.00322866 1.22174e-15 1.60991)
(-0.00327217 1.01862e-15 1.60977)
(-0.00431933 6.20404e-16 1.61043)
(-0.00395644 -2.68764e-16 1.61614)
(-0.00613902 -6.30788e-16 1.63802)
(-0.0055048 -4.84875e-16 1.49915)
(-0.000207833 1.12168e-15 1.61124)
(-0.000525789 2.83671e-15 1.61125)
(-0.000834647 5.72784e-15 1.61126)
(-0.00116973 4.93971e-15 1.61126)
(-0.00149352 1.57624e-15 1.61126)
(-0.00183012 4.39422e-16 1.61124)
(-0.00214091 -1.45912e-16 1.61116)
(-0.00250039 -6.16904e-17 1.61099)
(-0.00275415 8.73944e-16 1.61073)
(-0.00324399 5.44482e-16 1.61037)
(-0.00332269 1.09129e-15 1.61027)
(-0.00430931 3.09255e-16 1.61103)
(-0.00406359 -9.35767e-16 1.61689)
(-0.00604542 -1.33464e-15 1.63882)
(-0.00554724 -5.24467e-16 1.49537)
(-0.000209325 9.55262e-16 1.61169)
(-0.000529569 2.43494e-15 1.6117)
(-0.000840647 9.5794e-16 1.6117)
(-0.00117799 3.41862e-15 1.61171)
(-0.00150421 1.55242e-15 1.61171)
(-0.00184251 -1.7134e-15 1.61168)
(-0.0021567 -1.57747e-16 1.6116)
(-0.00251591 1.06615e-16 1.61143)
(-0.00277869 1.05745e-15 1.61117)
(-0.00325881 3.33694e-15 1.61084)
(-0.00337044 2.35667e-15 1.61078)
(-0.00430059 4.48382e-16 1.61162)
(-0.00416319 -1.63693e-15 1.61764)
(-0.00595888 -8.54532e-16 1.63959)
(-0.00557768 -1.9334e-16 1.49162)
(-0.000210735 8.09406e-16 1.61214)
(-0.000533142 2.05674e-15 1.61215)
(-0.000846316 4.79693e-15 1.61216)
(-0.00118579 2.37138e-15 1.61217)
(-0.00151433 1.49374e-15 1.61216)
(-0.00185423 7.34578e-16 1.61213)
(-0.00217164 -1.46621e-16 1.61205)
(-0.00253067 1.10569e-16 1.61188)
(-0.002802 2.33608e-15 1.61163)
(-0.00327309 5.45618e-16 1.61131)
(-0.00341555 6.91852e-16 1.61129)
(-0.00429299 1.21663e-15 1.61222)
(-0.00425572 1.17489e-17 1.61838)
(-0.00587874 -7.97826e-16 1.64031)
(-0.00559708 -3.63387e-16 1.48789)
(-0.000212066 6.86743e-16 1.6126)
(-0.000536515 1.78048e-15 1.6126)
(-0.00085167 -3.88824e-15 1.61261)
(-0.00119316 2.29029e-15 1.61262)
(-0.00152388 1.45368e-15 1.61262)
(-0.0018653 7.46415e-16 1.61259)
(-0.00218578 -1.10525e-16 1.6125)
(-0.0025447 7.50472e-17 1.61233)
(-0.00282413 -2.56948e-16 1.61208)
(-0.00328682 6.0839e-16 1.61179)
(-0.00345814 6.93677e-16 1.6118)
(-0.00428635 -8.19414e-16 1.61282)
(-0.00434164 -4.29782e-16 1.61913)
(-0.00580432 -7.96341e-16 1.64099)
(-0.0056064 3.63864e-16 1.4842)
(-0.000213322 5.77988e-16 1.61306)
(-0.000539696 1.54642e-15 1.61306)
(-0.000856719 -2.91079e-15 1.61307)
(-0.00120011 2.07252e-15 1.61308)
(-0.00153289 1.41192e-15 1.61307)
(-0.00187575 7.52498e-16 1.61304)
(-0.00219914 -4.81104e-17 1.61296)
(-0.002558 1.1205e-16 1.61279)
(-0.00284511 5.35828e-16 1.61254)
(-0.00329998 2.85394e-16 1.61227)
(-0.00349832 8.3406e-16 1.61232)
(-0.00428053 -2.66692e-16 1.61342)
(-0.00442135 -2.95277e-16 1.61986)
(-0.00573509 -7.82361e-16 1.64162)
(-0.00560645 -1.81689e-15 1.48053)
(-0.000214504 4.9265e-16 1.61352)
(-0.00054269 1.3288e-15 1.61352)
(-0.000861474 -4.06176e-15 1.61353)
(-0.00120665 1.83493e-15 1.61354)
(-0.00154137 1.36077e-15 1.61353)
(-0.0018856 7.19897e-16 1.6135)
(-0.00221175 3.41879e-18 1.61341)
(-0.0025706 1.25877e-16 1.61324)
(-0.00286499 7.1322e-16 1.61301)
(-0.00331256 1.66657e-15 1.61275)
(-0.00353618 8.51088e-16 1.61284)
(-0.0042754 7.10268e-16 1.61402)
(-0.00449523 -2.81543e-16 1.6206)
(-0.00567049 -7.60364e-16 1.64222)
(-0.005598 -6.32748e-16 1.47688)
(-0.000215616 4.29298e-16 1.61398)
(-0.000545506 1.32504e-15 1.61398)
(-0.000865944 2.11733e-15 1.61399)
(-0.00121279 1.69657e-15 1.614)
(-0.00154935 1.30855e-15 1.61399)
(-0.00189487 6.39593e-16 1.61396)
(-0.00222364 3.78033e-17 1.61387)
(-0.00258251 9.05637e-17 1.6137)
(-0.00288379 4.39713e-17 1.61347)
(-0.00332456 1.77611e-15 1.61324)
(-0.00357184 8.82824e-16 1.61337)
(-0.00427085 7.2342e-16 1.61463)
(-0.00456363 -2.6925e-16 1.62133)
(-0.0056101 -6.79598e-16 1.64278)
(-0.00558175 -4.4739e-16 1.47327)
(-0.000216659 2.91408e-16 1.61444)
(-0.000548149 6.97927e-16 1.61445)
(-0.000870139 6.74229e-15 1.61446)
(-0.00121856 1.37165e-15 1.61446)
(-0.00155684 1.26641e-15 1.61446)
(-0.00190357 3.87237e-16 1.61442)
(-0.00223481 6.61015e-17 1.61433)
(-0.00259376 3.40862e-17 1.61417)
(-0.00290155 -5.61833e-16 1.61394)
(-0.00333595 1.61932e-15 1.61373)
(-0.00360538 1.04025e-15 1.61389)
(-0.00426677 1.55727e-15 1.61523)
(-0.00462688 -2.36571e-16 1.62205)
(-0.00555345 -5.18024e-16 1.64329)
(-0.00555836 -4.92008e-16 1.46969)
(-0.000217636 4.38462e-16 1.61491)
(-0.000550623 -5.1428e-15 1.61492)
(-0.000874067 5.26833e-15 1.61492)
(-0.00122396 -1.02302e-15 1.61493)
(-0.00156385 1.30434e-15 1.61492)
(-0.00191172 1.19055e-15 1.61489)
(-0.00224531 1.22689e-16 1.6148)
(-0.00260434 5.05328e-18 1.61463)
(-0.00291831 -5.41537e-16 1.61442)
(-0.00334675 -3.79696e-16 1.61422)
(-0.00363688 4.76473e-16 1.61442)
(-0.00426307 2.2698e-15 1.61584)
(-0.00468527 -2.35425e-16 1.62278)
(-0.0055002 -1.17632e-15 1.64377)
(-0.00552841 4.20564e-17 1.46613)
(-0.000218548 5.62912e-16 1.61538)
(-0.000552934 2.16729e-15 1.61538)
(-0.000877735 -7.48103e-16 1.61539)
(-0.001229 2.21439e-15 1.6154)
(-0.0015704 1.25336e-15 1.61539)
(-0.00191934 1.27045e-15 1.61535)
(-0.00225514 1.53986e-16 1.61526)
(-0.00261429 -1.63072e-18 1.6151)
(-0.00293409 -2.36933e-16 1.61489)
(-0.00335693 1.10823e-15 1.61472)
(-0.00366644 4.63816e-16 1.61495)
(-0.00425967 -8.76235e-16 1.61644)
(-0.00473907 -2.30902e-16 1.62349)
(-0.00544995 -1.14557e-15 1.64421)
(-0.00549247 1.92407e-15 1.46261)
(-0.000219397 4.68121e-16 1.61585)
(-0.000555086 1.43376e-15 1.61586)
(-0.000881152 3.16555e-15 1.61586)
(-0.0012337 1.104e-15 1.61587)
(-0.0015765 1.13665e-15 1.61586)
(-0.00192644 5.76842e-16 1.61582)
(-0.00226434 1.43909e-16 1.61573)
(-0.00262361 -8.90074e-18 1.61557)
(-0.00294892 -1.80472e-15 1.61537)
(-0.0033665 1.64441e-15 1.61521)
(-0.00369412 8.11976e-16 1.61549)
(-0.00425649 1.49604e-15 1.61705)
(-0.00478855 -1.96163e-16 1.6242)
(-0.00540245 -7.03865e-16 1.6446)
(-0.00545103 1.53774e-15 1.45911)
(-0.000220186 3.07971e-16 1.61632)
(-0.000557085 5.65875e-16 1.61633)
(-0.000884323 2.64886e-15 1.61634)
(-0.00123805 1.04689e-15 1.61634)
(-0.00158217 1.10094e-15 1.61633)
(-0.00193303 5.58078e-16 1.61629)
(-0.0022729 1.22853e-16 1.6162)
(-0.00263231 -2.13468e-17 1.61604)
(-0.00296283 -4.77253e-16 1.61585)
(-0.00337546 1.67826e-15 1.61571)
(-0.00372 8.07521e-16 1.61602)
(-0.00425347 9.04624e-16 1.61765)
(-0.00483394 -1.79434e-16 1.62491)
(-0.00535735 -7.57954e-16 1.64496)
(-0.00540458 -5.41645e-17 1.45565)
(-0.000220914 4.77505e-16 1.6168)
(-0.000558932 -5.79248e-16 1.6168)
(-0.000887255 -1.9385e-15 1.61681)
(-0.00124208 7.99486e-16 1.61682)
(-0.00158741 1.4228e-15 1.6168)
(-0.00193914 5.54202e-16 1.61676)
(-0.00228087 1.93683e-16 1.61667)
(-0.00264041 1.61908e-17 1.61651)
(-0.00297585 1.89252e-16 1.61633)
(-0.00338381 -1.24194e-16 1.61622)
(-0.00374416 8.84834e-16 1.61656)
(-0.00425056 -3.02484e-16 1.61826)
(-0.00487546 -2.93208e-16 1.62561)
(-0.00531447 -7.30718e-16 1.64529)
(-0.00535354 -5.19202e-16 1.45222)
(-0.000221585 -1.71033e-15 1.61728)
(-0.000560632 2.23597e-15 1.61728)
(-0.000889954 2.41967e-15 1.61729)
(-0.00124579 5.24404e-16 1.61729)
(-0.00159224 1.34778e-17 1.61728)
(-0.00194478 4.56715e-16 1.61724)
(-0.00228825 -1.11003e-17 1.61714)
(-0.00264793 4.07189e-17 1.61699)
(-0.00298801 4.02683e-16 1.61682)
(-0.00339156 2.13153e-15 1.61672)
(-0.00376667 9.95218e-16 1.6171)
(-0.0042477 2.32045e-15 1.61886)
(-0.00491333 3.18367e-16 1.62631)
(-0.0052735 -6.92935e-16 1.64557)
(-0.00529834 -1.83871e-15 1.44883)
(-0.000222197 -1.57304e-15 1.61775)
(-0.000562187 2.31544e-15 1.61776)
(-0.000892424 -2.46092e-15 1.61776)
(-0.00124918 3.47342e-16 1.61777)
(-0.00159667 -3.78912e-16 1.61775)
(-0.00194995 3.60629e-16 1.61771)
(-0.00229506 -1.14324e-16 1.61762)
(-0.00265488 3.75109e-17 1.61747)
(-0.00299933 2.666e-16 1.6173)
(-0.00339872 3.66154e-15 1.61723)
(-0.00378759 1.04894e-15 1.61764)
(-0.00424486 2.89053e-15 1.61947)
(-0.00494774 3.35081e-16 1.62699)
(-0.00523431 -6.53422e-16 1.64582)
(-0.00523935 -9.01281e-16 1.44546)
(-0.000222754 -1.07313e-15 1.61823)
(-0.000563601 1.76103e-16 1.61824)
(-0.000894668 -2.06513e-15 1.61824)
(-0.00125227 2.5489e-16 1.61824)
(-0.00160071 4.04211e-16 1.61823)
(-0.00195467 3.21666e-16 1.61819)
(-0.00230132 -1.07043e-16 1.61809)
(-0.00266128 1.26483e-17 1.61795)
(-0.00300984 -2.36361e-16 1.61779)
(-0.0034053 2.98437e-15 1.61774)
(-0.00380699 1.04234e-15 1.61818)
(-0.004242 2.05575e-15 1.62007)
(-0.00497888 5.55407e-17 1.62768)
(-0.00519665 -6.15186e-16 1.64603)
(-0.00517694 1.42376e-15 1.44213)
(-0.000223254 -6.86091e-16 1.61871)
(-0.000564873 -1.23173e-16 1.61872)
(-0.000896692 2.62024e-15 1.61872)
(-0.00125505 1.56387e-16 1.61872)
(-0.00160436 6.41258e-16 1.61871)
(-0.00195894 2.95271e-16 1.61866)
(-0.00230705 1.76806e-16 1.61857)
(-0.00266713 1.40385e-18 1.61843)
(-0.00301958 -1.93056e-15 1.61828)
(-0.0034113 1.25072e-15 1.61825)
(-0.00382495 1.02759e-15 1.61873)
(-0.0042391 1.10242e-15 1.62068)
(-0.00500694 4.21772e-16 1.62835)
(-0.00516044 -5.81378e-16 1.64621)
(-0.00511143 1.17756e-15 1.43883)