/*--------------------------------*- C++ -*----------------------------------*\
  =========                 |
  \\      /  F ield         | OpenFOAM: The Open Source CFD Toolbox
   \\    /   O peration     | Website:  https://openfoam.org
    \\  /    A nd           | Version:  8
     \\/     M anipulation  |
\*---------------------------------------------------------------------------*/
FoamFile
{
    version     2.0;
    format      ascii;
    class       volScalarField;
    location    "350";
    object      epsilon;
}
// * * * * * * * * * * * * * * * * * * * * * * * * * * * * * * * * * * * * * //

dimensions      [0 2 -3 0 0 0 0];

internalField   nonuniform List<scalar> 
7320
(
11607.3
10157.6
9314.33
8772.13
8390.12
8102.73
7875.85
7690.62
7535.55
7403.25
7289.3
7192.53
7114.13
7056.1
7018.31
6996.96
6985.28
6976.66
6966.8
6954.41
6939.73
6923.81
6907.66
6892.29
6878.2
6865.73
6854.95
6846.16
6839.22
6834.09
6830.61
6828.82
6828.57
6829.76
6832.21
6836.01
6840.99
6847.08
6854.14
6862.24
6871.25
6881.12
6891.69
6903.13
6915.29
6928.13
6941.57
6955.67
6970.35
6985.58
7001.23
7017.45
7034.11
7051.2
7068.6
7086.41
7104.52
7122.89
7141.37
7160.1
7178.94
7197.83
7216.65
7235.45
7254.11
7272.56
7290.63
7308.46
7325.88
7342.85
7359.26
7375.17
7390.49
7405.19
7419.15
7432.54
7445.26
7457.32
7468.65
7479.39
7489.48
7498.95
7507.71
7515.98
7523.7
7530.9
7537.53
7543.74
7549.51
7554.86
7559.73
7564.31
7568.55
7572.48
7576.06
7579.42
7582.52
7585.39
7587.97
7590.41
7592.67
7594.77
7596.66
7598.45
7600.1
7601.64
7603
7604.31
7605.52
7606.64
7607.66
7608.62
7609.51
7610.33
7611.09
7611.79
7612.44
7613.04
7613.6
7614.12
7614.53
7615.1
3749.3
3919.35
3598.66
3368.82
3210.16
3093.17
3002.09
2928.4
2867.15
2815.24
2770.91
2733.6
2703.51
2680.95
2665.35
2655.04
2647.54
2640.72
2633.37
2625.33
2616.89
2608.51
2600.57
2593.37
2587.04
2581.63
2577.12
2573.54
2570.81
2568.87
2567.64
2567.11
2567.19
2567.85
2569.02
2570.68
2572.8
2575.32
2578.22
2581.49
2585.08
2588.98
2593.16
2597.62
2602.33
2607.28
2612.44
2617.81
2623.38
2629.13
2635.03
2641.1
2647.31
2653.65
2660.09
2666.64
2673.27
2679.97
2686.71
2693.5
2700.29
2707.08
2713.84
2720.55
2727.19
2733.73
2740.15
2746.45
2752.58
2758.55
2764.32
2769.9
2775.26
2780.4
2785.29
2789.96
2794.4
2798.6
2802.56
2806.29
2809.8
2813.09
2816.15
2819.03
2821.71
2824.2
2826.52
2828.67
2830.67
2832.52
2834.23
2835.82
2837.29
2838.65
2839.9
2841.06
2842.13
2843.12
2844.03
2844.88
2845.66
2846.38
2847.05
2847.66
2848.24
2848.77
2849.25
2849.7
2850.12
2850.51
2850.87
2851.2
2851.51
2851.8
2852.06
2852.31
2852.54
2852.75
2852.94
2853.13
2853.29
2853.49
1528.98
1989.04
1884.97
1770.22
1685.88
1623.04
1574.13
1534.67
1501.95
1474.31
1450.74
1430.81
1414.43
1401.57
1391.9
1384.64
1378.74
1373.25
1367.68
1361.95
1356.25
1350.79
1345.76
1341.27
1337.36
1334.06
1331.32
1329.13
1327.45
1326.23
1325.42
1324.99
1324.9
1325.13
1325.65
1326.42
1327.43
1328.65
1330.08
1331.68
1333.45
1335.38
1337.45
1339.65
1341.98
1344.42
1346.96
1349.6
1352.33
1355.15
1358.04
1361.01
1364.03
1367.11
1370.24
1373.42
1376.63
1379.86
1383.13
1386.4
1389.68
1392.95
1396.22
1399.45
1402.66
1405.83
1408.95
1412.01
1414.99
1417.9
1420.73
1423.46
1426.09
1428.62
1431.05
1433.36
1435.56
1437.64
1439.62
1441.48
1443.23
1444.88
1446.43
1447.87
1449.22
1450.47
1451.64
1452.73
1453.74
1454.67
1455.54
1456.35
1457.09
1457.78
1458.41
1459
1459.54
1460.04
1460.51
1460.93
1461.33
1461.69
1462.03
1462.34
1462.63
1462.89
1463.14
1463.37
1463.58
1463.78
1463.96
1464.13
1464.28
1464.43
1464.56
1464.69
1464.8
1464.91
1465.01
1465.11
1465.19
1465.29
720.94
1168.15
1165.72
1105.65
1054.38
1014.75
983.61
958.433
937.571
919.957
904.907
892.017
881.083
871.994
864.598
858.579
853.463
848.774
844.218
839.72
835.358
831.25
827.495
824.15
821.236
818.75
816.675
814.98
813.633
812.603
811.86
811.371
811.111
811.06
811.205
811.514
811.974
812.574
813.304
814.144
815.088
816.127
817.261
818.469
819.749
821.095
822.509
823.974
825.491
827.055
828.671
830.32
832.005
833.72
835.47
837.24
839.032
840.842
842.676
844.514
846.36
848.209
850.062
851.906
853.739
855.558
857.365
859.14
860.884
862.591
864.262
865.883
867.453
868.968
870.435
871.836
873.173
874.446
875.66
876.805
877.886
878.904
879.869
880.768
881.608
882.392
883.128
883.808
884.44
885.026
885.578
886.083
886.55
886.982
887.385
887.754
888.094
888.409
888.705
888.975
889.223
889.451
889.665
889.861
890.041
890.207
890.366
890.509
890.642
890.764
890.879
890.985
891.083
891.173
891.259
891.338
891.411
891.48
891.544
891.604
891.659
891.722
358.821
725.631
779.831
754.393
722.984
696.537
675.15
657.669
643.121
630.799
620.188
610.913
602.742
595.589
589.456
584.299
579.927
576.046
572.409
568.893
565.504
562.3
559.346
556.68
554.321
552.272
550.524
549.054
547.839
546.858
546.092
545.513
545.103
544.847
544.74
544.752
544.875
545.1
545.421
545.821
546.295
546.837
547.449
548.112
548.825
549.584
550.392
551.235
552.114
553.026
553.976
554.95
555.948
556.97
558.019
559.085
560.17
561.272
562.398
563.534
564.682
565.84
567.012
568.187
569.365
570.543
571.727
572.898
574.058
575.202
576.332
577.436
578.512
579.558
580.579
581.558
582.498
583.396
584.259
585.074
585.847
586.577
587.273
587.922
588.53
589.098
589.633
590.128
590.588
591.016
591.42
591.789
592.131
592.446
592.742
593.012
593.261
593.491
593.709
593.906
594.088
594.254
594.412
594.554
594.686
594.807
594.923
595.028
595.124
595.213
595.297
595.374
595.445
595.511
595.573
595.63
595.684
595.734
595.78
595.824
595.865
595.908
180.952
454.609
539.369
539.231
522.292
504.947
489.988
477.427
466.833
457.773
449.86
442.762
436.271
430.363
425.173
420.821
417.254
414.24
411.514
408.898
406.34
403.866
401.525
399.357
397.389
395.634
394.095
392.759
391.614
390.646
389.845
389.188
388.664
388.262
387.978
387.789
387.689
387.67
387.729
387.851
388.032
388.268
388.561
388.895
389.269
389.681
390.133
390.615
391.125
391.663
392.235
392.827
393.441
394.078
394.741
395.422
396.122
396.842
397.589
398.349
399.127
399.921
400.735
401.56
402.397
403.243
404.102
404.961
405.819
406.673
407.524
408.362
409.184
409.988
410.777
411.539
412.273
412.978
413.658
414.305
414.918
415.499
416.054
416.574
417.061
417.517
417.948
418.348
418.719
419.064
419.391
419.69
419.967
420.222
420.462
420.681
420.883
421.069
421.245
421.405
421.552
421.687
421.814
421.93
422.036
422.134
422.228
422.312
422.39
422.461
422.529
422.591
422.648
422.701
422.75
422.796
422.839
422.879
422.915
422.95
422.984
423.016
91.0629
278.181
374.326
393.392
388.306
378.211
368.139
359.171
351.381
344.585
338.519
332.91
327.604
322.654
318.295
314.745
312.016
309.882
308.042
306.261
304.447
302.604
300.78
299.021
297.368
295.845
294.469
293.237
292.146
291.192
290.368
289.659
289.057
288.556
288.152
287.829
287.581
287.401
287.288
287.23
287.224
287.265
287.355
287.483
287.647
287.844
288.078
288.339
288.628
288.943
289.29
289.657
290.047
290.461
290.901
291.361
291.843
292.347
292.878
293.428
293.999
294.59
295.204
295.835
296.482
297.143
297.821
298.505
299.194
299.885
300.579
301.266
301.944
302.61
303.267
303.904
304.52
305.114
305.689
306.236
306.758
307.252
307.725
308.169
308.586
308.977
309.346
309.69
310.009
310.306
310.587
310.845
311.083
311.303
311.51
311.699
311.874
312.034
312.186
312.324
312.451
312.567
312.677
312.777
312.868
312.952
313.033
313.105
313.172
313.233
313.291
313.344
313.393
313.438
313.48
313.519
313.555
313.589
313.62
313.649
313.677
313.702
46.0976
162.192
254.266
286.99
292.088
288.348
282.432
276.401
270.827
265.773
261.107
256.637
252.276
248.151
244.569
241.803
239.891
238.597
237.58
236.562
235.417
234.133
232.762
231.359
229.978
228.657
227.424
226.287
225.253
224.321
223.492
222.756
222.109
221.547
221.066
220.656
220.312
220.028
219.804
219.63
219.503
219.419
219.38
219.377
219.408
219.471
219.569
219.694
219.846
220.025
220.234
220.465
220.72
221
221.306
221.636
221.988
222.364
222.768
223.194
223.642
224.112
224.608
225.122
225.655
226.204
226.771
227.348
227.932
228.522
229.117
229.709
230.295
230.873
231.444
232
232.539
233.061
233.566
234.049
234.509
234.946
235.365
235.758
236.128
236.476
236.804
237.11
237.395
237.66
237.91
238.14
238.353
238.55
238.735
238.904
239.06
239.204
239.339
239.463
239.576
239.68
239.778
239.868
239.949
240.025
240.096
240.161
240.22
240.275
240.326
240.373
240.417
240.456
240.494
240.528
240.56
240.589
240.616
240.641
240.666
240.687
24.1395
88.6508
164.991
205.258
218.893
220.981
218.889
215.493
211.842
208.261
204.763
201.252
197.717
194.346
191.493
189.463
188.303
187.768
187.488
187.152
186.604
185.821
184.855
183.772
182.638
181.503
180.405
179.363
178.39
177.493
176.675
175.934
175.267
174.671
174.146
173.684
173.28
172.932
172.637
172.389
172.185
172.022
171.901
171.814
171.761
171.739
171.75
171.79
171.857
171.95
172.073
172.219
172.391
172.587
172.81
173.058
173.329
173.625
173.949
174.295
174.664
175.057
175.475
175.913
176.369
176.843
177.334
177.836
178.348
178.866
179.391
179.914
180.435
180.949
181.457
181.953
182.436
182.904
183.357
183.792
184.207
184.601
184.978
185.334
185.669
185.984
186.282
186.56
186.819
187.06
187.287
187.496
187.69
187.87
188.038
188.193
188.335
188.467
188.59
188.702
188.806
188.901
188.99
189.072
189.147
189.216
189.28
189.339
189.393
189.443
189.489
189.532
189.572
189.608
189.641
189.672
189.701
189.727
189.751
189.773
189.795
189.813
13.5088
45.5639
99.818
140.773
160.693
168.052
169.616
168.74
166.894
164.666
162.228
159.593
156.825
154.164
151.99
150.623
150.119
150.238
150.596
150.858
150.844
150.515
149.92
149.134
148.232
147.274
146.309
145.364
144.459
143.607
142.816
142.085
141.417
140.809
140.263
139.772
139.335
138.948
138.611
138.318
138.066
137.853
137.68
137.54
137.433
137.357
137.313
137.298
137.31
137.348
137.415
137.506
137.622
137.764
137.932
138.125
138.342
138.584
138.852
139.143
139.456
139.794
140.154
140.535
140.935
141.352
141.785
142.23
142.684
143.146
143.614
144.083
144.55
145.013
145.47
145.918
146.354
146.778
147.189
147.584
147.962
148.322
148.665
148.99
149.296
149.584
149.857
150.112
150.35
150.572
150.78
150.973
151.151
151.317
151.472
151.615
151.747
151.868
151.981
152.085
152.181
152.269
152.351
152.427
152.496
152.559
152.619
152.673
152.723
152.769
152.811
152.851
152.887
152.92
152.951
152.979
153.005
153.029
153.05
153.071
153.09
153.106
8.23314
22.8785
55.2896
90.2326
113.184
124.855
129.86
131.463
131.401
130.498
129.091
127.307
125.284
123.302
121.753
120.964
121.008
121.666
122.56
123.339
123.801
123.889
123.644
123.142
122.465
121.685
120.855
120.013
119.185
118.388
117.634
116.927
116.271
115.667
115.116
114.615
114.162
113.755
113.394
113.074
112.794
112.551
112.345
112.172
112.03
111.919
111.839
111.787
111.762
111.764
111.792
111.846
111.924
112.027
112.156
112.309
112.486
112.687
112.912
113.161
113.431
113.724
114.039
114.373
114.726
115.095
115.479
115.876
116.281
116.695
117.115
117.536
117.957
118.375
118.788
119.193
119.589
119.974
120.348
120.709
121.054
121.383
121.698
121.995
122.277
122.542
122.793
123.029
123.249
123.454
123.646
123.824
123.99
124.143
124.287
124.42
124.542
124.655
124.76
124.857
124.946
125.028
125.104
125.175
125.239
125.298
125.353
125.404
125.45
125.493
125.532
125.569
125.602
125.633
125.661
125.687
125.711
125.733
125.753
125.771
125.789
125.803
5.47946
11.9937
28.2328
52.6684
74.4995
88.7681
96.7082
100.69
102.417
102.861
102.503
101.582
100.308
98.9862
98.0123
97.7169
98.2006
99.2825
100.61
101.83
102.718
103.194
103.286
103.065
102.618
102.02
101.335
100.605
99.8625
99.1312
98.4259
97.755
97.1239
96.5358
95.9927
95.4933
95.037
94.6232
94.251
93.9178
93.6217
93.3608
93.1347
92.9403
92.7765
92.6425
92.538
92.461
92.4105
92.3857
92.3868
92.4122
92.4616
92.5353
92.6337
92.7556
92.9005
93.068
93.2588
93.471
93.7045
93.9589
94.2341
94.5281
94.8391
95.1654
95.5063
95.8587
96.2206
96.5903
96.9661
97.3447
97.7235
98.1
98.4732
98.8401
99.1992
99.5495
99.8901
100.219
100.535
100.837
101.125
101.398
101.657
101.902
102.134
102.352
102.555
102.746
102.924
103.089
103.243
103.386
103.52
103.644
103.758
103.864
103.962
104.052
104.135
104.212
104.283
104.349
104.409
104.465
104.516
104.563
104.606
104.646
104.683
104.717
104.749
104.777
104.804
104.828
104.85
104.87
104.888
104.905
104.922
104.935
3.95846
6.92888
14.0457
27.7151
44.4837
58.7448
68.5387
74.5552
78.0037
79.8102
80.5376
80.5138
80.0056
79.3391
78.9028
79.0301
79.8554
81.2532
82.9148
84.5003
85.7674
86.6107
87.0342
87.1008
86.8935
86.4922
85.9642
85.36
84.7177
84.0647
83.4203
82.7963
82.2009
81.6392
81.1147
80.6275
80.1782
79.7668
79.3932
79.0557
78.7526
78.4827
78.2452
78.038
77.8601
77.7106
77.5892
77.4943
77.4249
77.3803
77.3603
77.3637
77.3902
77.4398
77.5128
77.6081
77.7253
77.8639
78.024
78.2044
78.4046
78.6244
78.8634
79.12
79.3926
79.6797
79.9804
80.292
80.6131
80.9419
81.277
81.6155
81.955
82.2934
82.6293
82.9605
83.2854
83.603
83.9126
84.2122
84.5005
84.7768
85.0411
85.2924
85.5308
85.7566
85.9705
86.1718
86.3607
86.5374
86.7029
86.8569
87.0003
87.1338
87.2584
87.3741
87.4811
87.58
87.6717
87.7561
87.8341
87.9061
87.973
88.0347
88.0915
88.1436
88.1918
88.2359
88.2765
88.3138
88.3485
88.3804
88.4097
88.4365
88.4611
88.4837
88.5042
88.523
88.5402
88.5559
88.5709
88.5827
3.07726
4.48277
7.43013
13.6639
23.6788
35.0288
44.8525
52.0831
56.9541
60.0478
61.866
62.7664
63.048
63.0418
63.1218
63.6203
64.7081
66.3263
68.2287
70.1046
71.7033
72.8917
73.6461
74.0111
74.0617
73.877
73.5271
73.0682
72.5433
71.9847
71.4156
70.8517
70.3039
69.7796
69.2837
68.8184
68.3849
67.9844
67.6173
67.2827
66.9797
66.7073
66.4649
66.2509
66.0645
65.9049
65.7717
65.6637
65.58
65.5198
65.4829
65.4682
65.4753
65.5043
65.555
65.6268
65.7192
65.8315
65.9637
66.1148
66.2842
66.4718
66.677
66.8986
67.1352
67.3854
67.6483
67.9217
68.2043
68.4946
68.7912
69.0917
69.3941
69.6964
69.9973
70.2946
70.5872
70.874
71.1542
71.4261
71.6886
71.9408
72.1824
72.4127
72.6317
72.8396
73.0367
73.2228
73.3977
73.5616
73.7153
73.8586
73.9921
74.1167
74.2329
74.341
74.4412
74.5339
74.6198
74.699
74.7722
74.8399
74.9026
74.9606
75.014
75.063
75.1083
75.1498
75.188
75.2231
75.2556
75.2855
75.313
75.3382
75.3614
75.3825
75.4017
75.4193
75.4353
75.45
75.4638
75.4749
2.5507
3.21784
4.43851
6.94308
11.6115
18.4667
26.1732
33.1852
38.7515
42.8196
45.6171
47.4153
48.4893
49.1474
49.7357
50.576
51.8705
53.6308
55.6874
57.7767
59.6534
61.1607
62.2432
62.9198
63.2505
63.3084
63.1634
62.8749
62.4906
62.047
61.5717
61.0841
60.5982
60.1239
59.6681
59.2347
58.8265
58.4453
58.0923
57.7676
57.471
57.202
56.9602
56.7444
56.5541
56.3887
56.2478
56.1304
56.0358
55.9633
55.9125
55.8825
55.8729
55.8837
55.9146
55.9652
56.0348
56.1229
56.2293
56.353
56.4938
56.6511
56.8247
57.0133
57.2159
57.4313
57.6584
57.8957
58.1418
58.3955
58.6556
58.9201
59.1872
59.4551
59.7225
59.9877
60.2494
60.5068
60.7588
61.0042
61.2418
61.4708
61.6907
61.9009
62.1013
62.2919
62.473
62.6443
62.8057
62.9574
63.0997
63.2327
63.3569
63.4728
63.5811
63.6819
63.7755
63.8622
63.9427
64.0169
64.0855
64.149
64.2079
64.2623
64.3125
64.3586
64.4012
64.4402
64.4761
64.5091
64.5397
64.5678
64.5936
64.6173
64.639
64.6588
64.6769
64.6934
64.7084
64.7221
64.735
64.7453
2.233
2.52133
3.02012
3.97854
5.81185
8.95429
13.4261
18.6073
23.6489
27.976
31.3859
33.91
35.7017
36.9948
38.0783
39.2449
40.7129
42.5566
44.6896
46.9126
49.0035
50.7918
52.1906
53.188
53.8213
54.151
54.2426
54.1557
53.9409
53.6387
53.2805
52.8898
52.4838
52.0752
51.6733
51.2841
50.912
50.5597
50.2296
49.9226
49.6393
49.3797
49.144
48.9316
48.742
48.5749
48.4301
48.3068
48.2045
48.1226
48.0606
48.0179
47.9941
47.9889
48.0022
48.0336
48.0825
48.1484
48.2309
48.3294
48.4433
48.5725
48.7163
48.874
49.0447
49.2272
49.4207
49.6238
49.8354
50.0545
50.28
50.5102
50.7435
50.9786
51.214
51.4483
51.6803
51.9092
52.134
52.3537
52.5672
52.7735
52.9723
53.1629
53.345
53.5187
53.684
53.8408
53.9889
54.1285
54.2596
54.3824
54.4973
54.6047
54.7051
54.7987
54.8858
54.9666
55.0416
55.111
55.1751
55.2345
55.2895
55.3404
55.3874
55.4307
55.4706
55.5072
55.5409
55.5719
55.6005
55.6268
55.651
55.6733
55.6936
55.7122
55.7292
55.7446
55.7587
55.7715
55.7834
55.7932
2.04416
2.1229
2.29757
2.64306
3.30188
4.48813
6.42677
9.18572
12.5417
16.0666
19.3523
22.1552
24.4133
26.209
27.7249
29.1882
30.8039
32.6876
34.8288
37.1031
39.3304
41.3429
43.029
44.3435
45.295
45.9243
46.2861
46.4362
46.4253
46.2965
46.0846
45.8167
45.5135
45.1908
44.8604
44.5307
44.208
43.8968
43.6003
43.3204
43.0587
42.8161
42.5931
42.3898
42.2062
42.0422
41.8978
41.7726
41.6662
41.5781
41.5081
41.4555
41.42
41.4014
41.3995
41.414
41.4443
41.4901
41.551
41.6264
41.7158
41.8188
41.9352
42.0643
42.2051
42.357
42.519
42.6901
42.8693
43.0557
43.2484
43.4461
43.6473
43.8509
44.0557
44.2602
44.4636
44.6649
44.8633
45.0579
45.2476
45.4317
45.6096
45.7806
45.9446
46.1013
46.2509
46.3931
46.5278
46.655
46.7748
46.8873
46.9927
47.0914
47.1838
47.27
47.3504
47.4251
47.4946
47.5588
47.6184
47.6735
47.7246
47.7719
47.8156
47.856
47.8931
47.9273
47.9587
47.9876
48.0143
48.0388
48.0614
48.0821
48.1011
48.1185
48.1343
48.1487
48.1618
48.1738
48.1849
48.194
1.93662
1.89378
1.90911
1.99891
2.2059
2.60151
3.28887
4.38501
5.9647
7.98969
10.2918
12.6394
14.8381
16.799
18.5503
20.2058
21.9115
23.7849
25.8668
28.1039
30.3726
32.5262
34.4422
36.046
37.3139
38.2601
38.9214
39.3439
39.5745
39.6559
39.6249
39.5114
39.3395
39.128
38.8916
38.6412
38.3854
38.1303
37.8809
37.6404
37.4111
37.1949
36.9931
36.8065
36.6356
36.4807
36.3422
36.22
36.1139
36.0238
35.9494
35.8904
35.8465
35.8176
35.8034
35.8038
35.8184
35.8468
35.8887
35.9435
36.0109
36.0905
36.182
36.2849
36.3985
36.5222
36.6552
36.7966
36.9457
37.1016
37.2636
37.4306
37.6015
37.7751
37.9506
38.1266
38.3022
38.4768
38.6495
38.8194
38.9857
39.1476
39.3046
39.4561
39.6018
39.7414
39.8749
40.0022
40.1231
40.2376
40.3456
40.4473
40.5428
40.6323
40.7163
40.7948
40.868
40.9363
40.9998
41.0587
41.1132
41.1638
41.2108
41.2543
41.2945
41.3316
41.3658
41.3973
41.4263
41.453
41.4776
41.5002
41.5211
41.5402
41.5578
41.5738
41.5884
41.6018
41.6139
41.625
41.6352
41.6437
1.87971
1.76619
1.69691
1.67021
1.69603
1.79462
1.99819
2.35273
2.91493
3.73708
4.84009
6.19001
7.70293
9.28196
10.864
12.4459
14.0784
15.8326
17.7578
19.8481
22.0359
24.2114
26.2584
28.0837
29.6326
30.8883
31.8626
32.5845
33.091
33.4203
33.608
33.6853
33.6785
33.6092
33.4946
33.3485
33.1817
33.0025
32.8176
32.6318
32.449
32.2717
32.1023
31.9423
31.7929
31.6552
31.5297
31.4169
31.3171
31.2303
31.1565
31.0957
31.0477
31.0124
30.9899
30.9798
30.9821
30.9964
31.0225
31.06
31.1085
31.1678
31.2375
31.3173
31.4067
31.505
31.6118
31.7263
31.8479
31.9758
32.1094
32.2479
32.3904
32.5359
32.6835
32.8323
32.9814
33.1301
33.2777
33.4235
33.5667
33.7066
33.8427
33.9745
34.1015
34.2236
34.3407
34.4525
34.559
34.6601
34.7557
34.8459
34.9308
35.0106
35.0854
35.1555
35.2211
35.2823
35.3393
35.3922
35.4413
35.4869
35.5292
35.5685
35.6048
35.6383
35.6693
35.6979
35.7242
35.7484
35.7707
35.7912
35.8101
35.8275
35.8435
35.858
35.8714
35.8835
35.8946
35.9046
35.9139
35.9215
1.85262
1.70013
1.58443
1.50015
1.44692
1.42877
1.45387
1.53516
1.69123
1.94625
2.32727
2.85742
3.54788
4.3939
5.38077
6.49711
7.74733
9.15292
10.7396
12.5146
14.4487
16.4724
18.4907
20.4071
22.1445
23.6549
24.9196
25.9428
26.744
27.3502
27.7914
28.0963
28.2912
28.399
28.4391
28.4273
28.3768
28.2982
28.2
28.0888
27.9701
27.8479
27.7256
27.6053
27.4893
27.3793
27.2765
27.1818
27.0961
27.0198
26.9533
26.8967
26.8502
26.814
26.788
26.7722
26.7667
26.7713
26.7857
26.8098
26.8433
26.8861
26.9378
26.9981
27.0668
27.1433
27.2273
27.3181
27.4152
27.518
27.6261
27.7387
27.8551
27.9745
28.0962
28.2194
28.3433
28.4673
28.5908
28.7131
28.8336
28.9517
29.067
29.1788
29.287
29.3911
29.4912
29.587
29.6784
29.7653
29.8477
29.9256
29.9991
30.0682
30.1331
30.194
30.2511
30.3044
30.3541
30.4004
30.4434
30.4833
30.5204
30.5548
30.5867
30.6162
30.6435
30.6687
30.6919
30.7132
30.7329
30.751
30.7677
30.7831
30.7972
30.8101
30.8219
30.8327
30.8425
30.8514
30.8596
30.8664
1.84139
1.6697
1.52947
1.4157
1.32538
1.25753
1.21299
1.1943
1.20586
1.25422
1.34822
1.4989
1.71899
2.02236
2.42396
2.94074
3.59375
4.40915
5.41567
6.63513
8.0693
9.68857
11.4316
13.2164
14.9584
16.5858
18.0488
19.3208
20.3953
21.2799
21.9912
22.5499
22.9781
23.2968
23.5256
23.6812
23.7784
23.8295
23.8448
23.8328
23.8005
23.7535
23.6963
23.6328
23.5657
23.4974
23.4299
23.365
23.3039
23.2477
23.1973
23.153
23.1156
23.0853
23.0624
23.0471
23.0396
23.0399
23.0481
23.0639
23.0873
23.1181
23.1564
23.2017
23.254
23.3129
23.378
23.449
23.5253
23.6067
23.6925
23.7823
23.8755
23.9715
24.0697
24.1694
24.2699
24.3708
24.4714
24.5712
24.6698
24.7666
24.8612
24.9532
25.0423
25.1282
25.2108
25.2899
25.3655
25.4375
25.5059
25.5706
25.6316
25.6891
25.7432
25.794
25.8416
25.8861
25.9277
25.9664
26.0024
26.0359
26.0671
26.096
26.1228
26.1476
26.1706
26.1918
26.2114
26.2294
26.2461
26.2614
26.2755
26.2885
26.3004
26.3114
26.3214
26.3305
26.3389
26.3464
26.3534
26.3591
1.83747
1.65774
1.50597
1.37779
1.26982
1.17973
1.10614
1.04851
1.00709
0.982869
0.977636
0.994047
1.03586
1.10831
1.21888
1.37824
1.60167
1.9106
2.33347
2.90419
3.65641
4.61244
5.77097
7.09982
8.54029
10.0205
11.4714
12.8371
14.0798
15.1792
16.129
16.9333
17.6026
18.1509
18.5934
18.9449
19.2196
19.4303
19.5883
19.7031
19.7831
19.8354
19.8658
19.8792
19.8797
19.8708
19.8552
19.835
19.8123
19.7889
19.766
19.7449
19.7263
19.7111
19.6999
19.6931
19.6912
19.6944
19.7029
19.7168
19.7363
19.7612
19.7916
19.8274
19.8686
19.9148
19.966
20.0218
20.0819
20.146
20.2137
20.2846
20.3582
20.434
20.5117
20.5905
20.6701
20.7499
20.8294
20.9084
20.9862
21.0626
21.1373
21.2098
21.2799
21.3475
21.4125
21.4746
21.5339
21.5903
21.6439
21.6945
21.7423
21.7872
21.8295
21.8691
21.9063
21.941
21.9735
22.0038
22.0319
22.0581
22.0825
22.1051
22.1261
22.1455
22.1635
22.1802
22.1955
22.2097
22.2228
22.2349
22.246
22.2562
22.2656
22.2742
22.2821
22.2894
22.2959
22.3019
22.3074
22.312
1.83635
1.65389
1.49762
1.36332
1.24761
1.14783
1.062
0.988663
0.926844
0.875965
0.835809
0.806501
0.788553
0.782985
0.791584
0.817276
0.864733
0.94121
1.05774
1.23044
1.48148
1.83848
2.3308
2.98196
3.80023
4.77144
5.85891
7.01098
8.17313
9.29808
10.3512
11.3109
12.1667
12.9165
13.564
14.1162
14.5824
14.9723
15.2959
15.5622
15.7799
15.9563
16.0984
16.2118
16.3016
16.3722
16.4273
16.4699
16.5028
16.5281
16.5476
16.5632
16.5762
16.588
16.5994
16.6115
16.6248
16.6399
16.6574
16.6776
16.7007
16.727
16.7566
16.7897
16.8261
16.866
16.9091
16.9555
17.0047
17.0567
17.1112
17.1678
17.2262
17.286
17.3469
17.4084
17.4701
17.5317
17.5928
17.653
17.712
17.7696
17.8255
17.8795
17.9314
17.9812
18.0287
18.0738
18.1167
18.1572
18.1955
18.2315
18.2653
18.297
18.3266
18.3544
18.3803
18.4044
18.4269
18.4478
18.4673
18.4853
18.5021
18.5177
18.5321
18.5454
18.5578
18.5693
18.5798
18.5896
18.5986
18.6069
18.6145
18.6216
18.6281
18.634
18.6395
18.6445
18.649
18.6532
18.657
18.66
1.8361
1.6529
1.49526
1.35888
1.24033
1.13688
1.04634
0.966998
0.897498
0.836792
0.784088
0.738811
0.700586
0.66925
0.644891
0.627931
0.61925
0.620393
0.633896
0.663762
0.716162
0.800253
0.928974
1.11926
1.39106
1.7643
2.25391
2.86411
3.5848
4.39176
5.25127
6.12679
6.98561
7.80258
8.56127
9.25268
9.87359
10.4247
10.9091
11.3317
11.698
12.014
12.2857
12.5186
12.7179
12.8882
13.0337
13.158
13.2646
13.3561
13.4352
13.504
13.5642
13.6173
13.6651
13.7087
13.7493
13.7878
13.825
13.8615
13.8979
13.9347
13.9722
14.0106
14.0503
14.0913
14.1337
14.1774
14.2224
14.2686
14.3158
14.3637
14.4123
14.4611
14.51
14.5585
14.6065
14.6535
14.6994
14.7439
14.7867
14.8278
14.8671
14.9043
14.9394
14.9725
15.0034
15.0323
15.0592
15.0842
15.1073
15.1287
15.1485
15.1667
15.1835
15.1989
15.2131
15.2262
15.2382
15.2493
15.2595
15.2689
15.2775
15.2855
15.2928
15.2996
15.3058
15.3116
15.3169
15.3218
15.3264
15.3305
15.3344
15.3379
15.3412
15.3442
15.3469
15.3494
15.3517
15.3538
15.3557
15.3571
1.83605
1.6527
1.49473
1.35782
1.23848
1.13393
1.04192
0.960651
0.888632
0.824668
0.767784
0.717191
0.672257
0.632488
0.597525
0.567143
0.541269
0.520008
0.503701
0.493012
0.489077
0.493709
0.509701
0.541189
0.594094
0.676485
0.7987
0.972801
1.21121
1.52433
1.91774
2.38982
2.93094
3.52445
4.14949
4.78428
5.40936
6.00941
6.574
7.09704
7.57598
8.01064
8.40242
8.7536
9.06706
9.34597
9.59366
9.81339
10.0083
10.1814
10.3355
10.4728
10.5956
10.7059
10.8053
10.8951
10.9768
11.0519
11.1214
11.1863
11.2474
11.3056
11.3614
11.4152
11.4675
11.5187
11.5688
11.6181
11.6667
11.7145
11.7616
11.8077
11.8528
11.8967
11.9392
11.9801
12.0192
12.0563
12.0912
12.124
12.1543
12.1822
12.2078
12.2309
12.2517
12.2702
12.2866
12.3009
12.3134
12.3242
12.3334
12.3412
12.3478
12.3532
12.3577
12.3614
12.3644
12.3668
12.3686
12.3701
12.3712
12.372
12.3727
12.3731
12.3734
12.3736
12.3738
12.3738
12.3739
12.3739
12.3739
12.3739
12.3738
12.3738
12.3738
12.3738
12.3737
12.3737
12.3737
12.3736
12.3736
12.3733
1.83603
1.65264
1.49462
1.3576
1.23811
1.13332
1.04098
0.959246
0.886595
0.821781
0.763768
0.711698
0.664856
0.622647
0.584582
0.550262
0.519374
0.491682
0.467034
0.445368
0.426734
0.411326
0.399534
0.392012
0.389775
0.39433
0.407847
0.433345
0.474882
0.537661
0.627961
0.752739
0.918896
1.13215
1.39587
1.70991
2.0703
2.46932
2.8965
3.33992
3.78776
4.22949
4.65669
5.06332
5.44566
5.80186
6.13149
6.43504
6.71358
6.96852
7.20146
7.41401
7.6079
7.78482
7.94637
8.09421
8.22977
8.35433
8.46888
8.57461
8.67268
8.76402
8.84944
8.92962
9.00517
9.07657
9.14425
9.20847
9.26949
9.32743
9.38239
9.43435
9.4833
9.52917
9.57188
9.61133
9.64745
9.68018
9.70948
9.73537
9.75788
9.7771
9.79317
9.80623
9.81647
9.82411
9.82936
9.83247
9.83367
9.83321
9.83134
9.82827
9.8242
9.81934
9.81387
9.80794
9.80169
9.79526
9.78875
9.78224
9.77581
9.76953
9.76345
9.75759
9.75199
9.74667
9.74165
9.73691
9.73248
9.72834
9.72448
9.7209
9.71758
9.71452
9.71169
9.70908
9.70668
9.70448
9.70245
9.70058
9.69888
9.69717
1.83602
1.65261
1.49457
1.35754
1.23801
1.13319
1.0408
0.958995
0.886239
0.821274
0.763049
0.710685
0.663442
0.620696
0.58192
0.546669
0.514565
0.485291
0.458582
0.434218
0.412027
0.391883
0.373712
0.357499
0.343305
0.331284
0.321708
0.315002
0.311795
0.312973
0.319765
0.333817
0.357274
0.39282
0.443664
0.513405
0.605798
0.724359
0.871916
1.05009
1.25897
1.49685
1.76034
2.04455
2.34365
2.6514
2.96173
3.26917
3.56919
3.85839
4.13443
4.39592
4.64229
4.87353
5.09001
5.29235
5.4813
5.65758
5.82212
5.97562
6.11873
6.25188
6.3759
6.49154
6.5995
6.70034
6.79458
6.88261
6.96475
7.04123
7.11224
7.17788
7.23823
7.29333
7.34324
7.388
7.42768
7.46239
7.49226
7.51746
7.53821
7.55475
7.56736
7.57634
7.58201
7.58469
7.58473
7.58245
7.57817
7.57221
7.56485
7.55636
7.547
7.53698
7.52652
7.51577
7.50491
7.49406
7.48334
7.47282
7.4626
7.45273
7.44326
7.43421
7.42561
7.41748
7.40982
7.40263
7.3959
7.38962
7.38378
7.37835
7.37333
7.36869
7.36441
7.36047
7.35685
7.35352
7.35046
7.34766
7.34511
7.34266
1.83602
1.65258
1.49453
1.35749
1.23795
1.13313
1.04073
0.958918
0.886154
0.821175
0.762929
0.710532
0.663238
0.620418
0.581536
0.546135
0.513824
0.484267
0.457173
0.432293
0.40941
0.388338
0.368917
0.351016
0.334526
0.319367
0.305486
0.292864
0.281519
0.271515
0.26297
0.256072
0.251099
0.248434
0.248602
0.252293
0.260407
0.274072
0.294666
0.323799
0.363277
0.415018
0.48093
0.562729
0.661788
0.778941
0.914367
1.06748
1.23695
1.42075
1.61631
1.82066
2.03071
2.24338
2.45585
2.66561
2.87064
3.06934
3.26063
3.44376
3.61833
3.78434
3.94172
4.09041
4.23035
4.36181
4.48506
4.6003
4.70772
4.80745
4.89964
4.9844
5.06188
5.13224
5.19566
5.25237
5.30262
5.34669
5.38491
5.41763
5.44521
5.46804
5.48651
5.50101
5.51195
5.5197
5.52463
5.52711
5.52745
5.52599
5.523
5.51874
5.51347
5.50739
5.50069
5.49355
5.48611
5.4785
5.47084
5.4632
5.45566
5.4483
5.44116
5.43428
5.42768
5.4214
5.41544
5.40981
5.40452
5.39956
5.39493
5.39062
5.38662
5.38292
5.3795
5.37635
5.37346
5.3708
5.36837
5.36615
5.36413
5.36221
1.83601
1.65256
1.4945
1.35744
1.2379
1.13307
1.04068
0.958863
0.886098
0.821119
0.762874
0.710476
0.663182
0.62036
0.581472
0.54606
0.51373
0.484144
0.457006
0.432062
0.409088
0.387888
0.368289
0.350141
0.333311
0.317682
0.303154
0.289641
0.277067
0.265374
0.254515
0.244457
0.235185
0.226702
0.21903
0.212221
0.206355
0.201548
0.197964
0.195823
0.19541
0.197094
0.201337
0.208706
0.219877
0.235633
0.256849
0.284469
0.319463
0.36278
0.415288
0.477697
0.550512
0.633965
0.727989
0.832185
0.945834
1.06792
1.19717
1.33211
1.47118
1.61273
1.75517
1.89699
2.03693
2.17366
2.30592
2.43284
2.55379
2.66835
2.77627
2.87745
2.97189
3.05971
3.14108
3.21621
3.28536
3.3488
3.40682
3.45972
3.50778
3.5513
3.59057
3.62588
3.65749
3.68568
3.71073
3.73287
3.75235
3.76942
3.7843
3.79718
3.80829
3.8178
3.82589
3.83273
3.83845
3.84321
3.84713
3.85031
3.85287
3.85489
3.85647
3.85766
3.85854
3.85915
3.85956
3.85981
3.85992
3.85993
3.85987
3.85975
3.85961
3.85944
3.85927
3.8591
3.85894
3.85879
3.85867
3.85856
3.85849
3.85834
1.83601
1.65254
1.49448
1.35742
1.23787
1.13304
1.04064
0.958827
0.886061
0.821083
0.762838
0.710441
0.663148
0.620327
0.58144
0.546029
0.5137
0.484114
0.456975
0.432029
0.409049
0.387839
0.368225
0.350054
0.33319
0.317514
0.302918
0.289308
0.276599
0.264717
0.253595
0.243173
0.233401
0.224233
0.215631
0.207562
0.200001
0.19293
0.186338
0.180223
0.174594
0.16947
0.164884
0.160885
0.157543
0.154948
0.15322
0.15251
0.153009
0.154949
0.158614
0.164337
0.172504
0.183551
0.197956
0.216227
0.238891
0.266467
0.299449
0.33827
0.383282
0.434729
0.492721
0.55722
0.628041
0.704835
0.787199
0.874491
0.965918
1.06061
1.15764
1.2561
1.35506
1.45366
1.55111
1.64669
1.73976
1.82981
1.91639
1.99916
2.07787
2.15235
2.2225
2.28829
2.34974
2.40691
2.45991
2.5089
2.55402
2.59546
2.63342
2.6681
2.69971
2.72847
2.75457
2.77822
2.79961
2.81894
2.83637
2.85208
2.86623
2.87897
2.89042
2.90072
2.90999
2.91832
2.92583
2.93258
2.93867
2.94417
2.94914
2.95364
2.95771
2.96142
2.96479
2.96787
2.97068
2.97326
2.97563
2.97781
2.97983
2.98159
1.83601
1.65254
1.49448
1.35742
1.23787
1.13304
1.04064
0.958827
0.886061
0.821083
0.762838
0.710441
0.663148
0.620327
0.58144
0.546029
0.5137
0.484114
0.456975