/*--------------------------------*- C++ -*----------------------------------*\
  =========                 |
  \\      /  F ield         | OpenFOAM: The Open Source CFD Toolbox
   \\    /   O peration     | Website:  https://openfoam.org
    \\  /    A nd           | Version:  8
     \\/     M anipulation  |
\*---------------------------------------------------------------------------*/
FoamFile
{
    version     2.0;
    format      ascii;
    class       volScalarField;
    location    "350";
    object      k;
}
// * * * * * * * * * * * * * * * * * * * * * * * * * * * * * * * * * * * * * //

dimensions      [0 2 -2 0 0 0 0];

internalField   nonuniform List<scalar> 
7320
(
6.0765
5.5594
5.24729
5.04162
4.89417
4.78176
4.69208
4.61822
4.55593
4.50245
4.45607
4.41636
4.38378
4.35924
4.34286
4.33334
4.32807
4.32439
4.32042
4.31551
4.30966
4.30325
4.29668
4.29037
4.28454
4.27934
4.27482
4.27109
4.26812
4.26589
4.26434
4.26348
4.26326
4.26365
4.26454
4.26601
4.26796
4.27038
4.2732
4.27645
4.28007
4.28406
4.28833
4.29296
4.29789
4.30311
4.30856
4.31429
4.32025
4.32644
4.33279
4.33938
4.34615
4.35309
4.36015
4.36738
4.37473
4.38219
4.38969
4.39728
4.40493
4.41259
4.42023
4.42786
4.43544
4.44293
4.45027
4.45752
4.4646
4.47151
4.47819
4.48467
4.49091
4.49691
4.50261
4.50808
4.51328
4.51821
4.52285
4.52724
4.53138
4.53526
4.53885
4.54225
4.54541
4.54837
4.55109
4.55365
4.55602
4.55821
4.56022
4.5621
4.56385
4.56546
4.56694
4.56832
4.56959
4.57077
4.57184
4.57284
4.57377
4.57463
4.57541
4.57615
4.57683
4.57746
4.57802
4.57856
4.57905
4.57951
4.57993
4.58033
4.58069
4.58103
4.58134
4.58163
4.58189
4.58214
4.58237
4.58259
4.58276
4.58299
4.84212
5.67921
5.53998
5.36043
5.21713
5.10397
5.01222
4.93595
4.87122
4.81536
4.76665
4.7245
4.68928
4.66189
4.6427
4.63075
4.62369
4.61884
4.61417
4.6088
4.60258
4.5958
4.58883
4.58207
4.57577
4.57008
4.56507
4.56088
4.55746
4.55482
4.55289
4.55169
4.55116
4.55125
4.55194
4.5532
4.55498
4.55726
4.56
4.56318
4.56676
4.57072
4.57504
4.5797
4.58469
4.58997
4.59554
4.60138
4.60747
4.61381
4.62036
4.62713
4.6341
4.64125
4.64858
4.65606
4.66367
4.67141
4.67926
4.68719
4.69519
4.70323
4.71129
4.71935
4.72737
4.73533
4.74321
4.75097
4.75858
4.76603
4.77329
4.78033
4.78713
4.79369
4.79998
4.806
4.81173
4.81718
4.82234
4.82722
4.83182
4.83614
4.84019
4.84398
4.84752
4.85082
4.85389
4.85675
4.8594
4.86186
4.86414
4.86625
4.8682
4.87
4.87167
4.87321
4.87464
4.87595
4.87717
4.87829
4.87932
4.88028
4.88116
4.88198
4.88273
4.88343
4.88407
4.88467
4.88522
4.88573
4.8862
4.88663
4.88704
4.88741
4.88776
4.88808
4.88838
4.88865
4.88891
4.88914
4.88936
4.88959
3.59579
5.05139
5.15995
5.0678
4.9641
4.87324
4.79597
4.72998
4.67297
4.62299
4.57851
4.53873
4.50393
4.47547
4.45485
4.44244
4.43672
4.43498
4.43453
4.43366
4.43158
4.42828
4.42404
4.41925
4.41427
4.40936
4.40472
4.40052
4.39683
4.39371
4.39115
4.38919
4.3878
4.38698
4.38672
4.38699
4.38776
4.38902
4.39074
4.3929
4.39546
4.39841
4.40175
4.40543
4.40944
4.41378
4.41843
4.42336
4.42857
4.43405
4.43979
4.44577
4.45197
4.4584
4.46505
4.4719
4.47894
4.48615
4.49354
4.50106
4.50872
4.51649
4.52436
4.5323
4.54027
4.54826
4.55624
4.56416
4.572
4.57972
4.58732
4.59474
4.60196
4.60896
4.61572
4.62222
4.62845
4.63439
4.64006
4.64543
4.6505
4.65529
4.65979
4.66402
4.66797
4.67166
4.67511
4.67832
4.68129
4.68406
4.68663
4.68901
4.69121
4.69324
4.69513
4.69687
4.69848
4.69996
4.70133
4.7026
4.70376
4.70484
4.70583
4.70675
4.7076
4.70838
4.70911
4.70977
4.71039
4.71096
4.71148
4.71197
4.71242
4.71284
4.71322
4.71358
4.71391
4.71421
4.71449
4.71476
4.715
4.71523
2.74724
4.48339
4.83294
4.83938
4.78112
4.71518
4.65356
4.59832
4.54912
4.50489
4.46431
4.42645
4.39165
4.36198
4.34032
4.32848
4.32573
4.32909
4.33493
4.34046
4.34418
4.34567
4.34514
4.34307
4.33991
4.33612
4.33205
4.32796
4.32403
4.3204
4.31716
4.31436
4.31202
4.31018
4.30888
4.30807
4.30774
4.3079
4.30855
4.30963
4.31115
4.31308
4.31543
4.31816
4.32125
4.3247
4.3285
4.33264
4.33709
4.34185
4.34694
4.35231
4.35796
4.36389
4.37011
4.37659
4.38333
4.39032
4.39756
4.40502
4.41268
4.42055
4.4286
4.4368
4.44511
4.45351
4.46198
4.47046
4.47891
4.4873
4.49561
4.50378
4.51178
4.51956
4.52714
4.53445
4.54147
4.54821
4.55466
4.56079
4.5666
4.57208
4.57727
4.58213
4.58669
4.59096
4.59496
4.59868
4.60214
4.60535
4.60834
4.61111
4.61367
4.61603
4.61824
4.62027
4.62214
4.62386
4.62546
4.62694
4.62829
4.62954
4.6307
4.63177
4.63276
4.63366
4.63451
4.63528
4.63599
4.63665
4.63726
4.63783
4.63835
4.63883
4.63927
4.63968
4.64005
4.6404
4.64072
4.64102
4.6413
4.64155
2.10346
3.90603
4.48943
4.61129
4.60901
4.57389
4.53135
4.489
4.44902
4.41145
4.37535
4.33979
4.30537
4.2751
4.25347
4.24382
4.2461
4.25687
4.27133
4.28545
4.29683
4.30467
4.30909
4.31068
4.31009
4.30796
4.30484
4.30114
4.29716
4.29315
4.28929
4.28568
4.28241
4.27954
4.27716
4.27524
4.27379
4.27283
4.27237
4.27238
4.27285
4.27377
4.27515
4.27696
4.27917
4.28179
4.28484
4.28827
4.29207
4.29625
4.30082
4.30574
4.31101
4.31664
4.32265
4.32899
4.33567
4.34268
4.35005
4.35771
4.36567
4.37392
4.38245
4.39121
4.40016
4.40928
4.41854
4.42787
4.43723
4.44658
4.45588
4.46508
4.47411
4.48294
4.49156
4.4999
4.50794
4.51568
4.52311
4.53018
4.5369
4.54325
4.54927
4.55492
4.56022
4.56519
4.56985
4.5742
4.57824
4.58199
4.58549
4.58873
4.59172
4.59449
4.59707
4.59945
4.60164
4.60366
4.60554
4.60727
4.60885
4.61032
4.61168
4.61293
4.61408
4.61514
4.61613
4.61703
4.61786
4.61863
4.61934
4.62
4.6206
4.62116
4.62167
4.62215
4.62258
4.62298
4.62335
4.62369
4.62401
4.62428
1.61625
3.30896
4.10164
4.35526
4.42205
4.42578
4.40728
4.38105
4.35249
4.32317
4.29269
4.26037
4.22727
4.19757
4.17746
4.17184
4.18128
4.20175
4.22713
4.25196
4.2729
4.28869
4.29939
4.3057
4.30853
4.30875
4.3071
4.3042
4.3005
4.29637
4.29209
4.28783
4.28374
4.27995
4.27657
4.2736
4.27109
4.26906
4.26755
4.26653
4.26601
4.26598
4.26646
4.26742
4.26884
4.27074
4.27313
4.27597
4.27926
4.283
4.2872
4.29184
4.2969
4.30241
4.30839
4.31479
4.32163
4.32889
4.33658
4.34468
4.35316
4.36202
4.37125
4.3808
4.39062
4.40067
4.41094
4.42132
4.43178
4.44228
4.45276
4.46314
4.47338
4.48341
4.49322
4.50274
4.51194
4.5208
4.52932
4.53746
4.54519
4.55251
4.55944
4.56596
4.57209
4.57784
4.58323
4.58827
4.59296
4.59731
4.60137
4.60513
4.6086
4.61182
4.61482
4.61758
4.62013
4.62248
4.62466
4.62666
4.62851
4.63021
4.63179
4.63325
4.63459
4.63582
4.63696
4.63801
4.63897
4.63986
4.64068
4.64144
4.64214
4.64279
4.64338
4.64392
4.64442
4.64488
4.6453
4.64568
4.64606
4.64634
1.26812
2.70642
3.6573
4.05363
4.20392
4.25642
4.26843
4.26265
4.24854
4.22965
4.20651
4.17889
4.14856
4.121
4.10414
4.10444
4.12304
4.15529
4.19365
4.23118
4.26349
4.28882
4.30716
4.31935
4.32655
4.32989
4.33038
4.32881
4.32584
4.32196
4.31757
4.31293
4.30825
4.30374
4.29952
4.29566
4.29222
4.28925
4.28681
4.28489
4.28349
4.28262
4.28232
4.28254
4.28329
4.28459
4.28645
4.28883
4.29175
4.29518
4.29916
4.30366
4.30868
4.31423
4.32033
4.32697
4.33412
4.34179
4.34998
4.35866
4.36782
4.37745
4.38752
4.398
4.40882
4.41994
4.43131
4.44287
4.45453
4.46627
4.47801
4.48968
4.50119
4.5125
4.52357
4.53432
4.54474
4.55479
4.56445
4.57369
4.58249
4.59082
4.59872
4.60615
4.61314
4.61971
4.62587
4.63163
4.63699
4.64198
4.64662
4.65092
4.6549
4.65859
4.66202
4.6652
4.66812
4.67082
4.67332
4.67562
4.67773
4.67969
4.6815
4.68317
4.68471
4.68612
4.68743
4.68863
4.68973
4.69075
4.69169
4.69256
4.69336
4.69409
4.69477
4.69539
4.69595
4.69647
4.69695
4.69738
4.6978
4.69811
1.04444
2.13051
3.15614
3.69388
3.94132
4.05408
4.10463
4.12485
4.12913
4.1236
4.11012
4.08923
4.0636
4.04009
4.02835
4.03633
4.06577
4.1115
4.16459
4.2166
4.26199
4.29845
4.32583
4.34513
4.35775
4.36512
4.3685
4.36893
4.36724
4.3641
4.36001
4.35535
4.35041
4.34545
4.34065
4.33613
4.33196
4.32825
4.32504
4.32238
4.32026
4.31871
4.31776
4.31739
4.31761
4.31844
4.31989
4.32196
4.32462
4.32789
4.33177
4.33626
4.34135
4.34707
4.35342
4.3604
4.36797
4.37616
4.38494
4.3943
4.40421
4.41468
4.42567
4.43713
4.44899
4.46121
4.47373
4.48648
4.49937
4.51236
4.52538
4.53833
4.55114
4.56372
4.57605
4.58805
4.59968
4.61092
4.62173
4.63209
4.64195
4.65131
4.66017
4.66852
4.67638
4.68377
4.69071
4.69721
4.70325
4.70888
4.71411
4.71897
4.72347
4.72764
4.73152
4.73511
4.73842
4.74147
4.74429
4.74689
4.74929
4.7515
4.75355
4.75545
4.75719
4.75878
4.76026
4.76161
4.76286
4.76401
4.76508
4.76606
4.76696
4.76779
4.76855
4.76924
4.76988
4.77046
4.77099
4.77147
4.77195
4.77229
0.919766
1.62591
2.61283
3.26909
3.62252
3.80749
3.90603
3.95914
3.98684
3.99847
3.99767
3.98616
3.96767
3.95043
3.94571
3.96291
4.0045
4.06497
4.13417
4.20217
4.26227
4.31145
4.34937
4.37712
4.39635
4.40878
4.41596
4.41916
4.41943
4.4176
4.41434
4.41012
4.40532
4.40027
4.39521
4.3903
4.38568
4.38145
4.37771
4.3745
4.37184
4.36978
4.36834
4.36753
4.36736
4.36786
4.36904
4.3709
4.37343
4.37664
4.38053
4.3851
4.39036
4.39632
4.40299
4.41036
4.41842
4.42716
4.43657
4.44664
4.45733
4.46863
4.48053
4.49295
4.50585
4.51914
4.53277
4.54667
4.56075
4.57495
4.58919
4.60338
4.61743
4.63125
4.6448
4.658
4.67081
4.6832
4.69514
4.70658
4.71749
4.72785
4.73766
4.74692
4.75564
4.76385
4.77156
4.77878
4.78551
4.79178
4.79761
4.80301
4.80803
4.81269
4.81701
4.82102
4.82472
4.82813
4.83128
4.83418
4.83686
4.83934
4.84163
4.84374
4.84569
4.84748
4.84912
4.85064
4.85203
4.85331
4.8545
4.8556
4.8566
4.85753
4.85837
4.85915
4.85985
4.8605
4.86109
4.86162
4.86214
4.86252
0.860371
1.23775
2.06203
2.7821
3.23855
3.50556
3.66226
3.7564
3.81373
3.84732
3.8631
3.86431
3.85593
3.84749
3.85173
3.87946
3.93406
4.01002
4.09631
4.18162
4.25796
4.3215
4.37156
4.40928
4.43649
4.4552
4.46724
4.47415
4.47719
4.47741
4.47559
4.47237
4.46821
4.46351
4.45857
4.45363
4.44886
4.4444
4.44036
4.43683
4.43385
4.43147
4.42972
4.42863
4.42822
4.42851
4.42954
4.4313
4.4338
4.43703
4.441
4.44572
4.4512
4.45744
4.46446
4.47226
4.48081
4.49011
4.50013
4.51087
4.5223
4.5344
4.54715
4.56048
4.57433
4.58862
4.60328
4.61824
4.63342
4.64874
4.66412
4.67947
4.69467
4.70966
4.72435
4.73869
4.75262
4.76611
4.77911
4.7916
4.80351
4.81484
4.82558
4.83573
4.84529
4.85429
4.86276
4.87069
4.8781
4.885
4.89141
4.89737
4.9029
4.90803
4.9128
4.91723
4.92131
4.92509
4.92856
4.93177
4.93473
4.93747
4.94
4.94234
4.9445
4.94648
4.9483
4.94997
4.95151
4.95293
4.95424
4.95545
4.95657
4.95759
4.95852
4.95937
4.96015
4.96086
4.96151
4.9621
4.96266
4.96308
0.836787
0.988163
1.55971
2.2532
2.7873
3.13879
3.36257
3.50654
3.6008
3.66222
3.69943
3.7175
3.7228
3.72606
3.74129
3.78065
3.8487
3.94045
4.0444
4.14803
4.24207
4.32169
4.38571
4.43513
4.47194
4.49839
4.51658
4.52834
4.53517
4.53831
4.53872
4.53717
4.53424
4.53042
4.52608
4.52153
4.51697
4.51261
4.50859
4.50501
4.50194
4.49945
4.49758
4.49637
4.49586
4.49609
4.49708
4.49885
4.50139
4.50472
4.50883
4.51375
4.51947
4.52602
4.53339
4.5416
4.55062
4.56044
4.57103
4.58239
4.59449
4.60731
4.62081
4.63495
4.64964
4.66482
4.6804
4.69632
4.71247
4.7288
4.74521
4.7616
4.77787
4.79392
4.80967
4.82506
4.84003
4.85455
4.86856
4.88202
4.8949
4.90715
4.91877
4.92977
4.94014
4.94992
4.95912
4.96775
4.97581
4.98333
4.99033
4.99683
5.00287
5.00848
5.01369
5.01853
5.023
5.02713
5.03094
5.03445
5.0377
5.0407
5.04347
5.04604
5.0484
5.05057
5.05256
5.0544
5.05608
5.05764
5.05908
5.06041
5.06162
5.06274
5.06376
5.0647
5.06555
5.06633
5.06704
5.06768
5.06829
5.06874
0.830413
0.857515
1.16929
1.72858
2.28159
2.70344
2.99752
3.19897
3.33791
3.43395
3.49837
3.5383
3.56154
3.57986
3.60831
3.66032
3.74197
3.84933
3.97103
4.09373
4.20682
4.30432
4.38429
4.44745
4.4958
4.53177
4.55772
4.57575
4.58761
4.59476
4.59836
4.59933
4.59839
4.59612
4.59296
4.58931
4.58543
4.58157
4.57791
4.5746
4.57172
4.56936
4.56759
4.56647
4.56604
4.56634
4.56742
4.56929
4.57197
4.57546
4.57977
4.58491
4.5909
4.59775
4.60547
4.61406
4.62351
4.63379
4.64489
4.65679
4.66946
4.6829
4.69705
4.71188
4.7273
4.74324
4.75961
4.77634
4.79335
4.81056
4.82787
4.84518
4.86238
4.87939
4.89609
4.91244
4.92836
4.94383
4.95877
4.97315
4.98692
5.00005
5.01251
5.02432
5.03547
5.04599
5.05589
5.0652
5.0739
5.08202
5.08958
5.09662
5.10315
5.10923
5.11488
5.12013
5.12498
5.12947
5.1336
5.13742
5.14094
5.14421
5.14722
5.15001
5.15258
5.15494
5.15711
5.15911
5.16095
5.16264
5.1642
5.16565
5.16697
5.16819
5.1693
5.17032
5.17124
5.17209
5.17286
5.17356
5.17422
5.17471
0.831632
0.801464
0.924702
1.27908
1.76066
2.21006
2.56361
2.82478
3.01466
3.15217
3.25024
3.31778
3.36391
3.40123
3.44548
3.5113
3.6065
3.72891
3.868
4.01008
4.14339
4.26058
4.35872
4.43798
4.50018
4.54785
4.58354
4.60962
4.6281
4.64067
4.64869
4.65326
4.65526
4.65537
4.65414
4.65204
4.64941
4.64657
4.64372
4.64107
4.63872
4.63682
4.63542
4.63461
4.63445
4.63501
4.63632
4.63843
4.64134
4.64507
4.64963
4.65505
4.66132
4.66848
4.67653
4.68548
4.69531
4.706
4.71753
4.72989
4.74305
4.75699
4.77168
4.78707
4.80308
4.81964
4.83667
4.85409
4.8718
4.88975
4.90782
4.92592
4.94394
4.96177
4.97931
4.99651
5.01329
5.0296
5.04539
5.06061
5.0752
5.08914
5.10239
5.11496
5.12684
5.13807
5.14864
5.15859
5.1679
5.17661
5.18472
5.19227
5.19929
5.20582
5.2119
5.21754
5.22277
5.2276
5.23206
5.23618
5.23998
5.2435
5.24675
5.24976
5.25254
5.25509
5.25744
5.2596
5.26158
5.26341
5.2651
5.26666
5.26809
5.26941
5.27061
5.27171
5.27271
5.27362
5.27446
5.27521
5.27592
5.27645
0.835915
0.782667
0.803412
0.968337
1.29574
1.69683
2.07286
2.38227
2.62329
2.80691
2.94454
3.04567
3.12017
3.18097
3.24414
3.32524
3.43399
3.57056
3.72616
3.88744
4.04176
4.18036
4.29902
4.39704
4.47584
4.53786
4.58577
4.62215
4.64926
4.66903
4.68305
4.69262
4.69878
4.70237
4.70403
4.70434
4.70371
4.70254
4.70109
4.69961
4.69826
4.69719
4.69651
4.69633
4.69672
4.69776
4.6995
4.702
4.70528
4.70937
4.71428
4.72002
4.72663
4.73412
4.7425
4.75179
4.76197
4.77302
4.78492
4.79766
4.81121
4.82557
4.84068
4.85651
4.87299
4.89004
4.90758
4.92554
4.94382
4.96236
4.98105
4.9998
5.01849
5.03702
5.05529
5.07322
5.09073
5.10779
5.12433
5.14029
5.15563
5.1703
5.18426
5.19753
5.21009
5.22196
5.23317
5.24371
5.2536
5.26285
5.27148
5.27952
5.28701
5.29398
5.30046
5.30648
5.31206
5.31723
5.32201
5.32642
5.33049
5.33426
5.33774
5.34097
5.34394
5.34668
5.3492
5.35152
5.35365
5.35561
5.35743
5.3591
5.36064
5.36205
5.36334
5.36452
5.3656
5.36658
5.36748
5.36829
5.36905
5.36963
0.841164
0.780282
0.755003
0.801833
0.962805
1.23791
1.56809
1.88856
2.16598
2.39275
2.57238
2.71167
2.81962
2.90859
2.99425
3.09259
3.21515
3.36487
3.53558
3.71518
3.89071
4.0521
4.19358
4.31325
4.41179
4.49131
4.55447
4.60396
4.64226
4.67153
4.69361
4.71
4.72194
4.73042
4.73625
4.74009
4.74247
4.74384
4.74457
4.74494
4.74519
4.7455
4.74602
4.74687
4.74817
4.75001
4.75246
4.75559
4.75944
4.76405
4.76944
4.77563
4.78265
4.79053
4.79929
4.80893
4.81945
4.83084
4.84307
4.85614
4.87002
4.8847
4.90014
4.91631
4.93314
4.95056
4.96848
4.98684
5.00556
5.02455
5.04372
5.06297
5.08219
5.10128
5.12013
5.13866
5.1568
5.17448
5.19165
5.20825
5.22423
5.23953
5.25413
5.26801
5.28117
5.29363
5.3054
5.31648
5.32689
5.33664
5.34575
5.35424
5.36215
5.36952
5.37638
5.38276
5.38867
5.39416
5.39922
5.4039
5.40823
5.41224
5.41594
5.41937
5.42253
5.42545
5.42813
5.4306
5.43287
5.43496
5.43689
5.43867
5.44031
5.44182
5.44319
5.44446
5.44561
5.44665
5.44761
5.44848
5.44929
5.44991
0.846371
0.784571
0.740866
0.731426
0.780838
0.913806
1.13043
1.3968
1.66941
1.91889
2.1328
2.30934
2.45309
2.57376
2.68527
2.8031
2.94003
3.10189
3.28581
3.482
3.67801
3.86281
4.02903
4.17321
4.29491
4.39558
4.4776
4.54366
4.59636
4.63808
4.67086
4.69644
4.71627
4.73154
4.74321
4.75207
4.75879
4.7639
4.76785
4.77102
4.77369
4.77612
4.77848
4.78095
4.78366
4.78675
4.7903
4.79441
4.79913
4.80452
4.8106
4.81743
4.82502
4.83342
4.84264
4.8527
4.86361
4.87536
4.88793
4.90131
4.91548
4.93044
4.94615
4.96258
4.97966
4.99735
5.01555
5.03419
5.05321
5.07252
5.09203
5.11165
5.13126
5.15077
5.17006
5.18905
5.20767
5.22585
5.24352
5.26064
5.27713
5.29296
5.30807
5.32247
5.33614
5.34909
5.36133
5.37288
5.38373
5.39391
5.40343
5.41231
5.42059
5.42831
5.4355
5.44218
5.44839
5.45415
5.45948
5.4644
5.46896
5.47317
5.47707
5.48068
5.48401
5.48709
5.48992
5.49253
5.49492
5.49713
5.49917
5.50105
5.50278
5.50437
5.50583
5.50717
5.50839
5.5095
5.51051
5.51143
5.51229
5.51296
0.851011
0.791142
0.741125
0.708368
0.703467
0.741598
0.838147
0.996936
1.20246
1.42745
1.64702
1.84605
2.01951
2.17061
2.30893
2.44757
2.59925
2.77207
2.96673
3.17668
3.39106
3.59862
3.79055
3.96161
4.10981
4.23554
4.34056
4.42729
4.49833
4.55615
4.60301
4.64086
4.67135
4.69589
4.71562
4.73151
4.74435
4.7548
4.76342
4.77066
4.77689
4.78244
4.78756
4.79245
4.7973
4.80228
4.8075
4.81309
4.81912
4.82568
4.83281
4.84056
4.84897
4.8581
4.86797
4.87861
4.89003
4.90224
4.91521
4.92895
4.94345
4.95869
4.97465
4.9913
5.0086
5.02648
5.04488
5.06372
5.08294
5.10246
5.12219
5.14205
5.16192
5.1817
5.20129
5.22061
5.23956
5.25809
5.27613
5.29361
5.31048
5.32669
5.3422
5.35698
5.37103
5.38436
5.39696
5.40886
5.42005
5.43056
5.4404
5.44959
5.45816
5.46615
5.4736
5.48053
5.48697
5.49295
5.49848
5.5036
5.50834
5.51273
5.51678
5.52054
5.52401
5.52722
5.53017
5.53289
5.53539
5.5377
5.53983
5.54179
5.5436
5.54526
5.54679
5.54819
5.54947
5.55063
5.5517
5.55267
5.55356
5.55426
0.854799
0.797918
0.746861
0.705361
0.677886
0.670759
0.692794
0.753718
0.859249
1.00561
1.17917
1.36238
1.54112
1.70884
1.86705
2.0233
2.18775
2.36902
2.57073
2.78997
3.01858
3.24609
3.46283
3.66179
3.83909
3.99357
4.12591
4.23791
4.33189
4.41028
4.47541
4.5294
4.57412
4.61117
4.64189
4.66745
4.6888
4.70675
4.72197
4.73503
4.7464
4.75648
4.76561
4.77406
4.78207
4.78985
4.79756
4.80536
4.81336
4.82166
4.83035
4.83949
4.84914
4.85936
4.87019
4.88168
4.89385
4.90671
4.92025
4.93449
4.94942
4.96503
4.9813
4.99822
5.01574
5.03382
5.05239
5.0714
5.09076
5.11042
5.13028
5.15027
5.17029
5.19023
5.20999
5.22949
5.24863
5.26736
5.28561
5.3033
5.32039
5.33683
5.35257
5.36759
5.38187
5.39542
5.40824
5.42035
5.43175
5.44246
5.45249
5.46187
5.47062
5.47878
5.48639
5.49347
5.50005
5.50617
5.51183
5.51708
5.52193
5.52643
5.53059
5.53444
5.538
5.54129
5.54432
5.54712
5.5497
5.55207
5.55426
5.55628
5.55815
5.55986
5.56144
5.56288
5.5642
5.56541
5.56651
5.56752
5.56845
5.56917
0.857613
0.803838
0.754022
0.710068
0.674015
0.648369
0.636598
0.643484
0.674792
0.735624
0.827683
0.947251
1.08611
1.23528
1.38918
1.54755
1.71476
1.8969
2.09838
2.31925
2.55452
2.7956
3.03285
3.25788
3.4648
3.65042
3.81382
3.95564
4.07752
4.18153
4.2699
4.34478
4.40817
4.46185
4.50736
4.54605
4.57906
4.60736
4.63179
4.65304
4.67169
4.68826
4.70315
4.71674
4.72933
4.7412
4.75257
4.76363
4.77454
4.78546
4.79647
4.80769
4.8192
4.83108
4.84338
4.85616
4.86947
4.88333
4.89776
4.91277
4.92836
4.94454
4.9613
4.97862
4.99648
5.01485
5.03365
5.05285
5.07237
5.09216
5.11213
5.1322
5.15229
5.17231
5.19214
5.2117
5.23091
5.2497
5.268
5.28575
5.30289
5.31939
5.33518
5.35025
5.36458
5.37818
5.39105
5.40319
5.41463
5.42537
5.43544
5.44484
5.45363
5.46182
5.46945
5.47655
5.48316
5.4893
5.49498
5.50025
5.50513
5.50965
5.51383
5.5177
5.52128
5.52459
5.52765
5.53047
5.53306
5.53546
5.53767
5.53971
5.5416
5.54333
5.54492
5.54639
5.54773
5.54896
5.55008
5.5511
5.55204
5.55278
0.859482
0.808378
0.760625
0.716972
0.678333
0.645748
0.620512
0.604371
0.599709
0.609564
0.637255
0.685505
0.755428
0.846123
0.955479
1.08181
1.22526
1.38792
1.57242
1.7797
2.0073
2.24905
2.49633
2.74009
2.97258
3.18833
3.38419
3.55903
3.71315
3.84782
3.96476
4.06591
4.15323
4.22856
4.29358
4.34979
4.39852
4.44092
4.47798
4.51055
4.53936
4.56504
4.58811
4.60903
4.6282
4.64597
4.66263
4.67845
4.69364
4.7084
4.72287
4.7372
4.75149
4.76586
4.78039
4.79517
4.81025
4.82568
4.84151
4.85774
4.87441
4.89153
4.9091
4.92712
4.94558
4.96444
4.98366
5.0032
5.023
5.043
5.06314
5.08333
5.1035
5.12356
5.14341
5.16297
5.18215
5.20089
5.21912
5.23678
5.25381
5.27019
5.28585
5.30079
5.31497
5.32842
5.34112
5.3531
5.36437
5.37494
5.38484
5.39409
5.40271
5.41075
5.41823
5.42519
5.43166
5.43767
5.44324
5.44839
5.45317
5.45759
5.46168
5.46547
5.46898
5.47222
5.47521
5.47798
5.48053
5.48289
5.48506
5.48707
5.48892
5.49062
5.4922
5.49364
5.49497
5.49618
5.4973
5.49831
5.49925
5.49999
0.860565
0.81141
0.76571
0.723438
0.684826
0.650241
0.620146
0.595141
0.576024
0.563872
0.560086
0.566374
0.584654
0.616901
0.665082
0.73125
0.817795
0.927583
1.06362
1.228
1.42052
1.6377
1.87283
2.11725
2.36196
2.59915
2.82297
3.0297
3.21754
3.38613
3.5361
3.66866
3.78538
3.88791
3.9779
4.0569
4.12635
4.18753
4.2416
4.28955
4.33227
4.37053
4.40498
4.4362
4.46468
4.49085
4.5151
4.53778
4.55916
4.57952
4.59905
4.61795
4.63638
4.65448
4.67238
4.69019
4.70799
4.72587
4.74388
4.76207
4.78048
4.79915
4.81808
4.8373
4.85679
4.87655
4.89655
4.91674
4.93709
4.95755
4.97804
4.99851
5.01888
5.03907
5.05899
5.07855
5.09769
5.11633
5.13441
5.15187
5.16867
5.18478
5.20014
5.21475
5.2286
5.24168
5.254
5.26559
5.27646
5.28663
5.29614
5.30499
5.31324
5.32091
5.32803
5.33464
5.34077
5.34646
5.35173
5.35661
5.36112
5.36529
5.36915
5.37272
5.37603
5.37909
5.38191
5.38453
5.38694
5.38916
5.39122
5.39312
5.39487
5.39649
5.39799
5.39936
5.40063
5.40179
5.40285
5.40382
5.40472
5.40542
0.861099
0.813133
0.76901
0.72826
0.690672
0.656202
0.624914
0.596952
0.572538
0.551985
0.535722
0.524316
0.518516
0.519312
0.528041
0.546533
0.577307
0.623759
0.690203
0.781488
0.902012
1.05414
1.23677
1.44487
1.67048
1.9045
2.13843
2.36533
2.58026
2.78014
2.96347
3.1299
3.2799
3.41441
3.53463
3.64191
3.73758
3.82295
3.89923
3.96753
4.02884
4.08407
4.134
4.17935
4.22071
4.25863
4.29359
4.326
4.35623
4.38463
4.41148
4.43704
4.46152
4.48513
4.50803
4.53037
4.55229
4.5739
4.59528
4.61653
4.63769
4.65883
4.67999
4.70119
4.72245
4.74377
4.76515
4.78655
4.80794
4.82929
4.85053
4.87162
4.89248
4.91303
4.93321
4.95293
4.97212
4.99072
5.00867
5.02592
5.04243
5.05817
5.07312
5.08726
5.10059
5.11311
5.12485
5.13583
5.14608
5.15561
5.16448
5.1727
5.18032
5.18738
5.1939
5.19994
5.20551
5.21066
5.21542
5.21982
5.22387
5.22762
5.23108
5.23428
5.23723
5.23996
5.24249
5.24482
5.24698
5.24897
5.25081
5.25252
5.25409
5.25554
5.25689
5.25813
5.25927
5.26033
5.26129
5.26218
5.263
5.26364
0.861317
0.813942
0.770775
0.731184
0.694717
0.661081
0.630094
0.601661
0.575752
0.552394
0.531661
0.513684
0.498659
0.486872
0.478757
0.474969
0.476513
0.484906
0.502392
0.532145
0.578371
0.646043
0.74007
0.863848
1.01777
1.19843
1.39921
1.61182
1.82812
2.04135
2.24655
2.44045
2.62117
2.78788
2.94056
3.07966
3.20598
3.32048
3.42417
3.51808
3.60321
3.6805
3.75082
3.81496
3.87364
3.9275
3.97712
4.02301
4.06563
4.10538
4.14261
4.17768
4.21087
4.24245
4.27264
4.30166
4.32968
4.35685
4.38333
4.40922
4.43462
4.45962
4.48427
4.50865
4.53278
4.55669
4.58038
4.60386
4.6271
4.65006
4.67272
4.69502
4.71689
4.73828
4.75912
4.77934
4.79887
4.81766
4.83565
4.85281
4.8691
4.88451
4.89903
4.91264
4.92536
4.93722
4.94823
4.95843
4.96786
4.97657
4.98458
4.99195
4.99872
5.00493
5.01063
5.01586
5.02065
5.02505
5.02909
5.0328
5.0362
5.03933
5.04221
5.04486
5.0473
5.04955
5.05164
5.05356
5.05534
5.05698
5.0585
5.0599
5.06121
5.06241
5.06353
5.06456
5.06552
5.0664
5.06722
5.06796
5.06866
5.06918
0.861389
0.814244
0.77153
0.732597
0.696916
0.664078
0.633768
0.605752
0.579861
0.555978
0.534027
0.513971
0.495805
0.479565
0.465334
0.453268
0.443635
0.436859
0.433612
0.434921
0.442324
0.458044
0.485124
0.527405
0.589189
0.674442
0.785671
0.922832
1.08292
1.26047
1.44873
1.64102
1.83173
2.01673
2.19326
2.35968
2.51521
2.65959
2.793
2.91591
3.02894
3.1328
3.22826
3.31605
3.39687
3.4714
3.54026
3.60405
3.66329
3.71846
3.77001
3.81833
3.86375
3.90659
3.94717
3.98576
4.0226
4.0579
4.09185
4.12462
4.15635
4.18716
4.21716
4.24642
4.27503
4.30302
4.33044
4.35729
4.38357
4.40928
4.43438
4.45883
4.48259
4.5056
4.5278
4.54914
4.56955
4.58901
4.60745
4.62486
4.64122
4.65652
4.67076
4.68397
4.69616
4.70738
4.71766
4.72705
4.73561
4.74339
4.75045
4.75685
4.76263
4.76786
4.77258
4.77684
4.7807
4.78419
4.78735
4.79021
4.79281
4.79517
4.79733
4.7993
4.8011
4.80275
4.80427
4.80567
4.80696
4.80816
4.80926
4.81029
4.81124
4.81213
4.81295
4.81371
4.81442
4.81509
4.8157
4.81627
4.8168
4.81719
0.861405
0.814329
0.771776
0.733121
0.697834
0.665476
0.635685
0.608167
0.582682
0.559037
0.537079
0.51669
0.497777
0.480277
0.464151
0.449389
0.43602
0.42412
0.413834
0.4054
0.399195
0.395794
0.396051
0.401205
0.412985
0.433693
0.466181
0.513639
0.579145
0.664977
0.771927
0.89883
1.04262
1.19885
1.36251
1.52877
1.69365
1.85416
2.00832
2.15495
2.29345
2.4236
2.54547
2.65927
2.76538
2.86423
2.95633
3.04219
3.12232
3.19719
3.26728
3.33299
3.39473
3.45286
3.50771
3.55956
3.60871
3.65545
3.70003
3.74266
3.78353
3.82281
3.86065
3.89718
3.93248
3.96665
3.99975
4.03182
4.06288
4.09294
4.12198
4.14998
4.17691
4.20273
4.22739
4.25085
4.27306
4.294
4.31364
4.33196
4.34898
4.3647
4.37915
4.39237
4.40439
4.41529
4.42511
4.43393
4.44182
4.44886
4.45511
4.46065
4.46555
4.46988
4.47369
4.47705
4.48
4.48261
4.48491
4.48694
4.48874
4.49034
4.49177
4.49305
4.4942
4.49524
4.49618
4.49704
4.49784
4.49857
4.49924
4.49987
4.50046
4.50101
4.50152
4.50201
4.50246
4.50289
4.5033
4.50368
4.50404
4.50428
0.861407
0.814342
0.77183
0.73326
0.698113
0.665954
0.636417
0.60919
0.584014
0.560665
0.538958
0.518736
0.499868
0.482243
0.465774
0.450389
0.436037
0.422688
0.410332
0.398991
0.38872
0.379624
0.371877
0.365743
0.361611
0.360045
0.361835
0.368059
0.380143
0.399864
0.4293
0.470657
0.525978
0.596766
0.683622
0.785977
0.902095
1.02928
1.16425
1.30361
1.44424
1.58354
1.71958
1.85102
1.97706
2.09728
2.21152
2.3198
2.42222
2.519
2.61036
2.6966
2.77801
2.85493
2.92767
2.99654
3.06185
3.12385
3.18275
3.23879
3.29224
3.34329
3.39213
3.43891
3.48378
3.52684
3.56821
3.60794
3.64608
3.68266
3.71769
3.75116
3.78306
3.81337
3.84206
3.86911
3.89449
3.91821
3.94025
3.96064
3.97939
3.99655
4.01217
4.02631
4.03904
4.05044
4.0606
4.06961
4.07756
4.08455
4.09066
4.09598
4.10059
4.10459
4.10803
4.11099
4.11353
4.1157
4.11757
4.11917
4.12054
4.12172
4.12274
4.12363
4.12441
4.12509
4.1257
4.12624
4.12674
4.12719
4.12761
4.128
4.12837
4.12872
4.12906
4.12938
4.12969
4.12998
4.13027
4.13054
4.13081
4.13099
0.861405
0.814337
0.77183
0.733277
0.698164
0.666062
0.636607
0.60949
0.584447
0.561252
0.53971
0.519652
0.500933
0.483427
0.467027
0.45164
0.437186
0.423601
0.410828
0.398827
0.387569
0.377039
0.367241
0.358202
0.349976
0.342658
0.336389
0.331378
0.327917
0.32641
0.327401
0.331609
0.339954
0.353559
0.373733
0.401888
0.439429
0.487577
0.547185
0.618562
0.701375
0.794631
0.896774
1.00583
1.11966
1.23611
1.35326
1.46948
1.58353
1.6945
1.80183
1.90518
2.00441
2.0995
2.19051
2.27752
2.36068
2.4401
2.51597
2.58841
2.65757
2.72354
2.78651
2.84666
2.90415
2.95911
3.01166
3.06187
3.10981
3.15552
3.19904
3.24039
3.27956
3.31656
3.3514
3.38409
3.41464
3.44307
3.46943
3.49375
3.5161
3.53654
3.55516
3.57204
3.58728
3.60099
3.61327
3.62422
3.63395
3.64258
3.65019
3.6569
3.66279
3.66796
3.67248
3.67643
3.67988
3.6829
3.68553
3.68783
3.68985
3.69162
3.69318
3.69457
3.6958
3.6969
3.69789
3.69879
3.69961
3.70036
3.70106
3.70171
3.70232
3.70289
3.70343
3.70395
3.70444
3.7049
3.70535
3.70578
3.7062
3.70652
0.861402
0.814329
0.77182
0.733266
0.698157
0.666065
0.636627
0.609537
0.584532
0.561385
0.539901
0.519912
0.501268
0.483841
0.467519
0.452203
0.437806
0.424253
0.411477
0.39942
0.38803
0.377265
0.367088
0.35747
0.34839
0.33984
0.331818
0.324342
0.317443
0.311178
0.30563
0.300917
0.297202
0.294705
0.293716
0.294611
0.29787
0.304082
0.313954
0.32829
0.347962
0.373862
0.406827
0.447553
0.496516
0.553894
0.619531
0.692918
0.773229
0.85938
0.950124
1.04413
1.14011
1.23684
1.3333
1.42864
1.52218
1.61346
1.70217
1.78812
1.8712
1.95142
2.02874
2.10314
2.17454
2.24302
2.30862
2.37139
2.43134
2.48851
2.54293
2.59462
2.64361
2.68995
2.73368
2.77484
2.81349
2.8497
2.88354
2.91507
2.94439
2.97157
2.99673
3.01994
3.04131
3.06095
3.07895
3.09543
3.11048
3.12421
3.13672
3.1481
3.15844
3.16783
3.17636
3.1841
3.19112
3.19749
3.20327
3.20853
3.2133
3.21765
3.22161
3.22523
3.22853
3.23156
3.23433
3.23688
3.23923
3.2414
3.2434
3.24526
3.24699
3.24859
3.25009
3.25148
3.25279
3.25401
3.25515
3.25623
3.25725
3.25813
0.8614
0.814321
0.77181
0.733253
0.698143
0.66605
0.636614
0.609527
0.584528
0.561391
0.53992
0.519947
0.501324
0.483922
0.467628
0.452342
0.437978
0.424458
0.411712
0.39968
0.388306
0.37754
0.367338
0.357661
0.348472
0.339742
0.331443
0.323555
0.316058
0.308943
0.302202
0.295837
0.289858
0.284285
0.279151
0.274504
0.270411
0.266963
0.264279
0.262513
0.261861
0.262569
0.264941
0.269339
0.27619
0.285973
0.299214
0.316456
0.338239
0.365061
0.397343
0.435387
0.479351
0.529222
0.584806
0.645734
0.711476
0.781374
0.85468
0.93059
1.00829
1.08702
1.16604
1.24472
1.32258
1.39912
1.47391
1.54666
1.61723
1.6855
1.75142
1.81497
1.87614
1.93496
1.99142
2.04556
2.09737
2.14687
2.19409
2.23902
2.2817
2.32215
2.36039
2.39647
2.43044
2.46234
2.49224
2.52021
2.54632
2.57065
2.59327
2.61429
2.63378
2.65182
2.66852
2.68394
2.69818
2.71131
2.72342
2.73457
2.74485
2.75431
2.76302
2.77104
2.77842
2.78522
2.79149
2.79727
2.80259
2.8075
2.81204
2.81623
2.82011
2.82369
2.82701
2.83008
2.83294
2.83558
2.83804
2.84033
2.84246
2.84436
0.861399
0.814317
0.771804
0.733245
0.698133
0.666039
0.636602
0.609515
0.584516
0.561379
0.53991
0.519939
0.501319
0.483922
0.467634
0.452355
0.437999
0.424488
0.411753
0.399731
0.388368
0.377612
0.367419
0.357746
0.348557
0.339818
0.331497
0.323568
0.316005
0.308786
0.30189
0.295301
0.289004
0.282986
0.277239
0.271755
0.266534
0.261576
0.256889
0.252487
0.248388
0.244623
0.241231
0.238264
0.235791
0.233895
0.232683
0.232289
0.232872
0.234628
0.237787
0.242615
0.249415
0.258522
0.270296
0.285111
0.303344
0.325357
0.351482
0.381999
0.417117
0.456961
0.50156
0.550838
0.604615
0.662607
0.724483
0.789778
0.857947
0.928404
1.00055
1.07377
1.14749
1.22116
1.29426
1.36634
1.43698
1.50585
1.57264
1.63713
1.69911
1.75847
1.81508
1.86891
1.91992
1.96812
2.01354
2.05623
2.09627
2.13373
2.16871
2.20131
2.23165
2.25983
2.28598
2.31021
2.33264
2.35337
2.37253
2.39021
2.40652
2.42157
2.43543
2.4482
2.45997
2.47081
2.48079
2.48999
2.49846
2.50627
2.51347
2.5201
2.52622
2.53187
2.53709
2.5419
2.54636
2.55047
2.55428
2.55781