/*--------------------------------*- C++ -*----------------------------------*\
  =========                 |
  \\      /  F ield         | OpenFOAM: The Open Source CFD Toolbox
   \\    /   O peration     | Website:  https://openfoam.org
    \\  /    A nd           | Version:  8
     \\/     M anipulation  |
\*---------------------------------------------------------------------------*/
FoamFile
{
    version     2.0;
    format      ascii;
    class       volScalarField;
    location    "350";
    object      nut;
}
// * * * * * * * * * * * * * * * * * * * * * * * * * * * * * * * * * * * * * //

dimensions      [0 2 -1 0 0 0 0];

internalField   nonuniform List<scalar> 
7320
(
0.000286299
0.000273846
0.000266048
0.000260782
0.00025694
0.000253972
0.00025158
0.000249592
0.000247903
0.000246443
0.000245167
0.000244056
0.000243119
0.000242381
0.000241858
0.000241534
0.000241351
0.000241238
0.000241136
0.000241017
0.000240872
0.000240708
0.000240534
0.000240363
0.000240202
0.000240055
0.000239924
0.000239813
0.000239723
0.000239652
0.0002396
0.000239566
0.000239551
0.000239552
0.000239567
0.000239598
0.000239643
0.000239701
0.00023977
0.000239852
0.000239944
0.000240046
0.000240156
0.000240276
0.000240405
0.000240542
0.000240685
0.000240836
0.000240993
0.000241157
0.000241326
0.000241501
0.000241681
0.000241866
0.000242054
0.000242247
0.000242444
0.000242643
0.000242844
0.000243048
0.000243254
0.000243461
0.000243667
0.000243874
0.000244079
0.000244283
0.000244484
0.000244682
0.000244877
0.000245068
0.000245252
0.000245432
0.000245606
0.000245773
0.000245933
0.000246087
0.000246233
0.000246373
0.000246504
0.000246629
0.000246747
0.000246857
0.00024696
0.000247057
0.000247148
0.000247233
0.000247312
0.000247385
0.000247454
0.000247517
0.000247575
0.00024763
0.00024768
0.000247727
0.00024777
0.00024781
0.000247847
0.000247882
0.000247912
0.000247942
0.000247969
0.000247994
0.000248016
0.000248038
0.000248057
0.000248076
0.000248092
0.000248108
0.000248122
0.000248135
0.000248147
0.000248159
0.000248169
0.000248179
0.000248188
0.000248196
0.000248204
0.000248211
0.000248218
0.000248224
0.000248229
0.000248236
0.000562813
0.000740637
0.00076757
0.00076765
0.000763095
0.000757974
0.000753147
0.000748777
0.000744847
0.000741283
0.000737983
0.000734885
0.000732025
0.000729589
0.000727828
0.0007269
0.000726737
0.000727087
0.000727642
0.000728174
0.000728552
0.00072874
0.000728749
0.000728622
0.000728396
0.000728108
0.000727785
0.000727459
0.000727142
0.000726847
0.000726578
0.000726346
0.000726152
0.000725997
0.000725887
0.000725818
0.00072579
0.000725803
0.000725858
0.000725951
0.000726079
0.000726244
0.000726445
0.000726678
0.000726941
0.000727236
0.000727561
0.000727915
0.000728295
0.000728701
0.000729137
0.000729595
0.000730078
0.000730584
0.000731116
0.000731669
0.000732244
0.000732839
0.000733458
0.000734094
0.000734747
0.000735417
0.000736103
0.000736801
0.000737509
0.000738223
0.000738945
0.000739666
0.000740384
0.000741096
0.000741803
0.000742496
0.000743173
0.000743833
0.000744475
0.000745093
0.000745687
0.000746256
0.0007468
0.000747317
0.000747806
0.000748268
0.000748705
0.000749114
0.000749496
0.000749854
0.000750189
0.000750501
0.00075079
0.000751059
0.00075131
0.000751541
0.000751754
0.000751951
0.000752135
0.000752304
0.000752459
0.000752602
0.000752737
0.000752859
0.000752971
0.000753075
0.000753172
0.00075326
0.000753342
0.000753417
0.000753487
0.000753551
0.00075361
0.000753664
0.000753715
0.000753762
0.000753805
0.000753845
0.000753882
0.000753915
0.000753947
0.000753975
0.000754002
0.000754026
0.000754051
0.00075407
0.000761078
0.00115457
0.00127125
0.00130573
0.00131552
0.00131689
0.00131509
0.00131204
0.0013085
0.00130467
0.00130048
0.00129577
0.00129075
0.00128618
0.00128322
0.00128277
0.00128495
0.00128907
0.00129406
0.00129899
0.00130323
0.00130655
0.00130892
0.00131046
0.00131132
0.00131165
0.00131158
0.00131124
0.0013107
0.00131005
0.00130932
0.00130858
0.00130783
0.00130712
0.00130646
0.00130586
0.00130533
0.00130487
0.00130449
0.0013042
0.00130399
0.00130386
0.00130381
0.00130385
0.00130396
0.00130416
0.00130443
0.00130479
0.00130523
0.00130574
0.00130633
0.001307
0.00130775
0.00130857
0.00130948
0.00131046
0.00131152
0.00131266
0.00131388
0.00131518
0.00131654
0.00131798
0.00131949
0.00132105
0.00132268
0.00132434
0.00132605
0.00132778
0.00132954
0.0013313
0.00133306
0.00133481
0.00133654
0.00133823
0.00133989
0.0013415
0.00134305
0.00134455
0.00134599
0.00134736
0.00134867
0.00134991
0.00135107
0.00135217
0.00135321
0.00135417
0.00135508
0.00135593
0.00135671
0.00135744
0.00135812
0.00135875
0.00135933
0.00135987
0.00136037
0.00136083
0.00136126
0.00136165
0.00136201
0.00136235
0.00136265
0.00136294
0.0013632
0.00136344
0.00136366
0.00136387
0.00136406
0.00136423
0.00136439
0.00136454
0.00136467
0.0013648
0.00136492
0.00136502
0.00136512
0.00136521
0.00136529
0.00136537
0.00136543
0.0013655
0.00136556
0.0013656
0.000942188
0.00154866
0.00180332
0.00190637
0.00195121
0.00197188
0.00198148
0.00198554
0.00198652
0.00198538
0.0019822
0.00197688
0.00197007
0.00196379
0.00196097
0.00196397
0.00197323
0.0019872
0.00200333
0.0020192
0.00203322
0.00204468
0.00205346
0.00205982
0.00206413
0.00206678
0.00206814
0.00206853
0.00206819
0.00206734
0.00206613
0.00206469
0.00206312
0.00206149
0.00205987
0.00205831
0.00205684
0.00205547
0.00205424
0.00205316
0.00205222
0.00205145
0.00205084
0.0020504
0.00205013
0.00205003
0.00205011
0.00205038
0.00205082
0.00205144
0.00205224
0.00205322
0.00205439
0.00205575
0.0020573
0.00205904
0.00206097
0.0020631
0.00206541
0.00206791
0.00207058
0.00207344
0.00207647
0.00207965
0.00208296
0.0020864
0.00208993
0.00209354
0.00209721
0.00210091
0.00210463
0.00210833
0.00211199
0.00211559
0.00211911
0.00212254
0.00212586
0.00212907
0.00213215
0.0021351
0.00213791
0.00214057
0.00214307
0.00214544
0.00214766
0.00214975
0.0021517
0.00215353
0.00215523
0.00215681
0.00215827
0.00215963
0.00216089
0.00216205
0.00216313
0.00216413
0.00216505
0.0021659
0.00216668
0.00216741
0.00216807
0.00216868
0.00216925
0.00216978
0.00217026
0.0021707
0.00217111
0.00217148
0.00217183
0.00217214
0.00217244
0.00217271
0.00217296
0.00217318
0.00217339
0.00217358
0.00217376
0.00217391
0.00217406
0.00217419
0.00217432
0.0021744
0.00110978
0.00189234
0.00232607
0.00253682
0.00264441
0.00270315
0.00273715
0.00275762
0.00276998
0.00277661
0.00277808
0.0027746
0.00276778
0.00276178
0.00276235
0.0027741
0.00279801
0.00283116
0.00286855
0.00290538
0.00293835
0.00296588
0.00298768
0.0030042
0.00301615
0.00302436
0.00302956
0.00303245
0.00303356
0.00303333
0.00303213
0.00303024
0.00302789
0.00302526
0.00302249
0.00301971
0.00301698
0.00301438
0.00301196
0.00300977
0.00300781
0.00300612
0.00300471
0.00300361
0.00300281
0.00300234
0.0030022
0.00300241
0.00300295
0.00300384
0.00300507
0.00300667
0.00300862
0.00301095
0.00301365
0.00301674
0.0030202
0.00302403
0.00302821
0.00303277
0.00303767
0.00304291
0.00304848
0.00305435
0.00306048
0.00306683
0.00307335
0.00308003
0.00308682
0.00309367
0.00310054
0.00310739
0.00311417
0.00312083
0.00312734
0.00313368
0.00313983
0.00314576
0.00315146
0.00315692
0.00316211
0.00316702
0.00317165
0.00317603
0.00318014
0.003184
0.00318761
0.003191
0.00319415
0.00319707
0.00319977
0.00320229
0.00320462
0.00320678
0.00320878
0.00321064
0.00321235
0.00321393
0.00321537
0.00321671
0.00321794
0.00321908
0.00322013
0.00322111
0.003222
0.00322283
0.00322357
0.00322427
0.0032249
0.00322549
0.00322603
0.00322654
0.00322699
0.00322742
0.0032278
0.00322815
0.00322846
0.00322875
0.00322901
0.00322925
0.00322948
0.00322962
0.00129926
0.00216765
0.00280719
0.00316589
0.00336959
0.00349121
0.00356778
0.0036182
0.00365222
0.00367449
0.00368659
0.00368949
0.00368643
0.00368471
0.00369404
0.00372221
0.00377103
0.00383577
0.00390795
0.0039793
0.00404388
0.00409878
0.00414326
0.00417801
0.00420421
0.00422329
0.00423654
0.00424524
0.00425033
0.00425268
0.00425292
0.00425165
0.00424927
0.00424615
0.00424254
0.00423872
0.00423483
0.00423102
0.00422738
0.00422404
0.00422103
0.00421841
0.00421618
0.00421445
0.00421321
0.0042125
0.00421232
0.00421273
0.00421371
0.00421527
0.00421739
0.00422014
0.00422351
0.00422751
0.00423213
0.00423742
0.00424334
0.00424988
0.004257
0.00426475
0.00427307
0.00428197
0.00429137
0.00430129
0.00431161
0.0043223
0.00433324
0.00434444
0.00435579
0.00436725
0.00437872
0.00439015
0.00440144
0.00441254
0.00442335
0.00443389
0.0044441
0.00445396
0.00446341
0.00447247
0.00448109
0.00448925
0.00449692
0.00450418
0.00451099
0.0045174
0.00452339
0.00452901
0.00453424
0.0045391
0.00454358
0.00454775
0.00455162
0.00455521
0.00455853
0.00456162
0.00456447
0.00456709
0.00456948
0.00457171
0.00457376
0.00457566
0.00457741
0.00457903
0.00458052
0.0045819
0.00458314
0.00458429
0.00458535
0.00458633
0.00458722
0.00458806
0.00458882
0.00458952
0.00459015
0.00459072
0.00459125
0.00459172
0.00459215
0.00459253
0.00459291
0.00459313
0.00158937
0.00236977
0.00321599
0.00375928
0.00409616
0.00431119
0.00445418
0.00455304
0.00462321
0.00467256
0.0047044
0.00472105
0.00472813
0.00473708
0.00476275
0.00481716
0.00490343
0.00501474
0.00513828
0.00526106
0.00537355
0.00547071
0.00555104
0.00561535
0.00566541
0.00570338
0.00573131
0.00575125
0.00576478
0.00577331
0.00577793
0.00577963
0.00577911
0.00577702
0.00577378
0.00576989
0.00576563
0.00576126
0.00575696
0.00575295
0.00574933
0.00574619
0.00574355
0.0057416
0.00574036
0.00573989
0.0057402
0.00574139
0.00574343
0.00574636
0.00575013
0.00575485
0.00576052
0.00576716
0.00577474
0.00578334
0.00579289
0.00580339
0.00581474
0.00582703
0.00584019
0.00585419
0.00586893
0.00588441
0.0059005
0.00591711
0.00593406
0.00595137
0.0059689
0.00598655
0.00600418
0.00602175
0.00603908
0.00605611
0.00607266
0.0060888
0.00610442
0.0061195
0.00613395
0.0061478
0.00616098
0.00617346
0.00618519
0.00619627
0.00620669
0.00621649
0.00622565
0.00623424
0.00624224
0.00624969
0.00625653
0.00626292
0.00626884
0.00627435
0.00627942
0.00628416
0.00628852
0.00629256
0.00629622
0.00629963
0.00630278
0.0063057
0.00630837
0.00631086
0.00631316
0.00631526
0.00631716
0.00631893
0.00632056
0.00632206
0.00632343
0.00632471
0.00632588
0.00632695
0.00632791
0.0063288
0.00632959
0.00633031
0.00633097
0.00633155
0.00633211
0.00633245
0.00212974
0.00251871
0.00352587
0.004279
0.00478643
0.00512991
0.00536879
0.00554011
0.00566589
0.00575818
0.0058228
0.00586416
0.005891
0.00591981
0.00597168
0.00606391
0.00620175
0.00637644
0.00657019
0.00676427
0.00694434
0.00710237
0.00723553
0.00734451
0.00743159
0.00749982
0.00755215
0.0075916
0.00762056
0.00764119
0.00765517
0.00766406
0.00766897
0.00767092
0.0076706
0.00766884
0.00766609
0.00766281
0.00765928
0.0076559
0.00765283
0.00765026
0.00764823
0.00764705
0.00764677
0.00764749
0.00764924
0.00765219
0.00765631
0.00766166
0.00766815
0.00767598
0.00768512
0.00769563
0.00770744
0.00772066
0.00773522
0.00775109
0.00776813
0.00778646
0.00780597
0.00782663
0.00784829
0.00787096
0.00789443
0.00791859
0.00794319
0.00796825
0.00799357
0.00801904
0.00804444
0.00806971
0.00809464
0.0081191
0.00814288
0.00816603
0.00818845
0.00821008
0.00823081
0.00825068
0.00826958
0.0082875
0.00830433
0.00832023
0.00833519
0.00834926
0.0083624
0.00837474
0.00838624
0.00839695
0.00840679
0.00841597
0.00842449
0.00843242
0.00843972
0.00844653
0.00845283
0.00845864
0.00846392
0.00846883
0.00847337
0.00847758
0.00848144
0.00848503
0.00848834
0.00849139
0.00849413
0.00849668
0.00849902
0.0085012
0.00850317
0.00850501
0.0085067
0.00850824
0.00850964
0.00851091
0.00851205
0.00851309
0.00851403
0.00851487
0.00851566
0.00851615
0.00315405
0.00268383
0.00372398
0.00468593
0.00539553
0.00590426
0.0062732
0.00654653
0.00675286
0.00690911
0.00702434
0.00710576
0.0071659
0.00722696
0.00731711
0.00746012
0.00766448
0.00792018
0.00820437
0.00849174
0.00876204
0.00900314
0.00921008
0.00938295
0.00952437
0.0096382
0.00972842
0.00979916
0.00985382
0.00989546
0.00992653
0.00994933
0.0099655
0.00997657
0.00998362
0.00998787
0.00999006
0.0099909
0.00999086
0.00999053
0.00999024
0.00999027
0.00999074
0.00999209
0.00999443
0.00999795
0.0100027
0.0100089
0.0100166
0.0100258
0.0100365
0.0100489
0.010063
0.0100789
0.0100964
0.0101158
0.0101369
0.0101597
0.010184
0.0102099
0.0102373
0.0102662
0.0102964
0.0103278
0.0103603
0.0103936
0.0104275
0.0104618
0.0104965
0.0105314
0.0105661
0.0106006
0.0106346
0.010668
0.0107005
0.010732
0.0107626
0.0107921
0.0108203
0.0108474
0.0108732
0.0108977
0.0109207
0.0109424
0.0109628
0.0109821
0.011
0.0110169
0.0110326
0.0110473
0.0110607
0.0110733
0.011085
0.0110958
0.0111059
0.0111152
0.0111238
0.0111318
0.0111391
0.0111458
0.011152
0.0111578
0.0111631
0.0111681
0.0111726
0.0111768
0.0111806
0.0111841
0.0111873
0.0111903
0.011193
0.0111955
0.0111979
0.0112
0.0112019
0.0112036
0.0112052
0.0112066
0.0112079
0.0112091
0.0112102
0.0112109
0.00493172
0.00302612
0.00383375
0.00494844
0.0058742
0.00658132
0.00711662
0.00752607
0.00784335
0.00809013
0.00827922
0.00842115
0.00853267
0.00864201
0.00878497
0.00899279
0.00927873
0.0096329
0.010028
0.0104319
0.0108173
0.0111669
0.0114724
0.0117328
0.0119504
0.0121297
0.0122758
0.0123938
0.0124884
0.0125638
0.0126231
0.0126698
0.012706
0.012734
0.0127553
0.0127718
0.0127844
0.0127943
0.0128021
0.0128089
0.012815
0.012821
0.012827
0.0128337
0.0128413
0.0128501
0.0128602
0.0128719
0.0128852
0.0129004
0.0129173
0.0129362
0.0129571
0.0129801
0.0130051
0.0130324
0.0130617
0.0130931
0.0131263
0.0131615
0.0131984
0.0132372
0.0132774
0.0133192
0.0133622
0.0134062
0.0134508
0.013496
0.0135416
0.0135873
0.0136328
0.013678
0.0137225
0.0137662
0.0138087
0.01385
0.01389
0.0139287
0.0139657
0.0140011
0.014035
0.014067
0.0140972
0.0141257
0.0141525
0.0141778
0.0142014
0.0142235
0.0142442
0.0142635
0.0142812
0.0142978
0.0143132
0.0143275
0.0143407
0.014353
0.0143643
0.0143749
0.0143845
0.0143934
0.0144016
0.0144092
0.0144162
0.0144227
0.0144288
0.0144343
0.0144393
0.0144439
0.0144482
0.0144522
0.0144558
0.0144591
0.0144622
0.014465
0.0144675
0.0144699
0.014472
0.0144739
0.0144756
0.0144771
0.0144785
0.0144795
0.00765432
0.00384124
0.00395994
0.00506381
0.00617769
0.00710168
0.00783627
0.00841778
0.0088806
0.00924974
0.00954152
0.00976995
0.009956
0.0101338
0.0103468
0.0106346
0.0110169
0.011486
0.0120117
0.0125553
0.013082
0.013568
0.0140007
0.0143764
0.0146968
0.0149665
0.0151914
0.0153777
0.0155314
0.0156576
0.0157608
0.0158452
0.015914
0.0159701
0.0160159
0.0160535
0.0160848
0.0161112
0.0161337
0.0161536
0.0161717
0.0161887
0.0162049
0.0162212
0.0162381
0.0162558
0.0162746
0.016295
0.016317
0.0163409
0.0163666
0.0163945
0.0164246
0.0164571
0.0164918
0.016529
0.0165686
0.0166105
0.0166544
0.0167006
0.0167488
0.0167991
0.016851
0.0169047
0.0169597
0.0170159
0.0170728
0.0171303
0.0171882
0.0172462
0.0173038
0.0173611
0.0174175
0.0174729
0.0175267
0.0175791
0.0176298
0.0176788
0.0177257
0.0177707
0.0178136
0.0178543
0.0178926
0.0179288
0.017963
0.0179951
0.0180251
0.0180532
0.0180796
0.0181041
0.0181268
0.0181479
0.0181675
0.0181857
0.0182025
0.0182182
0.0182328
0.0182462
0.0182585
0.0182698
0.0182804
0.0182901
0.0182991
0.0183074
0.0183151
0.0183222
0.0183286
0.0183346
0.0183401
0.0183451
0.0183497
0.018354
0.018358
0.0183616
0.0183649
0.0183678
0.0183706
0.018373
0.0183752
0.0183772
0.018379
0.0183802
0.0113264
0.00551791
0.00435847
0.00510588
0.00628873
0.00741001
0.0083619
0.009147
0.00979083
0.0103177
0.0107458
0.0110921
0.0113811
0.011652
0.0119555
0.0123399
0.012833
0.013432
0.0141062
0.0148118
0.0155062
0.0161583
0.0167495
0.0172724
0.0177269
0.0181172
0.0184493
0.0187305
0.0189676
0.0191672
0.0193348
0.0194757
0.0195942
0.0196941
0.0197784
0.0198502
0.0199118
0.0199652
0.0200121
0.020054
0.0200921
0.0201275
0.0201607
0.020193
0.0202248
0.0202567
0.0202891
0.0203227
0.0203577
0.0203942
0.0204324
0.0204727
0.0205152
0.0205601
0.0206073
0.0206571
0.0207094
0.0207642
0.0208211
0.0208804
0.0209419
0.0210056
0.021071
0.0211383
0.0212071
0.0212771
0.0213478
0.0214192
0.0214908
0.0215626
0.0216338
0.0217045
0.0217742
0.0218426
0.021909
0.0219737
0.0220364
0.0220968
0.0221548
0.0222104
0.0222634
0.0223138
0.0223612
0.022406
0.0224483
0.022488
0.0225252
0.0225601
0.0225927
0.0226231
0.0226512
0.0226774
0.0227017
0.0227243
0.0227452
0.0227646
0.0227827
0.0227994
0.0228146
0.0228288
0.0228419
0.022854
0.0228651
0.0228755
0.0228851
0.0228939
0.0229019
0.0229094
0.0229162
0.0229225
0.0229283
0.0229336
0.0229386
0.0229431
0.0229472
0.0229509
0.0229543
0.0229574
0.0229602
0.0229627
0.022965
0.0229666
0.0157246
0.00834349
0.00547903
0.00531278
0.00627184
0.00748307
0.00863001
0.00963239
0.0104859
0.0112048
0.0118052
0.0123046
0.0127295
0.0131228
0.013541
0.0140406
0.0146592
0.0154016
0.0162399
0.0171274
0.0180149
0.0188629
0.0196459
0.0203512
0.0209757
0.0215218
0.0219952
0.0224037
0.0227549
0.0230563
0.0233148
0.0235368
0.0237276
0.0238919
0.0240338
0.0241572
0.0242651
0.0243604
0.0244451
0.0245214
0.0245909
0.0246552
0.0247151
0.0247721
0.024827
0.0248808
0.0249338
0.024987
0.0250408
0.0250956
0.0251514
0.0252089
0.0252682
0.0253297
0.0253932
0.0254591
0.0255275
0.0255982
0.025671
0.0257462
0.0258235
0.025903
0.0259842
0.0260673
0.0261518
0.0262376
0.026324
0.026411
0.0264982
0.0265853
0.0266718
0.0267575
0.0268419
0.0269247
0.0270052
0.0270835
0.0271593
0.0272325
0.0273027
0.0273699
0.0274341
0.0274951
0.0275525
0.0276068
0.0276579
0.027706
0.027751
0.0277932
0.0278327
0.0278695
0.0279035
0.0279352
0.0279647
0.027992
0.0280173
0.0280409
0.0280627
0.0280829
0.0281014
0.0281186
0.0281345
0.0281492
0.0281627
0.0281753
0.0281869
0.0281976
0.0282074
0.0282164
0.0282247
0.0282324
0.0282395
0.028246
0.028252
0.0282575
0.0282626
0.0282672
0.0282713
0.0282751
0.0282786
0.0282816
0.0282845
0.0282864
0.0204363
0.0122984
0.00781849
0.00617619
0.0063814
0.00739767
0.00862173
0.0098068
0.0108745
0.0118087
0.0126132
0.0133009
0.0138972
0.0144455
0.0150059
0.015642
0.0164015
0.0172994
0.0183146
0.019401
0.0205043
0.0215771
0.0225856
0.0235108
0.0243443
0.0250862
0.0257406
0.0263149
0.0268171
0.0272556
0.027638
0.027972
0.028264
0.0285198
0.0287443
0.0289424
0.0291182
0.0292751
0.0294159
0.0295435
0.0296601
0.0297677
0.0298677
0.0299618
0.0300513
0.0301374
0.0302209
0.0303028
0.0303838
0.0304646
0.0305453
0.0306267
0.0307092
0.030793
0.0308782
0.0309653
0.0310544
0.0311455
0.0312383
0.0313331
0.0314298
0.0315284
0.0316285
0.0317303
0.0318334
0.0319376
0.0320421
0.0321471
0.032252
0.0323566
0.0324603
0.0325628
0.0326638
0.0327627
0.0328589
0.0329524
0.0330428
0.03313
0.0332136
0.0332937
0.03337
0.0334425
0.0335108
0.0335754
0.0336361
0.0336932
0.0337466
0.0337966
0.0338434
0.033887
0.0339274
0.0339649
0.0339998
0.0340322
0.0340622
0.03409
0.0341158
0.0341398
0.0341617
0.034182
0.0342008
0.0342182
0.0342342
0.0342491
0.0342629
0.0342756
0.0342872
0.034298
0.0343079
0.0343171
0.0343254
0.0343332
0.0343404
0.034347
0.034353
0.0343585
0.0343635
0.0343681
0.0343722
0.034376
0.0343794
0.0343818
0.0249658
0.0170287
0.0115585
0.00833408
0.00718504
0.00746848
0.00845524
0.00967296
0.0108959
0.0120336
0.0130552
0.0139572
0.0147563
0.015492
0.0162237
0.0170194
0.0179359
0.0190005
0.0202026
0.0215006
0.0228384
0.0241618
0.0254285
0.0266111
0.0276954
0.0286766
0.0295564
0.0303408
0.0310374
0.0316549
0.0322014
0.0326856
0.0331149
0.0334962
0.0338353
0.034138
0.0344094
0.034654
0.0348752
0.0350768
0.0352615
0.035432
0.0355901
0.0357383
0.0358782
0.0360113
0.0361388
0.0362621
0.0363822
0.0365
0.0366158
0.0367306
0.036845
0.0369595
0.0370741
0.0371896
0.0373061
0.0374238
0.0375424
0.0376624
0.0377836
0.0379062
0.0380297
0.0381544
0.03828
0.0384063
0.0385325
0.0386588
0.0387846
0.0389096
0.0390332
0.0391552
0.0392751
0.0393924
0.0395063
0.0396169
0.0397237
0.0398265
0.039925
0.0400191
0.0401087
0.0401938
0.0402739
0.0403495
0.0404206
0.0404873
0.0405495
0.0406078
0.0406622
0.0407129
0.0407598
0.0408034
0.0408439
0.0408814
0.0409161
0.0409483
0.0409781
0.0410058
0.0410312
0.0410547
0.0410764
0.0410966
0.0411151
0.0411323
0.0411482
0.041163
0.0411765
0.0411889
0.0412005
0.0412111
0.0412209
0.0412299
0.0412383
0.041246
0.041253
0.0412595
0.0412654
0.0412708
0.0412757
0.0412801
0.0412842
0.041287
0.0288719
0.0219724
0.0163568
0.0121021
0.00944169
0.00839304
0.00856607
0.00943689
0.0106061
0.0118456
0.0130439
0.0141544
0.0151698
0.0161153
0.0170427
0.0180192
0.0191079
0.0203483
0.0217431
0.0232601
0.0248451
0.0264397
0.0279931
0.0294693
0.0308459
0.0321121
0.0332654
0.0343091
0.0352494
0.0360944
0.0368525
0.0375326
0.0381431
0.0386916
0.039185
0.0396302
0.0400328
0.0403983
0.0407313
0.0410363
0.0413168
0.0415761
0.0418168
0.0420418
0.0422533
0.0424533
0.0426435
0.0428257
0.0430012
0.0431711
0.0433363
0.043498
0.0436569
0.0438137
0.0439688
0.0441229
0.0442765
0.0444298
0.0445827
0.0447358
0.0448891
0.0450427
0.0451963
0.0453502
0.0455041
0.0456579
0.045811
0.0459634
0.0461146
0.0462644
0.0464119
0.0465571
0.0466992
0.0468381
0.0469726
0.0471029
0.0472285
0.0473491
0.0474643
0.0475742
0.0476786
0.0477775
0.0478704
0.0479579
0.04804
0.0481168
0.0481884
0.0482553
0.0483175
0.0483754
0.0484289
0.0484785
0.0485245
0.0485671
0.0486064
0.0486428
0.0486765
0.0487078
0.0487364
0.048763
0.0487875
0.0488102
0.0488311
0.0488505
0.0488685
0.0488851
0.0489004
0.0489145
0.0489275
0.0489396
0.0489507
0.048961
0.0489704
0.0489792
0.0489873
0.0489947
0.0490014
0.0490076
0.0490133
0.0490184
0.0490232
0.0490264
0.0318858
0.0265352
0.0215158
0.0170865
0.0134886
0.0110285
0.00983761
0.00973787
0.010376
0.0114141
0.0126156
0.0138437
0.0150351
0.0161792
0.0173059
0.0184716
0.0197394
0.0211577
0.0227437
0.0244782
0.0263138
0.0281911
0.0300528
0.0318534
0.0335611
0.0351575
0.0366339
0.0379894
0.0392274
0.0403544
0.0413781
0.0423074
0.0431507
0.0439166
0.0446126
0.0452462
0.0458242
0.0463527
0.0468372
0.0472832
0.047695
0.0480768
0.0484318
0.0487636
0.049075
0.0493687
0.0496467
0.0499113
0.0501643
0.0504075
0.0506418
0.0508688
0.0510896
0.0513052
0.0515162
0.0517236
0.0519279
0.0521298
0.0523293
0.052527
0.0527232
0.0529181
0.0531114
0.0533036
0.0534945
0.0536841
0.0538717
0.0540574
0.0542408
0.0544216
0.0545989
0.0547727
0.0549423
0.0551072
0.0552667
0.0554206
0.0555684
0.0557099
0.0558446
0.0559726
0.0560938
0.0562081
0.0563153
0.0564159
0.0565098
0.0565975
0.0566788
0.0567545
0.0568247
0.0568898
0.0569497
0.0570052
0.0570564
0.0571038
0.0571473
0.0571876
0.0572248
0.0572592
0.0572907
0.0573199
0.0573469
0.0573718
0.0573947
0.057416
0.0574357
0.0574539
0.0574707
0.0574862
0.0575006
0.0575139
0.0575261
0.0575375
0.057548
0.0575577
0.0575667
0.0575749
0.0575825
0.0575895
0.0575959
0.0576016
0.057607
0.0576106
0.0339567
0.0302572
0.026296
0.0224012
0.0187487
0.015565
0.0131342
0.0116598
0.0111402
0.0113913
0.0121592
0.0132165
0.0144059
0.0156445
0.0169122
0.0182342
0.0196592
0.0212364
0.0229939
0.0249273
0.0270001
0.0291562
0.0313339
0.0334789
0.0355491
0.0375162
0.0393634
0.0410836
0.0426758
0.0441435
0.0454925
0.0467307
0.0478662
0.0489076
0.0498628
0.05074
0.0515466
0.0522894
0.0529747
0.0536085
0.0541964
0.0547434
0.0552534
0.0557306
0.0561786
0.0566007
0.0569996
0.057378
0.0577384
0.0580828
0.0584128
0.0587305
0.0590371
0.0593342
0.0596225
0.0599035
0.0601779
0.0604466
0.0607099
0.0609687
0.0612233
0.0614742
0.0617213
0.0619651
0.0622055
0.0624427
0.062676
0.0629056
0.0631312
0.0633523
0.0635682
0.0637788
0.0639834
0.0641815
0.0643722
0.0645555
0.0647308
0.0648978
0.0650562
0.0652059
0.0653469
0.0654794
0.065603
0.0657183
0.0658255
0.065925
0.0660168
0.0661018
0.0661801
0.0662524
0.0663187
0.0663797
0.0664358
0.0664874
0.0665346
0.0665781
0.0666182
0.066655
0.0666888
0.06672
0.0667487
0.0667752
0.0667996
0.0668222
0.0668431
0.0668625
0.0668803
0.0668968
0.0669121
0.0669263
0.0669394
0.0669515
0.0669628
0.0669733
0.0669829
0.0669919
0.0670001
0.0670077
0.0670147
0.0670211
0.067027
0.0670309
0.0352156
0.0329263
0.0301545
0.0271688
0.0241073
0.0210821
0.0182531
0.0158396
0.014059
0.0130323
0.0127384
0.0130461
0.0137827
0.0147957
0.0159871
0.0173184
0.0187972
0.020454
0.0223164
0.0243905
0.026652
0.0290517
0.0315265
0.0340141
0.0364611
0.0388271
0.0410847
0.0432181
0.0452194
0.0470873
0.0488242
0.0504357
0.0519287
0.0533108
0.0545899
0.0557743
0.0568717
0.0578896
0.0588347
0.0597138
0.0605327
0.0612975
0.0620131
0.0626845
0.0633157
0.0639108
0.0644732
0.0650061
0.0655126
0.0659954
0.0664566
0.0668985
0.0673231
0.0677321
0.068127
0.0685093
0.0688803
0.069241
0.0695922
0.0699349
0.0702698
0.0705974
0.0709181
0.0712323
0.0715402
0.0718419
0.0721372
0.0724261
0.0727083
0.0729835
0.0732509
0.0735104
0.0737612
0.0740028
0.0742345
0.074456
0.0746668
0.0748666
0.075055
0.0752322
0.075398
0.0755528
0.0756964
0.0758295
0.0759523
0.0760655
0.0761693
0.0762646
0.0763517
0.0764315
0.0765041
0.0765705
0.076631
0.0766863
0.0767367
0.0767827
0.0768248
0.0768633
0.0768985
0.0769308
0.0769604
0.0769877
0.0770128
0.0770359
0.0770573
0.0770771
0.0770953
0.0771123
0.0771279
0.0771425
0.077156
0.0771686
0.0771802
0.0771911
0.0772012
0.0772105
0.0772192
0.0772272
0.0772346
0.0772414
0.0772478
0.0772519
0.0358864
0.034593
0.0328631
0.0308399
0.0286209
0.0262669
0.0238351
0.0214139
0.0191391
0.0171823
0.0157044
0.0148009
0.0144764
0.0146642
0.01527
0.0162115
0.0174401
0.0189414
0.02072
0.0227781
0.025098
0.0276367
0.0303316
0.0331123
0.0359124
0.0386767
0.041363
0.0439428
0.0463984
0.0487204
0.0509056
0.0529553
0.0548735
0.0566662
0.0583399
0.0599023
0.0613609
0.0627233
0.0639966
0.0651879
0.0663037
0.0673501
0.0683328
0.0692577
0.0701297
0.0709533
0.0717327
0.0724717
0.0731739
0.0738426
0.0744806
0.0750907
0.0756753
0.0762367
0.0767768
0.0772975
0.0778005
0.0782873
0.078759
0.0792169
0.0796619
0.080095
0.0805166
0.0809275
0.081328
0.0817184
0.0820985
0.0824685
0.0828281
0.083177
0.0835146
0.0838404
0.084154
0.0844547
0.0847416
0.0850146
0.085273
0.0855167
0.0857452
0.0859588
0.0861575
0.0863416
0.0865113
0.0866673
0.0868102
0.0869407
0.0870594
0.0871672
0.0872649
0.0873535
0.0874333
0.0875055
0.0875707
0.0876296
0.0876827
0.0877308
0.0877743
0.0878138
0.0878495
0.0878821
0.0879119
0.0879391
0.087964
0.0879868
0.0880079
0.0880274
0.0880453
0.088062
0.0880774
0.0880918
0.0881052
0.0881176
0.0881293
0.0881401
0.0881502
0.0881597
0.0881685
0.0881767
0.0881844
0.0881914
0.0881981
0.0882022
0.0361962
0.0354884
0.034501
0.0332716
0.0318466
0.0302602
0.0285347
0.0266912
0.0247643
0.0228155
0.0209406
0.019261
0.0178965
0.0169362
0.0164236
0.016365
0.0167488
0.0175628
0.0188002
0.0204545
0.0225063
0.0249144
0.0276143
0.0305262
0.0335664
0.0366581
0.039738
0.0427579
0.0456838
0.0484932
0.051173
0.0537171
0.0561239
0.0583954
0.0605355
0.0625501
0.0644454
0.0662284
0.0679059
0.0694849
0.0709722
0.0723742
0.0736969
0.0749462
0.0761275
0.0772467
0.0783081
0.0793164
0.0802757
0.0811898
0.082062
0.0828959
0.0836942
0.0844599
0.0851951
0.0859025
0.0865841
0.0872418
0.087877
0.0884917
0.0890869
0.089664
0.0902237
0.0907669
0.0912943
0.0918062
0.0923027
0.0927841
0.09325
0.0937004
0.0941344
0.0945518
0.0949518
0.0953338
0.095697
0.096041
0.0963653
0.0966696
0.0969537
0.0972178
0.097462
0.0976869
0.0978928
0.0980807
0.0982515
0.0984061
0.0985455
0.0986709
0.0987833
0.098884
0.0989738
0.099054
0.0991254
0.0991892
0.0992459
0.0992966
0.0993418
0.0993824
0.0994186
0.0994513
0.0994808
0.0995075
0.0995318
0.0995539
0.0995741
0.0995928
0.09961
0.0996259
0.0996406
0.0996544
0.0996672
0.0996792
0.0996905
0.0997011
0.099711
0.0997203
0.0997291
0.0997373
0.0997451
0.0997522
0.0997592
0.0997632
0.0363185
0.0358963
0.035342
0.0346443
0.0338097
0.03285
0.0317742
0.0305879
0.0292943
0.0278998
0.0264207
0.0248899
0.0233597
0.0218996
0.0205881
0.0195052
0.0187277
0.0183277
0.0183736
0.0189261
0.0200268
0.0216825
0.0238546
0.0264639
0.0294072
0.0325773
0.0358769
0.0392247
0.042557
0.0458276
0.0490044
0.052067
0.055003
0.0578062
0.0604747
0.0630099
0.0654153
0.0676955
0.0698561
0.0719031
0.0738426
0.075681
0.0774244
0.0790787
0.0806496
0.0821424
0.0835623
0.0849147
0.0862043
0.0874354
0.0886119
0.0897376
0.090816
0.0918503
0.0928434
0.0937983
0.0947174
0.0956032
0.0964576
0.0972828
0.0980803
0.0988518
0.0995983
0.100321
0.101021
0.101698
0.102354
0.102987
0.103599
0.104189
0.104755
0.105299
0.105818
0.106313
0.106783
0.107226
0.107642
0.108032
0.108395
0.108731
0.10904
0.109324
0.109583
0.109818
0.11003
0.110221
0.110392
0.110545
0.110681
0.110801
0.110907
0.111001
0.111084
0.111157
0.111221
0.111277
0.111327
0.111371
0.111409
0.111444
0.111474
0.111502
0.111526
0.111548
0.111569
0.111587
0.111604
0.111619
0.111634
0.111647
0.11166
0.111672
0.111683
0.111693
0.111703
0.111713
0.111722
0.11173
0.111738
0.111746
0.111753
0.111757
0.0363591
0.0360515
0.0357023
0.0352937
0.0348162
0.0342668
0.0336457
0.0329532
0.032189
0.0313511
0.0304372
0.0294462
0.0283804
0.027247
0.02606
0.024843
0.0236325
0.0224839
0.0214757
0.020713
0.0203217
0.0204318
0.0211486
0.0225225
0.0245319
0.0270907
0.0300742
0.03335
0.0368013
0.0403352
0.043882
0.04739
0.0508228
0.0541558
0.0573738
0.0604685
0.063436
0.0662757
0.0689888
0.0715784
0.0740489
0.0764052
0.0786526
0.0807965
0.082842
0.0847946
0.0866593
0.0884409
0.0901446
0.0917752
0.0933373
0.094835
0.0962721
0.0976523
0.0989788
0.100255
0.101484
0.102669
0.103811
0.104914
0.105979
0.107009
0.108004
0.108967
0.109897
0.110797
0.111667
0.112506
0.113316
0.114094
0.114842
0.115559
0.116243
0.116893
0.11751
0.118092
0.118638
0.119149
0.119624
0.120064
0.120468
0.120839
0.121177
0.121483
0.12176
0.122008
0.12223
0.122428
0.122604
0.122759
0.122896
0.123016
0.123122
0.123214
0.123295
0.123365
0.123427
0.123481
0.123529
0.123571
0.123608
0.12364
0.123669
0.123696
0.123719
0.12374
0.12376
0.123778
0.123794
0.12381
0.123824
0.123838
0.123851
0.123863
0.123874
0.123885
0.123896
0.123906
0.123915
0.123924
0.123933
0.123939
0.0363702
0.0360998
0.0358287
0.035546
0.0352425
0.0349115
0.0345486
0.0341513
0.0337176
0.033246
0.0327344
0.03218
0.0315793
0.0309278
0.0302193
0.0294471
0.028604
0.0276859
0.0266949
0.0256479
0.0245874
0.0235955
0.0228005
0.0223667
0.0224598
0.0232038
0.0246483
0.0267607
0.0294424
0.0325588
0.0359709
0.0395581
0.0432278
0.0469136
0.0505688
0.0541606