/*--------------------------------*- C++ -*----------------------------------*\
  =========                 |
  \\      /  F ield         | OpenFOAM: The Open Source CFD Toolbox
   \\    /   O peration     | Website:  https://openfoam.org
    \\  /    A nd           | Version:  8
     \\/     M anipulation  |
\*---------------------------------------------------------------------------*/
FoamFile
{
    version     2.0;
    format      ascii;
    class       volScalarField;
    location    "350";
    object      p;
}
// * * * * * * * * * * * * * * * * * * * * * * * * * * * * * * * * * * * * * //

dimensions      [0 2 -2 0 0 0 0];

internalField   nonuniform List<scalar> 
7320
(
215.97
210.112
208.202
206.417
204.707
203.011
201.347
199.721
198.129
196.564
195.027
193.52
192.052
190.618
189.205
187.78
186.31
184.763
183.121
181.377
179.546
177.638
175.674
173.665
171.628
169.571
167.507
165.437
163.372
161.313
159.266
157.23
155.21
153.205
151.219
149.247
147.295
145.36
143.444
141.544
139.664
137.8
135.954
134.122
132.308
130.51
128.728
126.958
125.205
123.464
121.738
120.023
118.322
116.631
114.953
113.285
111.627
109.979
108.342
106.711
105.09
103.477
101.872
100.272
98.6795
97.0924
95.5116
93.9332
92.3596
90.7885
89.2203
87.6517
86.0843
84.5156
82.9461
81.3718
79.7948
78.2127
76.6258
75.0309
73.4297
71.82
70.2028
68.5744
66.9377
65.2907
63.6345
61.9666
60.2894
58.6014
56.9043
55.1954
53.4778
51.7502
50.0144
48.2683
46.5146
44.7524
42.9834
41.2054
39.4215
37.6305
35.8342
34.031
32.223
30.4097
28.5922
26.7693
24.9429
23.1124
21.2788
19.4413
17.6012
15.7581
13.9125
12.0644
10.2141
8.36188
6.50732
4.65212
2.79303
0.940029
215.171
210.099
208.203
206.417
204.707
203.011
201.347
199.722
198.129
196.564
195.027
193.52
192.052
190.618
189.205
187.78
186.31
184.763
183.121
181.377
179.546
177.638
175.674
173.665
171.628
169.571
167.507
165.437
163.372
161.313
159.266
157.23
155.21
153.205
151.219
149.247
147.295
145.36
143.444
141.544
139.664
137.8
135.954
134.122
132.308
130.51
128.728
126.958
125.205
123.464
121.738
120.023
118.322
116.631
114.953
113.285
111.627
109.979
108.342
106.711
105.09
103.477
101.872
100.272
98.6795
97.0924
95.5116
93.9332
92.3596
90.7885
89.2203
87.6517
86.0843
84.5156
82.9461
81.3718
79.7948
78.2127
76.6258
75.0309
73.4297
71.82
70.2027
68.5744
66.9377
65.2907
63.6345
61.9666
60.2893
58.6014
56.9043
55.1954
53.4778
51.7502
50.0144
48.2683
46.5146
44.7524
42.9834
41.2054
39.4215
37.6305
35.8342
34.031
32.223
30.4097
28.5922
26.7693
24.9429
23.1124
21.2788
19.4413
17.6011
15.7581
13.9125
12.0644
10.2141
8.36188
6.50732
4.65212
2.79302
0.940028
214.966
210.105
208.204
206.418
204.708
203.011
201.347
199.722
198.13
196.564
195.027
193.52
192.052
190.618
189.205
187.78
186.31
184.763
183.121
181.377
179.546
177.639
175.674
173.665
171.628
169.571
167.507
165.437
163.372
161.313
159.266
157.23
155.21
153.205
151.219
149.247
147.295
145.36
143.444
141.544
139.664
137.8
135.954
134.122
132.308
130.51
128.727
126.958
125.205
123.464
121.738
120.023
118.322
116.631
114.953
113.284
111.627
109.979
108.342
106.711
105.09
103.477
101.872
100.272
98.6794
97.0924
95.5116
93.9331
92.3596
90.7885
89.2203
87.6517
86.0843
84.5155
82.946
81.3717
79.7948
78.2126
76.6258
75.0309
73.4297
71.82
70.2027
68.5744
66.9377
65.2907
63.6345
61.9666
60.2893
58.6014
56.9043
55.1954
53.4778
51.7502
50.0143
48.2683
46.5146
44.7524
42.9834
41.2054
39.4215
37.6305
35.8342
34.031
32.223
30.4097
28.5922
26.7693
24.9429
23.1124
21.2788
19.4413
17.6011
15.7581
13.9125
12.0644
10.2141
8.36188
6.50732
4.65212
2.79302
0.940029
214.952
210.112
208.206
206.419
204.709
203.012
201.347
199.722
198.13
196.564
195.027
193.521
192.052
190.618
189.205
187.78
186.311
184.763
183.121
181.378
179.546
177.639
175.674
173.665
171.628
169.571
167.507
165.437
163.372
161.313
159.266
157.23
155.21
153.205
151.219
149.247
147.295
145.36
143.444
141.544
139.664
137.8
135.954
134.122
132.308
130.51
128.727
126.958
125.205
123.464
121.738
120.023
118.321
116.631
114.953
113.284
111.627
109.979
108.342
106.711
105.09
103.477
101.871
100.272
98.6794
97.0924
95.5115
93.9331
92.3596
90.7884
89.2203
87.6517
86.0843
84.5155
82.946
81.3717
79.7948
78.2126
76.6258
75.0309
73.4297
71.82
70.2027
68.5744
66.9377
65.2907
63.6345
61.9665
60.2893
58.6014
56.9043
55.1953
53.4777
51.7502
50.0143
48.2683
46.5146
44.7524
42.9834
41.2054
39.4214
37.6305
35.8342
34.031
32.223
30.4097
28.5922
26.7693
24.9429
23.1124
21.2788
19.4413
17.6011
15.7581
13.9125
12.0644
10.2141
8.36188
6.50732
4.65212
2.79302
0.940026
214.925
210.116
208.208
206.42
204.709
203.013
201.348
199.723
198.13
196.565
195.027
193.521
192.052
190.618
189.205
187.78
186.311
184.763
183.121
181.378
179.546
177.639
175.674
173.665
171.628
169.571
167.507
165.437
163.372
161.313
159.266
157.23
155.21
153.205
151.219
149.247
147.295
145.36
143.444
141.544
139.664
137.8
135.954
134.122
132.308
130.51
128.727
126.958
125.205
123.464
121.738
120.023
118.321
116.631
114.953
113.284
111.627
109.979
108.342
106.711
105.09
103.477
101.871
100.272
98.6794
97.0923
95.5115
93.9331
92.3595
90.7884
89.2203
87.6517
86.0842
84.5155
82.946
81.3717
79.7948
78.2126
76.6258
75.0308
73.4297
71.82
70.2027
68.5744
66.9377
65.2907
63.6345
61.9665
60.2893
58.6014
56.9043
55.1953
53.4777
51.7502
50.0143
48.2683
46.5146
44.7524
42.9834
41.2054
39.4214
37.6305
35.8342
34.031
32.223
30.4097
28.5922
26.7693
24.9429
23.1124
21.2788
19.4413
17.6011
15.7581
13.9125
12.0644
10.2141
8.36188
6.50732
4.65211
2.79302
0.940029
214.883
210.12
208.21
206.421
204.71
203.013
201.349
199.723
198.131
196.565
195.028
193.521
192.052
190.619
189.205
187.78
186.311
184.763
183.121
181.378
179.546
177.639
175.674
173.665
171.628
169.572
167.507
165.437
163.372
161.313
159.266
157.23
155.21
153.205
151.219
149.247
147.295
145.36
143.444
141.544
139.663
137.799
135.954
134.122
132.308
130.51
128.727
126.958
125.205
123.464
121.738
120.023
118.321
116.631
114.953
113.284
111.627
109.979
108.342
106.711
105.09
103.476
101.871
100.272
98.6793
97.0923
95.5115
93.933
92.3595
90.7884
89.2202
87.6516
86.0842
84.5155
82.946
81.3717
79.7948
78.2126
76.6257
75.0308
73.4296
71.8199
70.2027
68.5744
66.9377
65.2906
63.6344
61.9665
60.2893
58.6014
56.9043
55.1953
53.4777
51.7502
50.0143
48.2683
46.5146
44.7524
42.9834
41.2054
39.4214
37.6305
35.8342
34.031
32.223
30.4097
28.5922
26.7693
24.9429
23.1124
21.2788
19.4413
17.6011
15.7581
13.9125
12.0644
10.2141
8.36188
6.50732
4.65211
2.79302
0.940023
214.848
210.125
208.212
206.423
204.712
203.014
201.349
199.724
198.131
196.565
195.028
193.521
192.053
190.619
189.205
187.781
186.311
184.764
183.121
181.378
179.546
177.639
175.675
173.665
171.628
169.572
167.507
165.437
163.372
161.313
159.266
157.23
155.21
153.205
151.219
149.247
147.295
145.36
143.444
141.544
139.663
137.799
135.954
134.122
132.308
130.51
128.727
126.958
125.204
123.464
121.738
120.023
118.321
116.631
114.953
113.284
111.627
109.979
108.342
106.711
105.09
103.476
101.871
100.272
98.6793
97.0922
95.5114
93.933
92.3595
90.7883
89.2202
87.6516
86.0842
84.5154
82.9459
81.3716
79.7947
78.2126
76.6257
75.0308
73.4296
71.8199
70.2027
68.5744
66.9377
65.2906
63.6344
61.9665
60.2893
58.6013
56.9042
55.1953
53.4777
51.7502
50.0143
48.2683
46.5146
44.7524
42.9834
41.2054
39.4214
37.6305
35.8342
34.031
32.223
30.4097
28.5922
26.7693
24.9429
23.1124
21.2788
19.4413
17.6011
15.7581
13.9125
12.0644
10.2141
8.36187
6.50732
4.65211
2.79302
0.940029
214.821
210.131
208.215
206.425
204.713
203.016
201.35
199.725
198.132
196.566
195.028
193.522
192.053
190.619
189.205
187.781
186.311
184.764
183.122
181.379
179.547
177.639
175.675
173.666
171.628
169.572
167.507
165.437
163.372
161.313
159.266
157.23
155.21
153.205
151.219
149.247
147.295
145.36
143.444
141.544
139.663
137.799
135.954
134.122
132.308
130.51
128.727
126.958
125.204
123.464
121.738
120.023
118.321
116.631
114.953
113.284
111.627
109.979
108.341
106.711
105.09
103.476
101.871
100.272
98.6792
97.0922
95.5114
93.9329
92.3594
90.7883
89.2201
87.6515
86.0841
84.5154
82.9459
81.3716
79.7947
78.2125
76.6257
75.0308
73.4296
71.8199
70.2027
68.5744
66.9377
65.2906
63.6344
61.9665
60.2893
58.6013
56.9042
55.1953
53.4777
51.7502
50.0143
48.2683
46.5146
44.7524
42.9834
41.2054
39.4214
37.6305
35.8342
34.0309
32.223
30.4097
28.5922
26.7693
24.9429
23.1124
21.2788
19.4413
17.6011
15.7581
13.9125
12.0644
10.2141
8.36187
6.50731
4.65211
2.79301
0.940019
214.798
210.137
208.218
206.428
204.715
203.017
201.352
199.726
198.133
196.567
195.029
193.522
192.053
190.619
189.206
187.781
186.312
184.764
183.122
181.379
179.547
177.64
175.675
173.666
171.629
169.572
167.507
165.438
163.372
161.313
159.266
157.23
155.21
153.205
151.219
149.247
147.295
145.36
143.444
141.544
139.663
137.799
135.953
134.122
132.308
130.509
128.727
126.958
125.204
123.464
121.738
120.023
118.321
116.631
114.953
113.284
111.627
109.979
108.341
106.711
105.09
103.476
101.871
100.271
98.6792
97.0921
95.5113
93.9329
92.3593
90.7882
89.2201
87.6515
86.0841
84.5153
82.9459
81.3716
79.7947
78.2125
76.6256
75.0307
73.4296
71.8199
70.2026
68.5743
66.9376
65.2906
63.6344
61.9665
60.2893
58.6013
56.9042
55.1953
53.4777
51.7502
50.0143
48.2682
46.5146
44.7524
42.9833
41.2054
39.4214
37.6305
35.8342
34.0309
32.223
30.4097
28.5922
26.7693
24.9429
23.1124
21.2788
19.4413
17.6011
15.7581
13.9125
12.0644
10.2141
8.36187
6.50731
4.65211
2.79302
0.940026
214.778
210.144
208.22
206.43
204.717
203.019
201.353
199.727
198.134
196.568
195.03
193.523
192.054
190.62
189.206
187.782
186.313
184.765
183.123
181.38
179.548
177.641
175.676
173.667
171.629
169.572
167.508
165.438
163.372
161.313
159.266
157.23
155.21
153.205
151.219
149.247
147.295
145.36
143.444
141.544
139.663
137.799
135.953
134.122
132.308
130.509
128.727
126.958
125.204
123.464
121.738
120.023
118.321
116.631
114.953
113.284
111.627
109.979
108.341
106.711
105.09
103.476
101.871
100.271
98.6791
97.092
95.5112
93.9328
92.3593
90.7882
89.22
87.6514
86.084
84.5153
82.9458
81.3715
79.7946
78.2124
76.6256
75.0307
73.4295
71.8198
70.2026
68.5743
66.9376
65.2906
63.6344
61.9665
60.2893
58.6013
56.9042
55.1953
53.4777
51.7501
50.0143
48.2682
46.5146
44.7524
42.9833
41.2054
39.4214
37.6305
35.8342
34.0309
32.223
30.4097
28.5922
26.7693
24.9428
23.1124
21.2787
19.4413
17.6011
15.7581
13.9124
12.0644
10.2141
8.36187
6.50731
4.6521
2.79301
0.940012
214.758
210.152
208.222
206.433
204.72
203.021
201.355
199.728
198.135
196.569
195.031
193.524
192.055
190.621
189.207
187.783
186.313
184.766
183.124
181.381
179.549
177.641
175.677
173.667
171.63
169.573
167.508
165.438
163.372
161.314
159.266
157.23
155.21
153.205
151.219
149.247
147.295
145.36
143.444
141.544
139.663
137.799
135.953
134.122
132.308
130.509
128.727
126.958
125.204
123.464
121.738
120.023
118.321
116.631
114.953
113.284
111.627
109.979
108.341
106.711
105.09
103.476
101.871
100.271
98.679
97.0919
95.5111
93.9327
92.3592
90.7881
89.22
87.6514
86.084
84.5152
82.9457
81.3715
79.7946
78.2124
76.6256
75.0307
73.4295
71.8198
70.2026
68.5743
66.9376
65.2905
63.6343
61.9664
60.2892
58.6013
56.9042
55.1953
53.4777
51.7501
50.0143
48.2682
46.5146
44.7524
42.9833
41.2054
39.4214
37.6305
35.8341
34.0309
32.223
30.4096
28.5922
26.7693
24.9428
23.1124
21.2787
19.4413
17.6011
15.7581
13.9124
12.0644
10.2141
8.36186
6.5073
4.6521
2.79301
0.940024
214.735
210.161
208.224
206.435
204.722
203.023
201.357
199.73
198.136
196.57
195.032
193.525
192.055
190.621
189.208
187.784
186.315
184.767
183.125
181.382
179.55
177.643
175.678
173.668
171.63
169.574
167.509
165.439
163.373
161.314
159.267
157.23
155.21
153.205
151.219
149.247
147.295
145.36
143.444
141.544
139.663
137.799
135.953
134.122
132.308
130.509
128.727
126.958
125.204
123.464
121.738
120.023
118.321
116.63
114.953
113.284
111.626
109.978
108.341
106.71
105.089
103.476
101.871
100.271
98.6789
97.0918
95.511
93.9326
92.3591
90.788
89.2199
87.6513
86.0839
84.5151
82.9457
81.3714
79.7945
78.2123
76.6255
75.0306
73.4294
71.8197
70.2025
68.5742
66.9375
65.2905
63.6343
61.9664
60.2892
58.6012
56.9041
55.1952
53.4776
51.7501
50.0142
48.2682
46.5146
44.7524
42.9833
41.2054
39.4214
37.6305
35.8341
34.0309
32.223
30.4096
28.5922
26.7693
24.9428
23.1124
21.2787
19.4413
17.6011
15.758
13.9124
12.0644
10.2141
8.36186
6.5073
4.6521
2.793
0.940001
214.709
210.172
208.226
206.437
204.724
203.025
201.359
199.732
198.138
196.571
195.033
193.526
192.057
190.622
189.209
187.785
186.316
184.769
183.127
181.384
179.552
177.644
175.679
173.669
171.631
169.574
167.509
165.439
163.373
161.314
159.267
157.231
155.21
153.206
151.219
149.247
147.295
145.36
143.444
141.544
139.663
137.799
135.953
134.122
132.308
130.509
128.727
126.958
125.204
123.464
121.738
120.022
118.321
116.63
114.952
113.284
111.626
109.978
108.341
106.71
105.089
103.476
101.871
100.271
98.6788
97.0917
95.5109
93.9325
92.359
90.7879
89.2198
87.6512
86.0838
84.515
82.9456
81.3713
79.7944
78.2123
76.6254
75.0305
73.4294
71.8197
70.2024
68.5742
66.9375
65.2904
63.6342
61.9663
60.2892
58.6012
56.9041
55.1952
53.4776
51.7501
50.0142
48.2682
46.5145
44.7523
42.9833
41.2053
39.4214
37.6305
35.8341
34.0309
32.223
30.4096
28.5922
26.7692
24.9428
23.1123
21.2787
19.4413
17.6011
15.758
13.9124
12.0644
10.2141
8.36185
6.50729
4.65209
2.793
0.940016
214.678
210.183
208.227
206.438
204.726
203.027
201.361
199.734
198.14
196.573
195.035
193.527
192.058
190.624
189.21
187.786
186.317
184.77
183.128
181.385
179.553
177.646
175.681
173.671
171.633
169.576
167.51
165.44
163.374
161.315
159.268
157.231
155.211
153.206
151.219
149.247
147.295
145.36
143.444
141.544
139.663
137.799
135.953
134.122
132.308
130.509
128.727
126.957
125.204
123.463
121.737
120.022
118.321
116.63
114.952
113.284
111.626
109.978
108.341
106.71
105.089
103.476
101.871
100.271
98.6786
97.0916
95.5108
93.9324
92.3589
90.7877
89.2196
87.6511
86.0837
84.5149
82.9455
81.3712
79.7943
78.2122
76.6253
75.0304
73.4293
71.8196
70.2024
68.5741
66.9374
65.2904
63.6342
61.9663
60.2891
58.6012
56.9041
55.1952
53.4776
51.75
50.0142
48.2681
46.5145
44.7523
42.9832
41.2053
39.4214
37.6304
35.8341
34.0309
32.223
30.4096
28.5922
26.7692
24.9428
23.1123
21.2787
19.4413
17.6011
15.758
13.9124
12.0644
10.2141
8.36184
6.50729
4.65208
2.79298
0.939984
214.643
210.197
208.229
206.44
204.727
203.029
201.363
199.736
198.142
196.575
195.036
193.529
192.059
190.625
189.212
187.788
186.319
184.772
183.13
181.387
179.555
177.648
175.683
173.673
171.634
169.577
167.512
165.441
163.375
161.316
159.268
157.232
155.211
153.206
151.219
149.248
147.295
145.36
143.444
141.544
139.663
137.799
135.953
134.122
132.308
130.509
128.727
126.957
125.204
123.463
121.737
120.022
118.32
116.63
114.952
113.283
111.626
109.978
108.341
106.71
105.089
103.476
101.87
100.271
98.6785
97.0914
95.5106
93.9322
92.3587
90.7876
89.2195
87.6509
86.0835
84.5148
82.9453
81.3711
79.7942
78.212
76.6252
75.0303
73.4292
71.8195
70.2023
68.574
66.9373
65.2903
63.6341
61.9662
60.289
58.6011
56.904
55.1951
53.4775
51.75
50.0141
48.2681
46.5145
44.7523
42.9832
41.2053
39.4213
37.6304
35.8341
34.0309
32.2229
30.4096
28.5921
26.7692
24.9428
23.1123
21.2787
19.4413
17.6011
15.758
13.9124
12.0644
10.2141
8.36183
6.50728
4.65208
2.79298
0.940002
214.601
210.213
208.23
206.441
204.729
203.03
201.364
199.738
198.144
196.577
195.038
193.531
192.061
190.627
189.213
187.789
186.32
184.774
183.132
181.39
179.558
177.65
175.685
173.675
171.636
169.579
167.513
165.443
163.377
161.317
159.269
157.233
155.212
153.207
151.22
149.248
147.295
145.36
143.444
141.544
139.663
137.799
135.953
134.122
132.308
130.509
128.727
126.957
125.204
123.463
121.737
120.022
118.32
116.63
114.952
113.283
111.626
109.978
108.34
106.71
105.089
103.475
101.87
100.271
98.6783
97.0913
95.5104
93.9321
92.3586
90.7874
89.2193
87.6508
86.0834
84.5146
82.9452
81.3709
79.794
78.2119
76.6251
75.0302
73.429
71.8194
70.2021
68.5739
66.9372
65.2902
63.634
61.9661
60.2889
58.601
56.9039
55.195
53.4774
51.7499
50.0141
48.268
46.5144
44.7522
42.9832
41.2052
39.4213
37.6304
35.834
34.0308
32.2229
30.4096
28.5921
26.7692
24.9428
23.1123
21.2787
19.4412
17.6011
15.758
13.9124
12.0643
10.214
8.36182
6.50727
4.65206
2.79297
0.939956
214.553
210.232
208.231
206.442
204.729
203.031
201.365
199.739
198.145
196.579
195.04
193.533
192.063
190.629
189.215
187.791
186.322
184.776
183.134
181.392
179.56
177.653
175.688
173.678
171.639
169.582
167.516
165.445
163.378
161.319
159.271
157.234
155.213
153.208
151.221
149.249
147.296
145.361
143.445
141.545
139.664
137.8
135.953
134.122
132.308
130.509
128.727
126.957
125.204
123.463
121.737
120.022
118.32
116.63
114.952
113.283
111.626
109.978
108.34
106.71
105.089
103.475
101.87
100.27
98.6782
97.0911
95.5103
93.9319
92.3584
90.7873
89.2191
87.6506
86.0832
84.5145
82.945
81.3707
79.7938
78.2117
76.6249
75.03
73.4289
71.8192
70.202
68.5737
66.9371
65.2901
63.6339
61.966
60.2888
58.6009
56.9038
55.1949
53.4774
51.7498
50.014
48.268
46.5144
44.7522
42.9831
41.2052
39.4212
37.6303
35.834
34.0308
32.2229
30.4095
28.5921
26.7692
24.9427
23.1123
21.2787
19.4412
17.6011
15.758
13.9124
12.0643
10.214
8.36181
6.50725
4.65205
2.79296
0.93997
214.498
210.255
208.232
206.443
204.73
203.032
201.366
199.74
198.147
196.58
195.042
193.535
192.065
190.63
189.217
187.792
186.323
184.777
183.136
181.394
179.563
177.656
175.69
173.681
171.642
169.584
167.518
165.447
163.381
161.321
159.273
157.236
155.215
153.21
151.222
149.25
147.297
145.362
143.446
141.546
139.664
137.8
135.954
134.122
132.308
130.509
128.727
126.958
125.204
123.463
121.737
120.022
118.32
116.63
114.952
113.283
111.626
109.978
108.34
106.71
105.089
103.475
101.87
100.27
98.678
97.091
95.5101
93.9318
92.3582
90.7871
89.2189
87.6504
86.083
84.5143
82.9448
81.3706
79.7936
78.2115
76.6247
75.0298
73.4287
71.819
70.2018
68.5736
66.9369
65.2899
63.6337
61.9659
60.2887
58.6008
56.9037
55.1948
53.4772
51.7497
50.0139
48.2679
46.5143
44.7521
42.983
41.2051
39.4212
37.6303
35.8339
34.0307
32.2228
30.4095
28.592
26.7691
24.9427
23.1122
21.2786
19.4412
17.601
15.758
13.9124
12.0643
10.214
8.36179
6.50724
4.65203
2.79294
0.939904
214.434
210.281
208.233
206.444
204.731
203.033
201.367
199.74
198.147
196.581
195.043
193.536
192.067
190.632
189.218
187.793
186.324
184.778
183.137
181.396
179.565
177.658
175.694
173.684
171.645
169.588
167.522
165.451
163.384
161.324
159.275
157.238
155.217
153.212
151.224
149.252
147.299
145.363
143.447
141.547
139.665
137.801
135.955
134.123
132.309
130.51
128.727
126.958
125.204
123.464
121.738
120.022
118.321
116.63
114.952
113.283
111.626
109.978
108.34
106.71
105.089
103.475
101.87
100.27
98.6779
97.0908
95.5099
93.9316
92.358
90.7869
89.2188
87.6502
86.0828
84.5141
82.9445
81.3703
79.7934
78.2113
76.6244
75.0296
73.4285
71.8188
70.2016
68.5734
66.9367
65.2897
63.6335
61.9657
60.2885
58.6006
56.9035
55.1947
53.4771
51.7496
50.0138
48.2678
46.5142
44.752
42.9829
41.205
39.4211
37.6302
35.8339
34.0307
32.2228
30.4094
28.592
26.7691
24.9427
23.1122
21.2786
19.4412
17.601
15.7579
13.9123
12.0643
10.214
8.36177
6.50722
4.65201
2.79294
0.939905
214.361
210.312
208.235
206.445
204.732
203.033
201.367
199.741
198.148
196.582
195.044
193.537
192.068
190.633
189.219
187.794
186.325
184.779
183.138
181.397
179.567
177.661
175.697
173.687
171.649
169.591
167.525
165.454
163.387
161.327
159.279
157.241
155.22
153.214
151.226
149.254
147.301
145.365
143.448
141.548
139.667
137.802
135.956
134.124
132.31
130.511
128.728
126.959
125.205
123.464
121.738
120.023
118.321
116.63
114.952
113.283
111.626
109.978
108.34
106.71
105.089
103.475
101.87
100.27
98.6779
97.0908
95.5099
93.9315
92.3579
90.7868
89.2186
87.65
86.0826
84.5139
82.9443
81.3701
79.7932
78.2111
76.6242
75.0294
73.4282
71.8186
70.2013
68.5731
66.9364
65.2895
63.6333
61.9655
60.2883
58.6004
56.9033
55.1945
53.4769
51.7494
50.0136
48.2676
46.514
44.7519
42.9828
41.2049
39.421
37.6301
35.8338
34.0306
32.2227
30.4094
28.5919
26.769
24.9426
23.1122
21.2785
19.4411
17.601
15.7579
13.9123
12.0642
10.214
8.36174
6.5072
4.65198
2.79292
0.939804
214.277
210.347
208.236
206.447
204.734
203.034
201.368
199.741
198.148
196.582
195.044
193.538
192.069
190.634
189.219
187.794
186.324
184.778
183.138
181.398
179.568
177.663
175.699
173.691
171.653
169.595
167.529
165.458
163.391
161.331
159.282
157.245
155.223
153.217
151.229
149.257
147.303
145.368
143.451
141.55
139.669
137.804
135.958
134.126
132.311
130.512
128.729
126.96
125.206
123.465
121.739
120.024
118.322
116.631
114.953
113.284
111.626
109.978
108.341
106.71
105.089
103.475
101.87
100.27
98.6779
97.0908
95.5098
93.9315
92.3579
90.7867
89.2185
87.6499
86.0824
84.5137
82.9441
81.3699
79.793
78.2108
76.6239
75.0291
73.4279
71.8183
70.201
68.5728
66.9362
65.2892
63.633
61.9652
60.288
58.6002
56.903
55.1943
53.4767
51.7492
50.0134
48.2675
46.5138
44.7517
42.9826
41.2048
39.4208
37.63
35.8336
34.0305
32.2226
30.4093
28.5918
26.769
24.9425
23.1121
21.2785
19.4411
17.6009
15.7579
13.9122
12.0642
10.2139
8.36171
6.50717
4.65195
2.79291
0.939774
214.182
210.386
208.238
206.449
204.736
203.036
201.369
199.742
198.149
196.583
195.045
193.539
192.069
190.634
189.219
187.792
186.322
184.776
183.136
181.397
179.568
177.664
175.701
173.693
171.656
169.599
167.533
165.462
163.396
161.335
159.287
157.249
155.227
153.221
151.233
149.26
147.307
145.371
143.454
141.553
139.671
137.807
135.96
134.128
132.313
130.514
128.731
126.962
125.207
123.467
121.74
120.025
118.323
116.632
114.954
113.285
111.627
109.979
108.341
106.711
105.089
103.476
101.87
100.271
98.6782
97.0911
95.51
93.9316
92.358
90.7868
89.2185
87.6499
86.0824
84.5136
82.944
81.3698
79.7928
78.2106
76.6237
75.0289
73.4277
71.818
70.2007
68.5726
66.9359
65.2889
63.6327
61.9649
60.2877
58.5999
56.9027
55.194
53.4765
51.749
50.0131
48.2672
46.5136
44.7515
42.9824
41.2046
39.4207
37.6299
35.8335
34.0304
32.2225
30.4092
28.5917
26.7689
24.9425
23.112
21.2784
19.441
17.6008
15.7578
13.9122
12.0642
10.2139
8.36166
6.50713
4.6519
2.79289
0.939596
214.075
210.43
208.241
206.451
204.738
203.037
201.37
199.743
198.15
196.584
195.046
193.54
192.07
190.634
189.218
187.791
186.32
184.773
183.133
181.394
179.566
177.663
175.701
173.695
171.658
169.602
167.537
165.467
163.4
161.34
159.291
157.254
155.232
153.226
151.237
149.265
147.311
145.375
143.457
141.557
139.675
137.81
135.963
134.131
132.316
130.516
128.733
126.964
125.209
123.468
121.742
120.026
118.324
116.634
114.955
113.286
111.628
109.98
108.342
106.712
105.09
103.477
101.871
100.271
98.6788
97.0916
95.5104
93.932
92.3583
90.787
89.2187
87.6501
86.0825
84.5137
82.944
81.3697
79.7927
78.2105
76.6235
75.0287
73.4275
71.8178
70.2004
68.5723
66.9356
65.2886
63.6324
61.9646
60.2874
58.5996
56.9024
55.1937
53.4762
51.7487
50.0129
48.267
46.5134
44.7513
42.9822
41.2044
39.4205
37.6297
35.8333
34.0302
32.2223
30.409
28.5916
26.7688
24.9423
23.1119
21.2783
19.4409
17.6008
15.7577
13.9121
12.0641
10.2138
8.36162
6.50709
4.65185
2.79288
0.939474
213.958
210.478
208.244
206.453
204.741
203.039
201.371
199.744
198.151
196.585
195.047
193.541
192.071
190.635
189.217
187.789
186.317
184.77
183.13
181.391
179.563
177.661
175.7
173.694
171.658
169.603
167.539
165.47
163.404
161.344
159.296
157.259
155.237
153.231
151.242
149.269
147.315
145.379
143.462
141.561
139.679
137.814
135.966
134.134
132.319
130.52
128.736
126.967
125.212
123.471
121.744
120.029
118.326
116.636
114.957
113.288
111.63
109.982
108.344
106.713
105.092
103.478
101.872
100.272
98.6797
97.0925
95.5112
93.9328
92.3589
90.7876
89.2192
87.6505
86.0829
84.514
82.9442
81.37
79.7928
78.2106
76.6235
75.0287
73.4274
71.8177
70.2002
68.5721
66.9354
65.2884
63.6321
61.9644
60.2872
58.5993
56.9021
55.1935
53.4759
51.7485
50.0126
48.2668
46.5131
44.7511
42.9819
41.2042
39.4203
37.6295
35.8331
34.0301
32.2222
30.4089
28.5914
26.7686
24.9422
23.1118
21.2782
19.4408
17.6007
15.7577
13.9121
12.064
10.2138
8.36156
6.50705
4.65179
2.79286
0.939152
213.831
210.528
208.248
206.455
204.744
203.042
201.373
199.746
198.152
196.586
195.048
193.542
192.072
190.635
189.217
187.787
186.314
184.766
183.126
181.387
179.56
177.658
175.698
173.692
171.657
169.603
167.539
165.47
163.405
161.347
159.299
157.263
155.241
153.236
151.247
149.275
147.32
145.384
143.467
141.566
139.683
137.818
135.971
134.139
132.323
130.524
128.74
126.97
125.216
123.475
121.748
120.032
118.329
116.638
114.96
113.291
111.632
109.984
108.346
106.715
105.093
103.48
101.874
100.274
98.6813
97.0939
95.5125
93.9341
92.3601
90.7887
89.2201
87.6514
86.0837
84.5147
82.9448
81.3705
79.7933
78.211
76.6238
75.0289
73.4275
71.8178
70.2002
68.5721
66.9353
65.2883
63.6319
61.9642
60.287
58.5991
56.9019
55.1933
53.4757
51.7483
50.0123
48.2666
46.5129
44.7509
42.9817
41.2041
39.4201
37.6293
35.8329
34.0299
32.222
30.4088
28.5913
26.7685
24.9421
23.1117
21.2781
19.4408
17.6006
15.7576
13.912
12.064
10.2137
8.36151
6.50701
4.65173
2.79287
0.938829
213.698
210.579
208.253
206.456
204.747
203.044
201.375
199.747
198.153
196.587
195.05
193.544
192.074
190.636
189.216
187.786
186.311
184.762
183.122
181.383
179.557
177.656
175.696
173.691
171.656
169.602
167.539
165.47
163.405
161.347
159.3
157.264
155.243
153.238
151.25
149.279
147.325
145.389
143.472
141.571
139.689
137.823
135.976
134.144
132.328
130.528
128.745
126.975
125.22
123.479
121.752
120.036
118.333
116.642
114.963
113.294
111.636
109.987
108.349
106.718
105.096
103.482
101.876
100.276
98.6835
97.0961
95.5145
93.936
92.3619
90.7904
89.2217
87.6529
86.085
84.516
82.9459
81.3716
79.7942
78.2118
76.6245
75.0296
73.4281
71.8183
70.2006
68.5725
66.9356
65.2885
63.6321
61.9643
60.287
58.5992
56.9018
55.1933
53.4756
51.7482
50.0122
48.2665
46.5128
44.7508
42.9816
41.204
39.42
37.6292
35.8328
34.0298
32.2219
30.4087
28.5912
26.7685
24.942
23.1117
21.278
19.4407
17.6006
15.7575
13.9119
12.0639
10.2137
8.36148
6.50699
4.65168
2.79289
0.938225
213.563
210.628
208.26
206.457
204.75
203.047
201.377
199.749
198.155
196.589
195.051
193.545
192.075
190.637
189.216
187.784
186.308
184.758
183.118
181.38
179.554
177.653
175.694
173.69
171.656
169.602
167.538
165.471
163.406
161.347
159.3
157.264
155.244
153.239
151.251
149.28
147.326
145.391
143.474
141.574
139.693
137.828
135.981
134.149
132.334
130.534
128.75
126.98
125.225
123.484
121.756
120.04
118.338
116.646
114.967
113.298
111.64
109.991
108.353
106.722
105.1
103.486
101.88
100.28
98.6866
97.0991
95.5173
93.9388
92.3645
90.793
89.224
87.6552
86.0872
84.518
82.9477
81.3733
79.7958
78.2133
76.6258
75.0309
73.4292
71.8193
70.2015
68.5733
66.9363
65.2892
63.6326
61.9649
60.2875
58.5996
56.9021
55.1936
53.4758
51.7484
50.0124
48.2666
46.5129
44.7509
42.9816
41.2041
39.4201
37.6293
35.8328
34.0299
32.2219
30.4087
28.5912
26.7685
24.9421
23.1117
21.278
19.4407
17.6006
15.7576
13.9119
12.064
10.2137
8.36149
6.50701
4.65166
2.79295
0.937507
213.435
210.673
208.267
206.457
204.753
203.049
201.378
199.75
198.156
196.59
195.053
193.547
192.077
190.638
189.216
187.782
186.305
184.755
183.114
181.376
179.551
177.651
175.692
173.689
171.655
169.602
167.538
165.471
163.406
161.348
159.301
157.265
155.244
153.239
151.252
149.28
147.327
145.392
143.475
141.575
139.693
137.829
135.982
134.151
132.336
130.537
128.754
126.985
125.23
123.489
121.762
120.046
118.343
116.652
114.973
113.303
111.645
109.996
108.357
106.726
105.104
103.49
101.884
100.284
98.6906
97.103
95.5211
93.9425
92.3681
90.7964
89.2273
87.6584
86.0902
84.521
82.9504
81.376
79.7983
78.2157
76.628
75.0329
73.4311
71.8211
70.2031
68.5749
66.9377
65.2905
63.6338
61.966
60.2885
58.6005
56.9029
55.1944
53.4766
51.7491
50.013
48.2672
46.5135
44.7514
42.982
41.2045
39.4204
37.6296
35.8331
34.0302
32.2222
30.409
28.5914
26.7687
24.9423
23.1119
21.2782
19.4409
17.6007
15.7577
13.9121
12.0641
10.2138
8.36159
6.50712
4.65172
2.79307
0.936523
213.327
210.71
208.274
206.457
204.756
203.052
201.38
199.752
198.157
196.591
195.054
193.549
192.078
190.638
189.215
187.781
186.303
184.752
183.11
181.373
179.548
177.649
175.691
173.688
171.654
169.602
167.539
165.471
163.407
161.349
159.301
157.266
155.245
153.24
151.252
149.281
147.328
145.393
143.476
141.576
139.694
137.83
135.983
134.151
132.337
130.538
128.754
126.985
125.231
123.49
121.764
120.049
118.346
116.656
114.977
113.308
111.65
110.001
108.363
106.732
105.11
103.496
101.89
100.289
98.696
97.1082
95.526
93.9473
92.3727
90.8009
89.2316
87.6626
86.0942
84.5248
82.9541
81.3796
79.8018
78.2191
76.6312
75.036
73.4341
71.8239
70.2057
68.5774
66.9401
65.2928
63.6359
61.968
60.2903
58.6023
56.9045
55.1959
53.478
51.7504
50.0141
48.2684
46.5145
44.7523
42.9829
41.2053
39.4212
37.6304
35.8338
34.0308
32.2228
30.4095
28.5918
26.7692
24.9427
23.1123
21.2785
19.4412
17.601
15.758
13.9123
12.0643
10.214
8.3618
6.50732
4.65186
2.79326
0.935448
213.259
210.732
208.279
206.457
204.758
203.053
201.381
199.752
198.158
196.592
195.055
193.549
192.079
190.639
189.215
187.78
186.301
184.749
183.108
181.371
179.547
177.647
175.69
173.687
171.654
169.601
167.539
165.471
163.407
161.349
159.302
157.266
155.246
153.241
151.253
149.282
147.329
145.393
143.476
141.577
139.695
137.83
135.983
134.152
132.337
130.538
128.755
126.986
125.231
123.491
121.764
120.049
118.346
116.656
114.977
113.308
111.651
110.002
108.364
106.734
105.112
103.498
101.893
100.293
98.6999
97.1125
95.5306
93.9522
92.3778
90.8061
89.2368
87.6678
86.0994
84.53
82.9591
81.3845
79.8065
78.2236
76.6354
75.0401
73.4379
71.8276
70.2091
68.5807
66.9431
65.2956
63.6385
61.9705
60.2926
58.6044
56.9065
55.1978
53.4797
51.752
50.0156
48.2697
46.5158
44.7535
42.9839
41.2063
39.4221
37.6312
35.8345
34.0316
32.2234
30.4101
28.5924
26.7697
24.9432
23.1127
21.2789
19.4416
17.6014
15.7583
13.9126
12.0646
10.2143
8.36203
6.50755
4.65204
2.79345
0.93463
213.259
210.732
208.279
206.457
204.758
203.053
201.381
199.752
198.158
196.592
195.055
193.55
192.079
190.639
189.215
187.78
186.301
184.749
183.108
181.371
179.546
177.647
175.69
173.687
171.654
169.601
167.539
165.471
163.407
161.349
159.302
157.266
155.246
153.241
151.253
149.282
147.329
145.393
143.476
141.577
139.695
137.83
135.983
134.152
132.337
130.538
128.755
126.986
125.231
123.491
121.764
120.049
118.346