/*--------------------------------*- C++ -*----------------------------------*\
  =========                 |
  \\      /  F ield         | OpenFOAM: The Open Source CFD Toolbox
   \\    /   O peration     | Website:  https://openfoam.org
    \\  /    A nd           | Version:  8
     \\/     M anipulation  |
\*---------------------------------------------------------------------------*/
FoamFile
{
    version     2.0;
    format      ascii;
    class       surfaceScalarField;
    location    "350";
    object      phi;
}
// * * * * * * * * * * * * * * * * * * * * * * * * * * * * * * * * * * * * * //

dimensions      [0 3 -1 0 0 0 0];

internalField   nonuniform List<scalar> 
14458
(
0.00222126
0.00139916
0.00205682
0.000164524
0.00198941
6.75492e-05
0.00194725
4.22973e-05
0.0019167
3.06849e-05
0.00189296
2.38691e-05
0.00187368
1.94484e-05
0.00185757
1.6246e-05
0.00184382
1.38666e-05
0.00183193
1.19762e-05
0.00182163
1.05365e-05
0.00181293
8.87668e-06
0.00180602
7.05939e-06
0.00180102
5.07785e-06
0.00179784
3.37214e-06
0.00179602
1.92988e-06
0.00179496
1.12736e-06
0.00179408
8.61444e-07
0.00179308
1.25683e-06
0.00179184
1.4048e-06
0.00179041
1.52789e-06
0.00178888
1.54072e-06
0.00178736
1.69563e-06
0.00178591
1.52606e-06
0.00178459
1.32236e-06
0.00178342
1.07921e-06
0.00178242
1.22623e-06
0.00178161
9.4817e-07
0.00178098
6.87792e-07
0.00178052
4.20375e-07
0.00178022
4.33244e-07
0.00178009
1.73558e-07
0.0017801
-5.70941e-08
0.00178025
-2.87395e-07
0.00178053
-8.92282e-08
0.00178093
-3.13365e-07
0.00178145
-5.06846e-07
0.00178208
-7.07886e-07
0.0017828
-6.19241e-07
0.00178362
-8.14077e-07
0.00178453
-9.77538e-07
0.00178552
-1.14917e-06
0.00178658
-9.04058e-07
0.00178772
-1.07672e-06
0.00178893
-1.21852e-06
0.00179021
-1.37508e-06
0.00179154
-1.25152e-06
0.00179294
-1.40705e-06
0.00179439
-1.53083e-06
0.00179588
-1.66825e-06
0.00179743
-1.40605e-06
0.00179902
-1.54685e-06
0.00180065
-1.65498e-06
0.00180232
-1.78124e-06
0.00180402
-1.63172e-06
0.00180575
-1.75666e-06
0.00180751
-1.8473e-06
0.00180928
-1.95308e-06
0.00181107
-1.66427e-06
0.00181288
-1.77072e-06
0.00181469
-1.84109e-06
0.0018165
-1.92959e-06
0.0018183
-1.7482e-06
0.0018201
-1.83106e-06
0.00182188
-1.87647e-06
0.00182362
-1.93692e-06
0.00182534
-1.61316e-06
0.00182703
-1.67204e-06
0.00182868
-1.69342e-06
0.00183028
-1.73502e-06
0.00183182
-1.50958e-06
0.00183332
-1.54904e-06
0.00183476
-1.5529e-06
0.00183613
-1.57647e-06
0.00183744
-1.22244e-06
0.0018387
-1.25298e-06
0.00183989
-1.25021e-06
0.00184101
-1.27349e-06
0.00184207
-1.041e-06
0.00184307
-1.07132e-06
0.00184402
-1.07026e-06
0.00184489
-1.09322e-06
0.00184572
-7.53669e-07
0.00184649
-7.89734e-07
0.00184721
-7.95425e-07
0.00184788
-8.29454e-07
0.0018485
-6.16882e-07
0.00184908
-6.60562e-07
0.00184962
-6.74447e-07
0.00185011
-7.12372e-07
0.00185057
-4.05696e-07
0.001851
-4.56022e-07
0.0018514
-4.7732e-07
0.00185176
-5.25363e-07
0.0018521
-3.50212e-07
0.00185242
-4.05193e-07
0.00185271
-4.31625e-07
0.00185297
-4.7923e-07
0.00185322
-2.34626e-07
0.00185345
-2.89438e-07
0.00185366
-3.17047e-07
0.00185385
-3.66755e-07
0.00185403
-2.34022e-07
0.0018542
-2.85258e-07
0.00185435
-3.1118e-07
0.0018545
-3.52689e-07
0.00185463
-1.89994e-07
0.00185475
-2.31283e-07
0.00185486
-2.50335e-07
0.00185497
-2.83457e-07
0.00185506
-2.12503e-07
0.00185515
-2.40052e-07
0.00185524
-2.48519e-07
0.00185531
-2.65261e-07
0.00185538
-2.30364e-07
0.00185545
-2.3726e-07
0.00185551
-2.27269e-07
0.00185557
-2.23691e-07
0.00185562
-2.3702e-07
0.00185567
-2.18635e-07
0.00185571
-6.91392e-08
-3.04196e-08
0.00311151
0.00259591
0.00288393
0.000392159
0.00278398
0.000167582
0.00272313
0.00010322
0.00267979
7.41064e-05
0.00264639
5.73343e-05
0.00261942
4.65177e-05
0.00259696
3.87877e-05
0.00257784
3.30533e-05
0.00256134
2.85144e-05
0.00254714
2.48751e-05
0.00253524
2.08742e-05
0.00252587
1.65099e-05
0.00251915
1.18423e-05
0.00251484
7.78759e-06
0.00251227
4.56251e-06
0.00251059
2.84866e-06
0.00250906
2.37985e-06
0.00250731
3.14664e-06
0.00250526
3.54571e-06
0.002503
3.84353e-06
0.00250067
3.8803e-06
0.0024984
4.06099e-06
0.00249629
3.67571e-06
0.0024944
3.2085e-06
0.00249276
2.66683e-06
0.00249139
2.72852e-06
0.00249029
2.12183e-06
0.00248946
1.55425e-06
0.00248887
9.85944e-07
0.00248851
8.6374e-07
0.00248838
3.20905e-07
0.00248847
-1.63491e-07
0.00248873
-6.34548e-07
0.00248918
-4.3036e-07
0.0024898
-8.83931e-07
0.00249058
-1.27834e-06
0.0024915
-1.67549e-06
0.00249256
-1.61617e-06
0.00249374
-1.99753e-06
0.00249505
-2.32231e-06
0.00249646
-2.65108e-06
0.00249797
-2.32748e-06
0.00249959
-2.65799e-06
0.0025013
-2.93358e-06
0.00250309
-3.22558e-06
0.00250497
-3.07921e-06
0.00250692
-3.36837e-06
0.00250895
-3.60308e-06
0.00251104
-3.8515e-06
0.00251318
-3.47571e-06
0.00251539
-3.73139e-06
0.00251766
-3.93059e-06
0.00251996
-4.15129e-06
0.00252231
-3.94067e-06
0.0025247
-4.15762e-06
0.00252712
-4.31601e-06
0.00252955
-4.48924e-06
0.002532
-4.04522e-06
0.00253447
-4.21898e-06
0.00253695
-4.32976e-06
0.00253941
-4.46042e-06
0.00254186
-4.16762e-06
0.0025443
-4.28467e-06
0.0025467
-4.33711e-06
0.00254906
-4.40347e-06
0.00255138
-3.86859e-06
0.00255365
-3.93115e-06
0.00255586
-3.92917e-06
0.002558
-3.95144e-06
0.00256007
-3.55663e-06
0.00256207
-3.57466e-06
0.00256398
-3.53389e-06
0.00256581
-3.51747e-06
0.00256755
-2.91389e-06
0.00256922
-2.91421e-06
0.0025708
-2.8605e-06
0.00257228
-2.84404e-06
0.00257369
-2.43199e-06
0.00257501
-2.43291e-06
0.00257626
-2.38508e-06
0.00257741
-2.37156e-06
0.0025785
-1.79715e-06
0.00257952
-1.81479e-06
0.00258046
-1.78511e-06
0.00258134
-1.79797e-06
0.00258216
-1.43073e-06
0.00258293
-1.46713e-06
0.00258364
-1.45806e-06
0.00258429
-1.4839e-06
0.00258489
-9.76617e-07
0.00258545
-1.03224e-06
0.00258597
-1.04257e-06
0.00258645
-1.09299e-06
0.0025869
-7.98954e-07
0.00258731
-8.67185e-07
0.00258769
-8.91272e-07
0.00258804
-9.45993e-07
0.00258836
-5.47853e-07
0.00258866
-6.21747e-07
0.00258894
-6.52839e-07
0.0025892
-7.16692e-07
0.00258943
-4.9823e-07
0.00258965
-5.69345e-07
0.00258986
-6.01385e-07
0.00259004
-6.55416e-07
0.00259022
-3.91272e-07
0.00259038
-4.49986e-07
0.00259053
-4.74937e-07
0.00259066
-5.19433e-07
0.00259079
-4.01374e-07
0.00259091
-4.39714e-07
0.00259102
-4.52973e-07
0.00259112
-4.74091e-07
0.00259121
-4.0539e-07
0.0025913
-4.12511e-07
0.00259138
-4.04728e-07
0.00259146
-3.9594e-07
0.00259153
-4.06616e-07
0.00259159
-3.72308e-07
0.00259165
-3.33338e-07
-2.63303e-07
0.00403426
0.00368846
0.00373891
0.000687545
0.00360102
0.000305539
0.00351839
0.000185899
0.00346049
0.000132062
0.00341634
0.000101538
0.00338091
8.20167e-05
0.00335153
6.82215e-05
0.00332661
5.80172e-05
0.00330521
4.99521e-05
0.00328688
4.32933e-05
0.00327164
3.6183e-05
0.0032597
2.85065e-05
0.0032511
2.04716e-05
0.00324542
1.35453e-05
0.00324173
8.29799e-06
0.00323895
5.64873e-06
0.00323626
5.06669e-06
0.00323327
6.23073e-06
0.00322996
6.91842e-06
0.00322648
7.36051e-06
0.00322303
7.33897e-06
0.00321977
7.38322e-06
0.00321682
6.65502e-06
0.00321423
5.79716e-06
0.00321203
4.83841e-06
0.00321022
4.62184e-06
0.0032088
3.58839e-06
0.00320775
2.62794e-06
0.00320703
1.68566e-06
0.00320664
1.31033e-06
0.00320654
4.28577e-07
0.00320672
-3.573e-07
0.00320715
-1.10805e-06
0.0032078
-1.01728e-06
0.00320868
-1.73065e-06
0.00320976
-2.35125e-06
0.00321102
-2.96406e-06
0.00321244
-3.00595e-06
0.00321404
-3.58855e-06
0.00321578
-4.08664e-06
0.00321765
-4.5804e-06
0.00321965
-4.268e-06
0.00322177
-4.76259e-06
0.00322401
-5.17601e-06
0.00322636
-5.60392e-06
0.00322879
-5.48728e-06
0.00323133
-5.90905e-06
0.00323395
-6.25237e-06
0.00323664
-6.60603e-06
0.00323941
-6.18973e-06
0.00324224
-6.55396e-06
0.00324514
-6.83625e-06
0.00324809
-7.13976e-06
0.00325108
-6.90724e-06
0.00325411
-7.20286e-06
0.00325718
-7.41424e-06
0.00326026
-7.63629e-06
0.00326336
-7.09561e-06
0.00326647
-7.31662e-06
0.00326957
-7.44603e-06
0.00327266
-7.59282e-06
0.00327573
-7.21159e-06
0.00327876
-7.33473e-06
0.00328176
-7.36526e-06
0.00328469
-7.40451e-06
0.00328756
-6.70075e-06
0.00329037
-6.73348e-06
0.00329309
-6.67414e-06
0.00329573
-6.63948e-06
0.00329828
-6.0879e-06
0.00330073
-6.04737e-06
0.00330308
-5.92562e-06
0.00330532
-5.83008e-06
0.00330745
-5.0147e-06
0.00330948
-4.94808e-06
0.00331141
-4.80787e-06
0.00331322
-4.71373e-06
0.00331493
-4.13485e-06
0.00331655
-4.07139e-06
0.00331806
-3.94393e-06
0.00331947
-3.85913e-06
0.00332079
-3.09111e-06
0.00332202
-3.05931e-06
0.00332318
-2.9651e-06
0.00332425
-2.92558e-06
0.00332524
-2.42249e-06
0.00332617
-2.42375e-06
0.00332703
-2.36605e-06
0.00332782
-2.35239e-06
0.00332855
-1.6903e-06
0.00332923
-1.72743e-06
0.00332987
-1.70479e-06
0.00333045
-1.73347e-06
0.00333099
-1.3419e-06
0.00333149
-1.40212e-06
0.00333195
-1.40489e-06
0.00333237
-1.44583e-06
0.00333276
-9.35739e-07
0.00333313
-1.01091e-06
0.00333347
-1.02944e-06
0.00333378
-1.08953e-06
0.00333407
-8.04946e-07
0.00333433
-8.80594e-07
0.00333458
-9.0492e-07
0.00333481
-9.56931e-07
0.00333502
-6.22646e-07
0.00333521
-6.87066e-07
0.0033354
-7.05998e-07
0.00333556
-7.50907e-07
0.00333572
-5.98385e-07
0.00333586
-6.39088e-07
0.003336
-6.4371e-07
0.00333612
-6.62551e-07
0.00333623
-5.80432e-07
0.00333634
-5.83759e-07
0.00333644
-5.59473e-07
0.00333653
-5.43487e-07
0.00333661
-5.59106e-07
0.00333669
-5.0705e-07
0.00333677
-3.00339e-07
-1.73595e-07
0.0050952
0.00469417
0.00472973
0.00105306
0.00454514
0.00049019
0.00443473
0.000296369
0.0043584
0.000208446
0.00430081
0.00015917
0.00425495
0.000127947
0.00421712
0.000106102
0.00418518
8.99999e-05
0.00415788
7.72847e-05
0.00413464
6.66188e-05
0.00411543
5.54587e-05
0.00410039
4.3599e-05
0.0040894
3.14941e-05
0.00408174
2.12666e-05
0.00407622
1.38562e-05
0.00407156
1.03342e-05
0.00406686
9.76039e-06
0.00406179
1.13867e-05
0.00405645
1.23177e-05
0.00405109
1.27639e-05
0.00404595
1.24786e-05
0.00404124
1.2153e-05
0.00403707
1.08432e-05
0.0040335
9.37132e-06
0.00403051
7.78959e-06
0.00402811
7.10949e-06
0.00402626
5.48474e-06
0.00402491
3.99077e-06
0.00402403
2.5501e-06
0.00402358
1.8121e-06
0.00402352
4.95575e-07
0.00402383
-6.72615e-07
0.00402444
-1.77483e-06
0.00402535
-1.86324e-06
0.00402655
-2.89366e-06
0.00402799
-3.78862e-06
0.00402966
-4.6602e-06
0.00403153
-4.844e-06
0.00403361
-5.66307e-06
0.00403586
-6.36465e-06
0.00403827
-7.05012e-06
0.00404084
-6.77634e-06
0.00404355
-7.4579e-06
0.00404641
-8.02825e-06
0.00404937
-8.60832e-06
0.00405246
-8.53885e-06
0.00405565
-9.10656e-06
0.00405894
-9.56951e-06
0.00406231
-1.00366e-05
0.00406576
-9.59021e-06
0.00406929
-1.00692e-05
0.00407288
-1.04383e-05
0.00407653
-1.08251e-05
0.00408022
-1.05731e-05
0.00408395
-1.09454e-05
0.00408771
-1.12061e-05
0.00409148
-1.14699e-05
0.00409526
-1.08279e-05
0.00409904
-1.1087e-05
0.00410281
-1.12237e-05
0.00410655
-1.1372e-05
0.00411025
-1.08901e-05
0.0041139
-1.10028e-05
0.0041175
-1.09937e-05
0.00412102
-1.09855e-05
0.00412445
-1.0096e-05
0.0041278
-1.00781e-05
0.00413105
-9.9396e-06
0.00413419
-9.82414e-06
0.00413721
-9.09585e-06
0.00414012
-8.9737e-06
0.0041429
-8.74839e-06
0.00414555
-8.54967e-06
0.00414808
-7.50314e-06
0.00415047
-7.3475e-06
0.00415275
-7.09907e-06
0.00415489
-6.90456e-06
0.0041569
-6.14102e-06
0.0041588
-5.9933e-06
0.00416058
-5.76767e-06
0.00416224
-5.59239e-06
0.00416379
-4.61652e-06
0.00416525
-4.51908e-06
0.00416661
-4.34497e-06
0.00416786
-4.23699e-06
0.00416903
-3.5866e-06
0.00417012
-3.53953e-06
0.00417113
-3.4215e-06
0.00417206
-3.35587e-06
0.00417292
-2.53066e-06
0.00417373
-2.53952e-06
0.00417447
-2.47486e-06
0.00417516
-2.47196e-06
0.00417579
-1.97674e-06
0.00417638
-2.02134e-06
0.00417692
-1.99613e-06
0.00417742
-2.01599e-06
0.00417788
-1.38937e-06
0.00417831
-1.46046e-06
0.00417871
-1.46165e-06
0.00417908
-1.51238e-06
0.00417941
-1.15842e-06
0.00417973
-1.23456e-06
0.00418002
-1.24842e-06
0.00418029
-1.29449e-06
0.00418053
-8.85669e-07
0.00418077
-9.5312e-07
0.00418098
-9.65677e-07
0.00418118
-1.00817e-06
0.00418136
-8.17381e-07
0.00418153
-8.58482e-07
0.00418169
-8.59819e-07
0.00418184
-8.74922e-07
0.00418197
-7.63029e-07
0.0041821
-7.61606e-07
0.00418222
-7.36607e-07
0.00418233
-7.12949e-07
0.00418243
-7.20707e-07
0.00418252
-6.5055e-07
0.00418261
-5.66749e-07
-4.10591e-07
0.00634386
0.0056104
0.0059098
0.00148715
0.00566911
0.000730937
0.00552325
0.000442281
0.00542323
0.000308519
0.00534848
0.000233954
0.00528941
0.000187082
0.00524096
0.000154592
0.00520026
0.000130739
0.00516564
0.000111927
0.00513634
9.5991e-05
0.00511221
7.96466e-05
0.00509323
6.26234e-05
0.00507901
4.57389e-05
0.00506849
3.18481e-05
0.00506012
2.22554e-05
0.00505245
1.80266e-05
0.00504458
1.76262e-05
0.00503632
1.97223e-05
0.00502791
2.07697e-05
0.00501974
2.09643e-05
0.00501214
2.00837e-05
0.00500533
1.9011e-05
0.00499942
1.67703e-05
0.00499443
1.43632e-05
0.00499033
1.18704e-05
0.00498706
1.0437e-05
0.00498458
8.00087e-06
0.0049828
5.78622e-06
0.00498165
3.68595e-06
0.00498108
2.42484e-06
0.00498103
5.55195e-07
0.00498144
-1.09432e-06
0.00498226
-2.63373e-06
0.00498346
-3.01186e-06
0.00498501
-4.42312e-06
0.00498687
-5.64459e-06
0.00498901
-6.82075e-06
0.00499141
-7.20823e-06
0.00499404
-8.29807e-06
0.00499689
-9.22993e-06
0.00499993
-1.01313e-05
0.00500315
-9.95245e-06
0.00500654
-1.08388e-05
0.00501009
-1.15779e-05
0.00501378
-1.23207e-05
0.00501759
-1.23277e-05
0.00502152
-1.30477e-05
0.00502557
-1.36316e-05
0.0050297
-1.42132e-05
0.00503391
-1.37698e-05
0.00503822
-1.43611e-05
0.00504258
-1.48093e-05
0.005047
-1.52715e-05
0.00505145
-1.5011e-05
0.00505595
-1.54487e-05
0.00506046
-1.57429e-05
0.00506498
-1.60329e-05
0.00506949
-1.5306e-05
0.00507399
-1.55847e-05
0.00507847
-1.57057e-05
0.0050829
-1.58325e-05
0.00508727
-1.52458e-05
0.00509158
-1.53234e-05
0.00509581
-1.52469e-05
0.00509994
-1.51641e-05
0.00510396
-1.40938e-05
0.00510788
-1.39973e-05
0.00511168
-1.37486e-05
0.00511534
-1.35224e-05
0.00511886
-1.26077e-05
0.00512225
-1.23749e-05
0.00512549
-1.20149e-05
0.00512857
-1.16838e-05
0.0051315
-1.04102e-05
0.00513429
-1.01375e-05
0.00513692
-9.75069e-06
0.00513941
-9.42764e-06
0.00514174
-8.47222e-06
0.00514395
-8.21459e-06
0.00514601
-7.86409e-06
0.00514794
-7.57396e-06
0.00514974
-6.39936e-06
0.00515142
-6.21404e-06
0.005153
-5.93626e-06
0.00515446
-5.73813e-06
0.00515581
-4.93974e-06
0.00515707
-4.82529e-06
0.00515825
-4.62688e-06
0.00515933
-4.49155e-06
0.00516033
-3.51814e-06
0.00516126
-3.48302e-06
0.00516213
-3.35931e-06
0.00516292
-3.30961e-06
0.00516366
-2.7147e-06
0.00516434
-2.73056e-06
0.00516497
-2.66352e-06
0.00516555
-2.65013e-06
0.00516609
-1.92286e-06
0.00516659
-1.97925e-06
0.00516705
-1.95139e-06
0.00516748
-1.9825e-06
0.00516787
-1.56497e-06
0.00516824
-1.63298e-06
0.00516858
-1.62663e-06
0.00516889
-1.6589e-06
0.00516917
-1.18948e-06
0.00516944
-1.25335e-06
0.0051697
-1.25051e-06
0.00516993
-1.28446e-06
0.00517014
-1.06071e-06
0.00517034
-1.09738e-06
0.00517052
-1.08389e-06
0.0051707
-1.09128e-06
0.00517085
-9.66504e-07
0.005171
-9.57493e-07
0.00517114
-9.13192e-07
0.00517127
-8.79626e-07
0.00517139
-8.89296e-07
0.00517149
-7.96923e-07
0.00517161
-5.51966e-07
-3.24349e-07
0.00782497
0.00642494
0.00732967
0.0019825
0.0070238
0.00103687
0.00683325
0.000632891
0.0067027
0.000439118
0.00660584
0.000330858
0.00652982
0.000263166
0.00646784
0.000216614
0.00641604
0.000182581
0.0063722
0.000155791
0.00633526
0.000133008
0.00630487
0.000110096
0.00628075
8.67883e-05
0.00626212
6.43919e-05
0.00624746
4.65709e-05
0.00623486
3.48905e-05
0.0062227
3.02128e-05
0.00621014
3.01732e-05
0.00619721
3.27354e-05
0.00618437
3.36494e-05
0.00617219
3.31777e-05
0.00616108
3.11941e-05
0.00615129
2.88564e-05
0.0061429
2.51752e-05
0.00613589
2.13715e-05
0.00613018
1.75535e-05
0.00612567
1.50211e-05
0.00612224
1.14589e-05
0.00611979
8.25767e-06
0.00611819
5.26607e-06
0.00611736
3.29394e-06
0.00611723
7.00253e-07
0.0061177
-1.57354e-06
0.0061187
-3.67666e-06
0.00612018
-4.43883e-06
0.0061221
-6.32578e-06
0.00612442
-7.95214e-06
0.00612707
-9.50316e-06
0.00613004
-1.0146e-05
0.0061333
-1.15602e-05
0.00613682
-1.27666e-05
0.00614057
-1.39243e-05
0.00614453
-1.38623e-05
0.00614869
-1.49843e-05
0.00615303
-1.59159e-05
0.00615752
-1.68429e-05
0.00616215
-1.69363e-05
0.00616692
-1.78236e-05
0.00617181
-1.85391e-05
0.00617679
-1.92444e-05
0.00618186
-1.87986e-05
0.00618701
-1.95064e-05
0.00619224
-2.00337e-05
0.0061975
-2.05693e-05
0.0062028
-2.02886e-05
0.00620813
-2.0786e-05
0.00621347
-2.11051e-05
0.00621879
-2.14116e-05
0.0062241
-2.05769e-05
0.00622939
-2.08626e-05
0.00623463
-2.09518e-05
0.0062398
-2.10404e-05
0.0062449
-2.03244e-05
0.00624991
-2.03486e-05
0.00625482
-2.01847e-05
0.00625961
-2.00078e-05
0.00626428
-1.87257e-05
0.00626881
-1.85302e-05
0.0062732
-1.81488e-05
0.00627743
-1.77898e-05
0.0062815
-1.66602e-05
0.0062854
-1.62954e-05
0.00628914
-1.57789e-05
0.00629269
-1.52944e-05
0.00629607
-1.37621e-05
0.00629929
-1.33518e-05
0.00630233
-1.28049e-05
0.00630519
-1.23326e-05
0.00630789
-1.1159e-05
0.00631042
-1.07729e-05
0.00631281
-1.02792e-05
0.00631503
-9.85758e-06
0.00631711
-8.45731e-06
0.00631906
-8.16888e-06
0.00632088
-7.77151e-06
0.00632257
-7.46858e-06
0.00632413
-6.50197e-06
0.00632559
-6.30789e-06
0.00632695
-6.01726e-06
0.0063282
-5.80195e-06
0.00632936
-4.65979e-06
0.00633044
-4.57189e-06
0.00633144
-4.37976e-06
0.00633236
-4.27507e-06
0.00633322
-3.5668e-06
0.00633401
-3.54763e-06
0.00633474
-3.43235e-06
0.00633542
-3.38076e-06
0.00633604
-2.53834e-06
0.00633662
-2.57602e-06
0.00633716
-2.5145e-06
0.00633765
-2.52226e-06
0.0063381
-2.03223e-06
0.00633853
-2.08953e-06
0.00633893
-2.06083e-06
0.00633929
-2.07747e-06
0.00633962
-1.53632e-06
0.00633994
-1.59517e-06
0.00634023
-1.57704e-06
0.0063405
-1.60099e-06
0.00634074
-1.33719e-06
0.00634098
-1.36838e-06
0.00634119
-1.34621e-06
0.00634139
-1.34545e-06
0.00634158
-1.18844e-06
0.00634175
-1.17142e-06
0.00634192
-1.1247e-06
0.00634207
-1.08102e-06
0.00634221
-1.07867e-06
0.00634233
-9.6419e-07
0.00634247
-8.68595e-07
-6.14133e-07
0.00958314
0.00712283
0.00904305
0.00252263
0.00866537
0.00141461
0.00841971
0.000878607
0.00825011
0.00060877
0.00812468
0.000456321
0.0080268
0.00036111
0.00794743
0.000296021
0.00788143
0.000248626
0.00782583
0.000211418
0.00777913
0.000179772
0.00774067
0.000148609
0.00770977
0.000117732
0.00768512
8.90631e-05
0.00766464
6.71072e-05
0.007646
5.35614e-05
0.00762744
4.87992e-05
0.00760826
4.93441e-05
0.00758878
5.22808e-05
0.00756978
5.26904e-05
0.00755202
5.09678e-05
0.00753603
4.71865e-05
0.00752207
4.28534e-05
0.00751021
3.705e-05
0.00750036
3.12325e-05
0.00749235
2.55419e-05
0.00748602
2.14061e-05
0.00748119
1.63081e-05
0.0074777
1.1772e-05
0.00747536
7.59067e-06
0.00747405
4.63723e-06
0.00747365
1.10384e-06
0.00747405
-1.97557e-06
0.00747514
-4.79905e-06
0.00747685
-6.1072e-06
0.00747913
-8.58303e-06
0.00748189
-1.07078e-05
0.00748508
-1.27151e-05
0.00748866
-1.36991e-05
0.00749259
-1.54962e-05
0.00749684
-1.70237e-05
0.00750136
-1.84794e-05
0.00750613
-1.85969e-05
0.00751114
-1.99828e-05
0.00751635
-2.11265e-05
0.00752174
-2.22547e-05
0.00752729
-2.2463e-05
0.00753298
-2.35265e-05
0.00753881
-2.43759e-05
0.00754473
-2.52069e-05
0.00755075
-2.47844e-05
0.00755685
-2.56043e-05
0.00756301
-2.61999e-05
0.00756921
-2.67982e-05
0.00757544
-2.65e-05
0.00758169
-2.7042e-05
0.00758794
-2.7366e-05
0.00759415
-2.76706e-05
0.00760034
-2.67349e-05
0.00760649
-2.70055e-05
0.00761257
-2.70366e-05
0.00761856
-2.70619e-05
0.00762446
-2.62058e-05
0.00763025
-2.61505e-05
0.00763591
-2.587e-05
0.00764144
-2.55723e-05
0.00764681
-2.4077e-05
0.00765203
-2.37546e-05
0.00765709
-2.32091e-05
0.00766195
-2.2688e-05
0.00766663
-2.13293e-05
0.00767113
-2.08036e-05
0.00767542
-2.00992e-05
0.00767952
-1.94329e-05
0.00768342
-1.76392e-05
0.00768712
-1.70621e-05
0.00769063
-1.63232e-05
0.00769393
-1.56724e-05
0.00769705
-1.42667e-05
0.00769998
-1.37246e-05
0.00770274
-1.30585e-05
0.00770531
-1.24797e-05
0.00770772
-1.08544e-05
0.00770998
-1.04379e-05
0.00771209
-9.89398e-06
0.00771405
-9.46238e-06
0.00771587
-8.31954e-06
0.00771756
-8.02423e-06
0.00771914
-7.61858e-06
0.0077206
-7.3041e-06
0.00772195
-5.99996e-06
0.00772321
-5.84131e-06
0.00772437
-5.56119e-06
0.00772545
-5.38488e-06
0.00772644
-4.56132e-06
0.00772736
-4.49249e-06
0.00772822
-4.31351e-06
0.007729
-4.21103e-06
0.00772973
-3.26329e-06
0.0077304
-3.2705e-06
0.00773103
-3.16227e-06
0.00773161
-3.13601e-06
0.00773214
-2.57536e-06
0.00773264
-2.61279e-06
0.0077331
-2.55127e-06
0.00773352
-2.54444e-06
0.00773391
-1.94221e-06
0.00773428
-1.98893e-06
0.00773462
-1.94568e-06
0.00773493
-1.9533e-06
0.00773522
-1.65333e-06
0.0077355
-1.67373e-06
0.00773575
-1.63023e-06
0.00773599
-1.61644e-06
0.00773621
-1.44651e-06
0.00773641
-1.41744e-06
0.0077366
-1.34756e-06
0.00773678
-1.28933e-06
0.00773695
-1.28949e-06
0.0077371
-1.14251e-06
0.00773727
-8.87337e-07
-4.80577e-07
0.0116649
0.00769234
0.0111083
0.00307929
0.0106582
0.00186478
0.0103471
0.00118983
0.0101283
0.000827626
0.00996613
0.000618497
0.00984
0.000487301
0.0097382
0.000397876
0.0096539
0.000332963
0.00958317
0.000282171
0.0095239
0.000239122
0.00947493
0.000197636
0.00943504
0.000157671
0.00940224
0.000121882
0.00937377
9.56421e-05
0.00934681
8.05479e-05
0.00931948
7.6153e-05
0.00929129
7.75281e-05
0.00926292
8.07265e-05
0.00923554
8.01105e-05
0.0092102
7.6348e-05
0.00918754
6.98363e-05
0.00916788
6.25662e-05
0.00915122
5.37273e-05
0.00913738
4.50704e-05
0.00912613
3.67693e-05
0.00911719
3.04107e-05
0.0091103
2.32203e-05
0.00910522
1.68778e-05
0.00910169
1.10975e-05
0.00909954
6.8287e-06
0.00909859
2.05642e-06
0.00909869
-2.07986e-06
0.0090997
-5.84547e-06
0.00910151
-7.86721e-06
0.00910404
-1.10952e-05
0.00910719
-1.38533e-05
0.00911089
-1.6437e-05
0.00911507
-1.78508e-05
0.00911969
-2.01199e-05
0.0091247
-2.20413e-05
0.00913003
-2.38618e-05
0.00913568
-2.41953e-05
0.0091416
-2.58934e-05
0.00914776
-2.72859e-05
0.00915412
-2.86488e-05
0.00916067
-2.89864e-05
0.00916739
-3.02482e-05
0.00917424
-3.12461e-05
0.00918121
-3.22173e-05
0.00918827
-3.18089e-05
0.00919542
-3.27472e-05
0.00920263
-3.34101e-05
0.00920987
-3.40699e-05
0.00921712
-3.37374e-05
0.00922439
-3.43175e-05
0.00923164
-3.46357e-05
0.00923885
-3.49293e-05
0.00924602
-3.38628e-05
0.00925312
-3.41058e-05
0.00926014
-3.40613e-05
0.00926706
-3.40073e-05
0.00927385
-3.29825e-05
0.00928052
-3.28303e-05
0.00928704
-3.24134e-05
0.0092934
-3.19782e-05
0.00929959
-3.02343e-05
0.0093056
-2.97663e-05
0.00931142
-2.90342e-05
0.00931702
-2.83305e-05
0.00932242
-2.67102e-05
0.0093276
-2.60025e-05
0.00933256
-2.50869e-05
0.0093373
-2.42186e-05
0.00934181
-2.21244e-05
0.0093461
-2.13585e-05
0.00935017
-2.04018e-05
0.00935401
-1.95491e-05
0.00935763
-1.7877e-05
0.00936104
-1.71565e-05
0.00936425
-1.62944e-05
0.00936726
-1.55387e-05
0.00937008
-1.36508e-05
0.00937272
-1.30868e-05
0.00937518
-1.23742e-05
0.00937748
-1.1795e-05
0.00937961
-1.04466e-05
0.0093816
-1.00332e-05
0.00938345
-9.49501e-06
0.00938516
-9.06791e-06
0.00938674
-7.57142e-06
0.00938822
-7.32966e-06
0.0093896
-6.94721e-06
0.00939086
-6.68808e-06
0.00939203
-5.72839e-06
0.00939311
-5.60071e-06
0.00939412
-5.34781e-06
0.00939504
-5.18794e-06
0.0093959
-4.11316e-06
0.0093967
-4.08411e-06
0.00939744
-3.9216e-06
0.00939811
-3.8563e-06
0.00939874
-3.21129e-06
0.00939933
-3.22507e-06
0.00939987
-3.12662e-06
0.00940037
-3.09422e-06
0.00940083
-2.41494e-06
0.00940126
-2.44758e-06
0.00940167
-2.37802e-06
0.00940204
-2.36757e-06
0.00940238
-2.02122e-06
0.0094027
-2.02952e-06
0.009403
-1.97047e-06
0.00940328
-1.94386e-06
0.00940354
-1.73678e-06
0.00940379
-1.69588e-06
0.00940402
-1.62062e-06
0.00940423
-1.54903e-06
0.00940443
-1.5325e-06
0.00940461
-1.358e-06
0.00940481
-1.27293e-06
-8.42166e-07
0.0141222
0.00812914
0.0135876
0.00361393
0.0130759
0.00237654
0.0126915
0.0015743
0.0124125
0.00110674
0.0122038
0.000827272
0.0120413
0.000649823
0.0119105
0.000528717
0.0118026
0.000440935
0.0117123
0.000372483
0.0116367
0.000314783
0.011574
0.000260412
0.0115222
0.000209524
0.0114785
0.000165619
0.0114392
0.000134907
0.0114012
0.00011865
0.0113622
0.000115163
0.011322
0.000117664
0.0112819
0.000120936
0.0112434
0.000118652
0.0112079
0.000111862
0.0111763
0.000101447
0.0111489
9.00123e-05
0.0111257
7.69733e-05
0.0111063
6.44143e-05
0.0110905
5.25552e-05
0.0110779
4.31194e-05
0.011068
3.31207e-05
0.0110605
2.43593e-05
0.0110552
1.64532e-05
0.0110516
1.04042e-05
0.0110497
4.00967e-06
0.0110491
-1.50887e-06
0.0110497
-6.49823e-06
0.0110514
-9.50106e-06
0.011054
-1.3686e-05
0.0110574
-1.72495e-05
0.0110615
-2.0559e-05
0.0110662
-2.25451e-05
0.0110715
-2.53941e-05
0.0110772
-2.77982e-05
0.0110834
-3.00619e-05
0.0110899
-3.07033e-05
0.0110968
-3.27679e-05
0.011104
-3.44503e-05
0.0111114
-3.60839e-05
0.011119
-3.65932e-05
0.0111269
-3.80746e-05
0.0111348
-3.92334e-05
0.0111429
-4.03557e-05
0.0111511
-3.99929e-05
0.0111594
-4.10504e-05
0.0111678
-4.17741e-05
0.0111762
-4.24886e-05
0.0111846
-4.21259e-05
0.011193
-4.2731e-05
0.0112014
-4.30252e-05
0.0112097
-4.32921e-05
0.011218
-4.21022e-05
0.0112262
-4.22977e-05
0.0112343
-4.21529e-05
0.0112422
-4.19974e-05
0.0112501
-4.07941e-05
0.0112577
-4.05214e-05
0.0112652
-3.9941e-05
0.0112726
-3.93447e-05
0.0112797
-3.73517e-05
0.0112867
-3.6712e-05
0.0112934
-3.57629e-05
0.0112999
-3.48484e-05
0.0113061
-3.29509e-05
0.0113121
-3.20316e-05
0.0113179
-3.08716e-05
0.0113234
-2.9771e-05
0.0113287
-2.73688e-05
0.0113337
-2.63807e-05
0.0113384
-2.51689e-05
0.0113429
-2.40795e-05
0.0113472
-2.21191e-05
0.0113512
-2.11854e-05
0.011355
-2.00904e-05
0.0113585
-1.91248e-05
0.0113619
-1.69655e-05
0.011365
-1.62208e-05
0.0113679
-1.5304e-05
0.0113706
-1.45452e-05
0.0113731
-1.29734e-05
0.0113755
-1.24121e-05
0.0113777
-1.17103e-05
0.0113797
-1.11442e-05
0.0113816
-9.45328e-06
0.0113834
-9.10342e-06
0.011385
-8.59205e-06
0.0113865
-8.22736e-06
0.0113879
-7.12225e-06
0.0113892
-6.91537e-06
0.0113904
-6.56752e-06
0.0113915
-6.33302e-06
0.0113925
-5.13516e-06
0.0113935
-5.05382e-06
0.0113944
-4.81978e-06
0.0113952
-4.7013e-06
0.0113959
-3.96941e-06
0.0113966
-3.94721e-06
0.0113973
-3.79828e-06
0.0113979
-3.73008e-06
0.0113984
-2.98139e-06
0.0113989
-2.99059e-06
0.0113994
-2.88265e-06
0.0113999
-2.84592e-06
0.0114003
-2.4552e-06
0.0114007
-2.44431e-06
0.011401
-2.35523e-06
0.0114013
-2.30907e-06
0.0114017
-2.08483e-06
0.011402
-2.02629e-06
0.0114022
-1.92318e-06
0.0114025
-1.83152e-06
0.0114027
-1.8153e-06
0.0114029
-1.59772e-06
0.0114032
-1.36584e-06
-7.20684e-07
0.0170157
0.00843869
0.0165448
0.00408489
0.016
0.00292135
0.0155424
0.00203204
0.0151931
0.00145612
0.0149266
0.00109379
0.0147179
0.000858557
0.0145499
0.000696836
0.0144114
0.000579441
0.0142958
0.000488135
0.0141989
0.000411704
0.0141182
0.000341239
0.0140506
0.00027714
0.0139924
0.000223829
0.0139391
0.000188339
0.0138865
0.000171279
0.0138324
0.000169288
0.0137768
0.000173253
0.0137213
0.000176444
0.0136683
0.000171738
0.0136195
0.00016073
0.0135759
0.000144963
0.0135381
0.000127856
0.013506
0.000109133
0.0134791
9.13062e-05
0.013457
7.4655e-05
0.0134391
6.10847e-05
0.0134249
4.73302e-05
0.0134139
3.53383e-05
0.0134058
2.45998e-05
0.0134
1.61825e-05
0.0133964
7.64344e-06
0.0133946
3.00532e-07
0.0133944
-6.30272e-06
0.0133955
-1.05954e-05
0.0133979
-1.60273e-05
0.0134013
-2.06391e-05
0.0134056
-2.48901e-05
0.0134107
-2.76161e-05
0.0134165
-3.12057e-05
0.0134229
-3.42258e-05
0.0134298
-3.70544e-05
0.0134373
-3.80826e-05
0.0134451
-4.06035e-05
0.0134533
-4.26462e-05
0.0134618
-4.4615e-05
0.0134706
-4.53336e-05
0.0134796
-4.70798e-05
0.0134888
-4.84324e-05
0.0134981
-4.97385e-05
0.0135076
-4.94231e-05
0.0135171
-5.06198e-05
0.0135268
-5.14137e-05
0.0135364
-5.21924e-05
0.0135461
-5.17891e-05
0.0135558
-5.24214e-05
0.0135655
-5.26872e-05
0.013575
-5.29266e-05
0.0135846
-5.15869e-05
0.013594
-5.17297e-05
0.0136033
-5.14729e-05
0.0136125
-5.1207e-05
0.0136215
-4.98002e-05
0.0136304
-4.93958e-05
0.0136391
-4.86365e-05
0.0136475
-4.78688e-05
0.0136558
-4.55925e-05
0.0136639
-4.47674e-05
0.0136717
-4.3581e-05
0.0136792
-4.24382e-05
0.0136865
-4.02295e-05
0.0136936
-3.90776e-05
0.0137003
-3.76475e-05
0.0137068
-3.62928e-05
0.013713
-3.35364e-05
0.0137189
-3.22999e-05
0.0137245
-3.08e-05
0.0137298
-2.9444e-05
0.0137349
-2.715e-05
0.0137396
-2.5972e-05
0.0137441
-2.46094e-05
0.0137484
-2.3405e-05
0.0137523
-2.09228e-05
0.0137561
-1.99678e-05
0.0137596
-1.88128e-05
0.0137628
-1.78451e-05
0.0137659
-1.6007e-05
0.0137687
-1.52703e-05
0.0137714
-1.43758e-05
0.0137738
-1.36479e-05
0.0137761
-1.17189e-05
0.0137782
-1.12399e-05
0.0137802
-1.05754e-05
0.013782
-1.00859e-05
0.0137837
-8.8041e-06
0.0137853
-8.50141e-06
0.0137867
-8.04031e-06
0.013788
-7.71881e-06
0.0137893
-6.36704e-06
0.0137904
-6.22247e-06
0.0137915
-5.90324e-06
0.0137925
-5.72209e-06
0.0137934
-4.88306e-06
0.0137942
-4.81711e-06
0.013795
-4.60906e-06
0.0137957
-4.50009e-06
0.0137964
-3.66044e-06
0.013797
-3.64182e-06
0.0137976
-3.49121e-06
0.0137982
-3.42447e-06
0.0137987
-2.97529e-06
0.0137991
-2.94212e-06
0.0137995
-2.8268e-06
0.0138
-2.76052e-06
0.0138003
-2.49018e-06
0.0138007
-2.41375e-06
0.013801
-2.29989e-06
0.0138013
-2.18973e-06
0.0138016
-2.14962e-06
0.0138019
-1.89734e-06
0.0138022
-1.85469e-06
-1.19214e-06
0.020418
0.0086377
0.020045
0.00445798
0.0195159
0.00345055
0.0190008
0.00254719
0.0185768
0.00188026
0.0182419
0.00142869
0.0179759
0.00112467
0.0177605
0.000912294
0.0175828
0.000757165
0.0174344
0.000636568
0.0173099
0.000536278
0.0172055
0.000445716
0.0171172
0.000365508
0.01704
0.000301056
0.0169682
0.000260166
0.016897
0.000242532
0.0168237
0.000242628
0.0167484
0.000248476
0.0166735
0.000251441
0.0166018
0.000243528
0.0165356
0.000226966
0.0164764
0.000204151
0.0164247
0.000179526
0.0163806
0.000153294
0.0163434
0.000128492
0.0163126
0.000105494
0.0162873
8.63819e-05
0.016267
6.76602e-05
0.016251
5.13882e-05
0.0162387
3.6905e-05
0.0162296
2.53186e-05
0.0162232
1.39568e-05
0.0162193
4.21024e-06
0.0162175
-4.51105e-06
0.0162175
-1.0557e-05
0.0162191
-1.76118e-05
0.0162221
-2.35926e-05
0.0162262
-2.90654e-05
0.0162314
-3.27873e-05
0.0162375
-3.73252e-05
0.0162444
-4.11366e-05
0.016252
-4.46849e-05
0.0162603
-4.62597e-05
0.016269
-4.93498e-05
0.0162782
-5.18455e-05
0.0162878
-5.42313e-05
0.0162977