/*--------------------------------*- C++ -*----------------------------------*\
  =========                 |
  \\      /  F ield         | OpenFOAM: The Open Source CFD Toolbox
   \\    /   O peration     | Website:  https://openfoam.org
    \\  /    A nd           | Version:  8
     \\/     M anipulation  |
\*---------------------------------------------------------------------------*/
FoamFile
{
    version     2.0;
    format      ascii;
    class       volVectorField;
    location    "350";
    object      U;
}
// * * * * * * * * * * * * * * * * * * * * * * * * * * * * * * * * * * * * * //

dimensions      [0 1 -1 0 0 0 0];

internalField   nonuniform List<vector> 
7320
(
(22.6428 -0.848127 0)
(20.299 -0.0156855 0)
(19.4728 0.000193762 0)
(18.9932 0.000305015 0)
(18.6576 0.000225134 0)
(18.4025 0.000175429 0)
(18.1984 0.000143217 0)
(18.0298 0.0001197 0)
(17.887 0.000102258 0)
(17.764 8.85084e-05 0)
(17.6569 7.881e-05 0)
(17.5648 6.73785e-05 0)
(17.4889 5.48177e-05 0)
(17.4312 4.04759e-05 0)
(17.3923 2.75859e-05 0)
(17.3696 1.54779e-05 0)
(17.3572 7.87764e-06 0)
(17.349 4.56844e-06 0)
(17.3404 7.49098e-06 0)
(17.3296 8.44808e-06 0)
(17.3165 9.54286e-06 0)
(17.3019 9.90948e-06 0)
(17.2869 1.18297e-05 0)
(17.2724 1.07962e-05 0)
(17.2589 9.44128e-06 0)
(17.2468 7.69831e-06 0)
(17.2363 9.65936e-06 0)
(17.2276 7.58326e-06 0)
(17.2206 5.58444e-06 0)
(17.2154 3.47439e-06 0)
(17.2117 4.00795e-06 0)
(17.2097 1.93846e-06 0)
(17.2091 7.40451e-08 0)
(17.2099 -1.82415e-06 0)
(17.2119 3.61701e-07 0)
(17.2153 -1.46477e-06 0)
(17.2198 -3.074e-06 0)
(17.2253 -4.77974e-06 0)
(17.2318 -3.72393e-06 0)
(17.2393 -5.3624e-06 0)
(17.2477 -6.75305e-06 0)
(17.2569 -8.2427e-06 0)
(17.2668 -5.73453e-06 0)
(17.2775 -7.19372e-06 0)
(17.2889 -8.42163e-06 0)
(17.3009 -9.805e-06 0)
(17.3135 -8.50419e-06 0)
(17.3267 -9.85521e-06 0)
(17.3405 -1.09483e-05 0)
(17.3547 -1.21881e-05 0)
(17.3694 -9.58611e-06 0)
(17.3846 -1.08148e-05 0)
(17.4001 -1.17923e-05 0)
(17.4161 -1.29576e-05 0)
(17.4324 -1.14793e-05 0)
(17.449 -1.26133e-05 0)
(17.4659 -1.34671e-05 0)
(17.483 -1.44855e-05 0)
(17.5002 -1.17138e-05 0)
(17.5176 -1.27046e-05 0)
(17.5351 -1.34155e-05 0)
(17.5526 -1.43186e-05 0)
(17.5701 -1.26395e-05 0)
(17.5875 -1.34782e-05 0)
(17.6048 -1.40076e-05 0)
(17.6219 -1.4701e-05 0)
(17.6386 -1.17061e-05 0)
(17.6551 -1.23487e-05 0)
(17.6712 -1.26914e-05 0)
(17.687 -1.32395e-05 0)
(17.7021 -1.12275e-05 0)
(17.7169 -1.17275e-05 0)
(17.7311 -1.1925e-05 0)
(17.7447 -1.23193e-05 0)
(17.7576 -9.08204e-06 0)
(17.7701 -9.48456e-06 0)
(17.7819 -9.61527e-06 0)
(17.7931 -9.99498e-06 0)
(17.8036 -7.91676e-06 0)
(17.8136 -8.31783e-06 0)
(17.823 -8.44761e-06 0)
(17.8318 -8.80691e-06 0)
(17.84 -5.68002e-06 0)
(17.8477 -6.09786e-06 0)
(17.8549 -6.26621e-06 0)
(17.8616 -6.70169e-06 0)
(17.8678 -4.7697e-06 0)
(17.8737 -5.25021e-06 0)
(17.8791 -5.47315e-06 0)
(17.8841 -5.92485e-06 0)
(17.8886 -3.0692e-06 0)
(17.8929 -3.5781e-06 0)
(17.8969 -3.84914e-06 0)
(17.9006 -4.3726e-06 0)
(17.904 -2.75947e-06 0)
(17.9072 -3.31025e-06 0)
(17.9101 -3.61409e-06 0)
(17.9128 -4.11972e-06 0)
(17.9152 -1.82921e-06 0)
(17.9175 -2.35576e-06 0)
(17.9196 -2.65675e-06 0)
(17.9216 -3.16622e-06 0)
(17.9234 -1.9352e-06 0)
(17.9251 -2.43065e-06 0)
(17.9266 -2.70654e-06 0)
(17.9281 -3.12965e-06 0)
(17.9294 -1.60474e-06 0)
(17.9306 -1.99484e-06 0)
(17.9317 -2.19782e-06 0)
(17.9328 -2.53083e-06 0)
(17.9337 -1.87403e-06 0)
(17.9347 -2.13932e-06 0)
(17.9355 -2.23926e-06 0)
(17.9363 -2.41029e-06 0)
(17.937 -2.08332e-06 0)
(17.9376 -2.15436e-06 0)
(17.9382 -2.08033e-06 0)
(17.9388 -2.05289e-06 0)
(17.9393 -2.17945e-06 0)
(17.9398 -2.02225e-06 0)
(17.9402 -7.97598e-07 0)
(17.9408 -4.66106e-07 0)
(26.6037 0.167142 0)
(23.949 0.00743215 0)
(22.9106 0.00132547 0)
(22.3239 0.00076315 0)
(21.922 0.000549326 0)
(21.6197 0.000426251 0)
(21.3793 0.000346558 0)
(21.1814 0.000289309 0)
(21.0143 0.000246834 0)
(20.8707 0.000213377 0)
(20.7463 0.000187265 0)
(20.64 0.000158481 0)
(20.5531 0.000126864 0)
(20.4877 9.21038e-05 0)
(20.4439 6.08747e-05 0)
(20.4177 3.46402e-05 0)
(20.4022 1.9597e-05 0)
(20.3903 1.4489e-05 0)
(20.3773 2.00112e-05 0)
(20.3619 2.3078e-05 0)
(20.3441 2.58219e-05 0)
(20.3251 2.67275e-05 0)
(20.3062 2.90037e-05 0)
(20.2882 2.66062e-05 0)
(20.2719 2.34908e-05 0)
(20.2576 1.96965e-05 0)
(20.2453 2.08991e-05 0)
(20.2353 1.64459e-05 0)
(20.2274 1.22387e-05 0)
(20.2217 7.96725e-06 0)
(20.2178 7.39092e-06 0)
(20.2159 3.24614e-06 0)
(20.2158 -4.67956e-07 0)
(20.2172 -4.10802e-06 0)
(20.2201 -2.09589e-06 0)
(20.2245 -5.63025e-06 0)
(20.2302 -8.70561e-06 0)
(20.2372 -1.18277e-05 0)
(20.2452 -1.11235e-05 0)
(20.2543 -1.41373e-05 0)
(20.2644 -1.66998e-05 0)
(20.2755 -1.93159e-05 0)
(20.2874 -1.6439e-05 0)
(20.3001 -1.90747e-05 0)
(20.3136 -2.12704e-05 0)
(20.3279 -2.36195e-05 0)
(20.3428 -2.22758e-05 0)
(20.3584 -2.46077e-05 0)
(20.3746 -2.64976e-05 0)
(20.3913 -2.85208e-05 0)
(20.4084 -2.52767e-05 0)
(20.4262 -2.73609e-05 0)
(20.4444 -2.89894e-05 0)
(20.4629 -3.08168e-05 0)
(20.4818 -2.90076e-05 0)
(20.5011 -3.08136e-05 0)
(20.5206 -3.21446e-05 0)
(20.5404 -3.36237e-05 0)
(20.5602 -2.98949e-05 0)
(20.5802 -3.13862e-05 0)
(20.6003 -3.23702e-05 0)
(20.6204 -3.35438e-05 0)
(20.6404 -3.11485e-05 0)
(20.6602 -3.22215e-05 0)
(20.6799 -3.27681e-05 0)
(20.6993 -3.34531e-05 0)
(20.7183 -2.90625e-05 0)
(20.7369 -2.97148e-05 0)
(20.7552 -2.98389e-05 0)
(20.7729 -3.01803e-05 0)
(20.7899 -2.69979e-05 0)
(20.8065 -2.7296e-05 0)
(20.8224 -2.71045e-05 0)
(20.8376 -2.71271e-05 0)
(20.8521 -2.2185e-05 0)
(20.866 -2.23251e-05 0)
(20.8791 -2.20141e-05 0)
(20.8916 -2.20192e-05 0)
(20.9033 -1.86768e-05 0)
(20.9144 -1.88045e-05 0)
(20.9248 -1.85203e-05 0)
(20.9346 -1.85276e-05 0)
(20.9437 -1.37952e-05 0)
(20.9522 -1.40351e-05 0)
(20.9602 -1.38778e-05 0)
(20.9676 -1.40789e-05 0)
(20.9745 -1.10687e-05 0)
(20.9809 -1.1445e-05 0)
(20.9869 -1.14374e-05 0)
(20.9924 -1.17263e-05 0)
(20.9975 -7.52052e-06 0)
(21.0022 -8.03557e-06 0)
(21.0066 -8.17169e-06 0)
(21.0107 -8.64583e-06 0)
(21.0144 -6.21852e-06 0)
(21.0179 -6.82602e-06 0)
(21.0211 -7.06331e-06 0)
(21.0241 -7.56063e-06 0)
(21.0268 -4.25218e-06 0)
(21.0293 -4.89399e-06 0)
(21.0317 -5.17864e-06 0)
(21.0339 -5.7395e-06 0)
(21.0359 -3.9312e-06 0)
(21.0377 -4.54264e-06 0)
(21.0394 -4.82651e-06 0)
(21.041 -5.29763e-06 0)
(21.0425 -3.10827e-06 0)
(21.0438 -3.60941e-06 0)
(21.0451 -3.82573e-06 0)
(21.0462 -4.2095e-06 0)
(21.0473 -3.23834e-06 0)
(21.0483 -3.56608e-06 0)
(21.0492 -3.67243e-06 0)
(21.0501 -3.85623e-06 0)
(21.0509 -3.31913e-06 0)
(21.0516 -3.3843e-06 0)
(21.0523 -3.29527e-06 0)
(21.0529 -3.22675e-06 0)
(21.0535 -3.34126e-06 0)
(21.0541 -3.06596e-06 0)
(21.0545 -2.23119e-06 0)
(21.0551 -1.66263e-06 0)
(28.9496 0.098479 0)
(26.1303 0.00639269 0)
(24.9212 0.00234074 0)
(24.2466 0.00142378 0)
(23.7931 0.00101706 0)
(23.4561 0.000784868 0)
(23.1902 0.000635648 0)
(22.9723 0.000529577 0)
(22.789 0.00045103 0)
(22.6321 0.000389082 0)
(22.4968 0.000338839 0)
(22.3819 0.000284607 0)
(22.2887 0.000225437 0)
(22.2189 0.000162122 0)
(22.1713 0.000106361 0)
(22.1412 6.24081e-05 0)
(22.1209 3.90095e-05 0)
(22.1034 3.27777e-05 0)
(22.0842 4.22643e-05 0)
(22.0625 4.80875e-05 0)
(22.039 5.2484e-05 0)
(22.015 5.33316e-05 0)
(21.9918 5.51904e-05 0)
(21.9705 5.02241e-05 0)
(21.9515 4.40883e-05 0)
(21.9352 3.69797e-05 0)
(21.9215 3.65609e-05 0)
(21.9105 2.85918e-05 0)
(21.9021 2.1133e-05 0)
(21.8961 1.37235e-05 0)
(21.8923 1.13811e-05 0)
(21.8907 4.33405e-06 0)
(21.891 -1.96267e-06 0)
(21.8932 -8.02809e-06 0)
(21.8968 -6.45826e-06 0)
(21.9021 -1.22807e-05 0)
(21.9088 -1.7348e-05 0)
(21.9168 -2.23956e-05 0)
(21.926 -2.22642e-05 0)
(21.9363 -2.7096e-05 0)
(21.9477 -3.12224e-05 0)
(21.9601 -3.53495e-05 0)
(21.9733 -3.2108e-05 0)
(21.9874 -3.62593e-05 0)
(22.0023 -3.97279e-05 0)
(22.018 -4.33543e-05 0)
(22.0343 -4.20124e-05 0)
(22.0513 -4.56009e-05 0)
(22.0689 -4.85223e-05 0)
(22.0871 -5.15673e-05 0)
(22.1057 -4.75576e-05 0)
(22.1248 -5.07012e-05 0)
(22.1444 -5.31504e-05 0)
(22.1644 -5.58187e-05 0)
(22.1846 -5.35924e-05 0)
(22.2052 -5.62102e-05 0)
(22.2261 -5.8111e-05 0)
(22.2471 -6.01445e-05 0)
(22.2682 -5.5191e-05 0)
(22.2894 -5.72307e-05 0)
(22.3106 -5.84941e-05 0)
(22.3318 -5.99487e-05 0)
(22.3528 -5.65861e-05 0)
(22.3736 -5.78562e-05 0)
(22.3942 -5.83337e-05 0)
(22.4145 -5.89256e-05 0)
(22.4343 -5.27081e-05 0)
(22.4537 -5.32478e-05 0)
(22.4726 -5.29957e-05 0)
(22.4909 -5.29881e-05 0)
(22.5086 -4.82489e-05 0)
(22.5257 -4.8184e-05 0)
(22.5421 -4.7409e-05 0)
(22.5578 -4.68855e-05 0)
(22.5727 -3.97438e-05 0)
(22.5869 -3.9446e-05 0)
(22.6004 -3.8501e-05 0)
(22.6132 -3.79723e-05 0)
(22.6252 -3.29883e-05 0)
(22.6365 -3.26957e-05 0)
(22.6472 -3.18314e-05 0)
(22.6572 -3.13518e-05 0)
(22.6665 -2.45828e-05 0)
(22.6752 -2.45262e-05 0)
(22.6833 -2.39141e-05 0)
(22.6909 -2.37892e-05 0)
(22.6979 -1.94034e-05 0)
(22.7045 -1.96004e-05 0)
(22.7106 -1.92695e-05 0)
(22.7163 -1.93337e-05 0)
(22.7214 -1.34373e-05 0)
(22.7262 -1.39094e-05 0)
(22.7307 -1.38506e-05 0)
(22.7349 -1.42492e-05 0)
(22.7387 -1.07953e-05 0)
(22.7422 -1.14428e-05 0)
(22.7455 -1.15781e-05 0)
(22.7486 -1.20569e-05 0)
(22.7513 -7.48454e-06 0)
(22.7539 -8.23565e-06 0)
(22.7563 -8.48496e-06 0)
(22.7585 -9.10489e-06 0)
(22.7605 -6.57518e-06 0)
(22.7624 -7.3114e-06 0)
(22.7642 -7.5927e-06 0)
(22.7658 -8.12087e-06 0)
(22.7673 -5.11621e-06 0)
(22.7687 -5.7341e-06 0)
(22.77 -5.95237e-06 0)
(22.7712 -6.39685e-06 0)
(22.7722 -5.03994e-06 0)
(22.7733 -5.43434e-06 0)
(22.7742 -5.52072e-06 0)
(22.7751 -5.71713e-06 0)
(22.7759 -4.96614e-06 0)
(22.7766 -5.01689e-06 0)
(22.7773 -4.85158e-06 0)
(22.778 -4.72516e-06 0)
(22.7786 -4.85965e-06 0)
(22.7792 -4.42662e-06 0)
(22.7796 -3.14845e-06 0)
(22.7803 -2.15483e-06 0)
(30.6448 0.0459601 0)
(27.8131 0.00832071 0)
(26.456 0.00392646 0)
(25.6942 0.00238211 0)
(25.1891 0.00168381 0)
(24.8184 0.00129065 0)
(24.5284 0.00104036 0)
(24.2921 0.000864332 0)
(24.0943 0.000734388 0)
(23.9257 0.000631902 0)
(23.781 0.00054676 0)
(23.659 0.00045672 0)
(23.5606 0.000359736 0)
(23.4865 0.00025863 0)
(23.4345 0.000171376 0)
(23.3987 0.00010609 0)
(23.3712 7.35998e-05 0)
(23.3452 6.70888e-05 0)
(23.3173 8.12844e-05 0)
(23.2871 9.01865e-05 0)
(23.256 9.56991e-05 0)
(23.2255 9.5243e-05 0)
(23.197 9.48192e-05 0)
(23.1715 8.54162e-05 0)
(23.1492 7.44016e-05 0)
(23.1305 6.22071e-05 0)
(23.115 5.8184e-05 0)
(23.1028 4.51918e-05 0)
(23.0937 3.31548e-05 0)
(23.0874 2.14257e-05 0)
(23.0836 1.60457e-05 0)
(23.0822 5.15129e-06 0)
(23.083 -4.54702e-06 0)
(23.0857 -1.37543e-05 0)
(23.0901 -1.36212e-05 0)
(23.0961 -2.23264e-05 0)
(23.1037 -2.98959e-05 0)
(23.1127 -3.7317e-05 0)
(23.1229 -3.83923e-05 0)
(23.1342 -4.54199e-05 0)
(23.1467 -5.14373e-05 0)
(23.1601 -5.73551e-05 0)
(23.1743 -5.43514e-05 0)
(23.1895 -6.02709e-05 0)
(23.2055 -6.52252e-05 0)
(23.2222 -7.03041e-05 0)
(23.2396 -6.93458e-05 0)
(23.2576 -7.43423e-05 0)
(23.2762 -7.84183e-05 0)
(23.2953 -8.25699e-05 0)
(23.3149 -7.81997e-05 0)
(23.3349 -8.24766e-05 0)
(23.3554 -8.57899e-05 0)
(23.3762 -8.93033e-05 0)
(23.3972 -8.68698e-05 0)
(23.4185 -9.02791e-05 0)
(23.44 -9.27034e-05 0)
(23.4617 -9.51999e-05 0)
(23.4833 -8.92441e-05 0)
(23.505 -9.17213e-05 0)
(23.5267 -9.31213e-05 0)
(23.5483 -9.46692e-05 0)
(23.5696 -9.035e-05 0)
(23.5907 -9.16012e-05 0)
(23.6115 -9.17703e-05 0)
(23.632 -9.19862e-05 0)
(23.6519 -8.39709e-05 0)
(23.6713 -8.41059e-05 0)
(23.6903 -8.3166e-05 0)
(23.7086 -8.24638e-05 0)
(23.7263 -7.60372e-05 0)
(23.7433 -7.52664e-05 0)
(23.7597 -7.35617e-05 0)
(23.7753 -7.21195e-05 0)
(23.7901 -6.27376e-05 0)
(23.8042 -6.16575e-05 0)
(23.8176 -5.9735e-05 0)
(23.8303 -5.83128e-05 0)
(23.8422 -5.15563e-05 0)
(23.8534 -5.05198e-05 0)
(23.864 -4.87646e-05 0)
(23.8738 -4.7474e-05 0)
(23.883 -3.86799e-05 0)
(23.8916 -3.80506e-05 0)
(23.8997 -3.67176e-05 0)
(23.9072 -3.59896e-05 0)
(23.9141 -3.01792e-05 0)
(23.9206 -2.99621e-05 0)
(23.9266 -2.90882e-05 0)
(23.9322 -2.8696e-05 0)
(23.9373 -2.11977e-05 0)
(23.9421 -2.14405e-05 0)
(23.9465 -2.10098e-05 0)
(23.9506 -2.11442e-05 0)
(23.9544 -1.66789e-05 0)
(23.9579 -1.72119e-05 0)
(23.9611 -1.7103e-05 0)
(23.9642 -1.74089e-05 0)
(23.9669 -1.16861e-05 0)
(23.9694 -1.2427e-05 0)
(23.9718 -1.25293e-05 0)
(23.974 -1.30853e-05 0)
(23.976 -9.8747e-06 0)
(23.9779 -1.06385e-05 0)
(23.9796 -1.08305e-05 0)
(23.9812 -1.13195e-05 0)
(23.9827 -7.58692e-06 0)
(23.9841 -8.25062e-06 0)
(23.9853 -8.40853e-06 0)
(23.9865 -8.84355e-06 0)
(23.9876 -7.12138e-06 0)
(23.9886 -7.53046e-06 0)
(23.9896 -7.55887e-06 0)
(23.9904 -7.72519e-06 0)
(23.9912 -6.75546e-06 0)
(23.992 -6.76363e-06 0)
(23.9927 -6.515e-06 0)
(23.9933 -6.31419e-06 0)
(23.9939 -6.43274e-06 0)
(23.9945 -5.82009e-06 0)
(23.9949 -4.36483e-06 0)
(23.9956 -2.9457e-06 0)
(31.9342 0.0469958 0)
(29.2282 0.0125123 0)
(27.7542 0.00606439 0)
(26.9064 0.00366072 0)
(26.3479 0.00256292 0)
(25.942 0.00195055 0)
(25.6272 0.00156424 0)
(25.3724 0.00129522 0)
(25.1601 0.00109739 0)
(24.98 0.000941429 0)
(24.8263 0.000810023 0)
(24.6975 0.000673694 0)
(24.5936 0.0005295 0)
(24.5145 0.000383365 0)
(24.4565 0.000260433 0)
(24.413 0.000172808 0)
(24.3759 0.00013222 0)
(24.3391 0.000126808 0)
(24.3 0.000146071 0)
(24.2594 0.000157271 0)
(24.219 0.000162015 0)
(24.1806 0.000157658 0)
(24.1457 0.000151946 0)
(24.115 0.000135221 0)
(24.0887 0.000116645 0)
(24.0669 9.69254e-05 0)
(24.0491 8.69043e-05 0)
(24.0354 6.69822e-05 0)
(24.0252 4.87402e-05 0)
(24.0182 3.1274e-05 0)
(24.0141 2.14888e-05 0)
(24.0127 5.68345e-06 0)
(24.0136 -8.31002e-06 0)
(24.0167 -2.14413e-05 0)
(24.0215 -2.36623e-05 0)
(24.0282 -3.58514e-05 0)
(24.0365 -4.64212e-05 0)
(24.0462 -5.66559e-05 0)
(24.0571 -5.9473e-05 0)
(24.0693 -6.90404e-05 0)
(24.0825 -7.72304e-05 0)
(24.0967 -8.51892e-05 0)
(24.1118 -8.2878e-05 0)
(24.1278 -9.07659e-05 0)
(24.1445 -9.7357e-05 0)
(24.162 -0.000104018 0)
(24.1801 -0.000103699 0)
(24.1988 -0.000110197 0)
(24.218 -0.000115486 0)
(24.2377 -0.000120784 0)
(24.2578 -0.000116304 0)
(24.2784 -0.000121728 0)
(24.2993 -0.000125881 0)
(24.3205 -0.000130195 0)
(24.3419 -0.000127639 0)
(24.3635 -0.000131767 0)
(24.3852 -0.000134611 0)
(24.407 -0.000137448 0)
(24.4287 -0.000130579 0)
(24.4505 -0.000133347 0)
(24.4722 -0.000134704 0)
(24.4937 -0.000136147 0)
(24.5149 -0.000130806 0)
(24.5358 -0.000131822 0)
(24.5564 -0.000131446 0)
(24.5766 -0.000131038 0)
(24.5962 -0.000121192 0)
(24.6154 -0.000120668 0)
(24.634 -0.000118767 0)
(24.652 -0.00011709 0)
(24.6693 -0.000108842 0)
(24.686 -0.000107093 0)
(24.702 -0.00010418 0)
(24.7172 -0.000101541 0)
(24.7317 -8.98683e-05 0)
(24.7455 -8.77434e-05 0)
(24.7585 -8.45737e-05 0)
(24.7709 -8.1991e-05 0)
(24.7825 -7.33496e-05 0)
(24.7934 -7.13295e-05 0)
(24.8037 -6.84464e-05 0)
(24.8133 -6.61149e-05 0)
(24.8223 -5.52946e-05 0)
(24.8307 -5.38887e-05 0)
(24.8385 -5.16289e-05 0)
(24.8459 -5.00972e-05 0)
(24.8526 -4.28142e-05 0)
(24.8589 -4.20107e-05 0)
(24.8648 -4.04255e-05 0)
(24.8702 -3.94151e-05 0)
(24.8752 -3.0372e-05 0)
(24.8799 -3.02481e-05 0)
(24.8842 -2.93064e-05 0)
(24.8882 -2.90412e-05 0)
(24.8919 -2.35658e-05 0)
(24.8953 -2.38715e-05 0)
(24.8985 -2.34082e-05 0)
(24.9014 -2.34348e-05 0)
(24.9041 -1.66386e-05 0)
(24.9066 -1.72817e-05 0)
(24.9089 -1.71479e-05 0)
(24.911 -1.75528e-05 0)
(24.913 -1.36842e-05 0)
(24.9148 -1.44054e-05 0)
(24.9165 -1.444e-05 0)
(24.9181 -1.48245e-05 0)
(24.9195 -1.04262e-05 0)
(24.9209 -1.10841e-05 0)
(24.9221 -1.11302e-05 0)
(24.9233 -1.15063e-05 0)
(24.9243 -9.43204e-06 0)
(24.9253 -9.81825e-06 0)
(24.9263 -9.75336e-06 0)
(24.9271 -9.85982e-06 0)
(24.9279 -8.67993e-06 0)
(24.9287 -8.62536e-06 0)
(24.9294 -8.27438e-06 0)
(24.93 -7.98557e-06 0)
(24.9306 -8.07306e-06 0)
(24.9312 -7.26047e-06 0)
(24.9316 -5.58852e-06 0)
(24.9323 -3.69016e-06 0)
(32.9266 0.0603759 0)
(30.4694 0.0174522 0)
(28.9195 0.00881065 0)
(27.9899 0.00533881 0)
(27.3756 0.00371082 0)
(26.9321 0.00280467 0)
(26.5908 0.00223711 0)
(26.3162 0.00184537 0)
(26.0886 0.00155847 0)
(25.8965 0.00133257 0)
(25.7334 0.00114081 0)
(25.5972 0.000945669 0)
(25.4872 0.000743827 0)
(25.4018 0.000545537 0)
(25.3362 0.000383868 0)
(25.283 0.000274342 0)
(25.2342 0.000227805 0)
(25.1845 0.000225266 0)
(25.1324 0.000249633 0)
(25.0797 0.000261273 0)
(25.0285 0.000261931 0)
(24.981 0.000249518 0)
(24.9384 0.000234084 0)
(24.9016 0.00020578 0)
(24.8705 0.000175766 0)
(24.8448 0.000145042 0)
(24.8242 0.000125878 0)
(24.8082 9.6379e-05 0)
(24.7964 6.96906e-05 0)
(24.7884 4.45439e-05 0)
(24.7835 2.86337e-05 0)
(24.7817 6.48946e-06 0)
(24.7824 -1.29925e-05 0)
(24.7855 -3.10944e-05 0)
(24.7905 -3.66778e-05 0)
(24.7975 -5.31313e-05 0)
(24.8061 -6.73427e-05 0)
(24.8162 -8.09614e-05 0)
(24.8276 -8.60767e-05 0)
(24.8403 -9.86144e-05 0)
(24.854 -0.000109324 0)
(24.8688 -0.00011964 0)
(24.8844 -0.000118404 0)
(24.9009 -0.000128496 0)
(24.9181 -0.000136897 0)
(24.936 -0.000145294 0)
(24.9545 -0.000145803 0)
(24.9736 -0.000153904 0)
(24.9931 -0.00016046 0)
(25.0132 -0.000166953 0)
(25.0335 -0.000162495 0)
(25.0542 -0.000169069 0)
(25.0753 -0.000174017 0)
(25.0965 -0.000179078 0)
(25.1179 -0.000176391 0)
(25.1395 -0.000181147 0)
(25.1611 -0.000184283 0)
(25.1827 -0.000187331 0)
(25.2042 -0.00017951 0)
(25.2257 -0.000182409 0)
(25.2471 -0.000183524 0)
(25.2682 -0.000184661 0)
(25.289 -0.00017815 0)
(25.3095 -0.000178716 0)
(25.3296 -0.000177554 0)
(25.3493 -0.000176289 0)
(25.3684 -0.000164481 0)
(25.3871 -0.000163058 0)
(25.4052 -0.000159929 0)
(25.4227 -0.00015702 0)
(25.4394 -0.000146761 0)
(25.4556 -0.000143787 0)
(25.4711 -0.000139405 0)
(25.4859 -0.000135323 0)
(25.4999 -0.000121224 0)
(25.5132 -0.000117816 0)
(25.5259 -0.000113145 0)
(25.5379 -0.000109162 0)
(25.5491 -9.84719e-05 0)
(25.5597 -9.52523e-05 0)
(25.5697 -9.10213e-05 0)
(25.579 -8.7449e-05 0)
(25.5877 -7.45157e-05 0)
(25.5959 -7.21499e-05 0)
(25.6035 -6.87691e-05 0)
(25.6106 -6.62563e-05 0)
(25.6172 -5.73981e-05 0)
(25.6233 -5.58553e-05 0)
(25.629 -5.3403e-05 0)
(25.6343 -5.1638e-05 0)
(25.6391 -4.10223e-05 0)
(25.6437 -4.04117e-05 0)
(25.6479 -3.88298e-05 0)
(25.6518 -3.80507e-05 0)
(25.6554 -3.15171e-05 0)
(25.6587 -3.15006e-05 0)
(25.6618 -3.05839e-05 0)
(25.6647 -3.0248e-05 0)
(25.6672 -2.23846e-05 0)
(25.6697 -2.2858e-05 0)
(25.6719 -2.24082e-05 0)
(25.674 -2.25938e-05 0)
(25.6759 -1.80514e-05 0)
(25.6777 -1.86753e-05 0)
(25.6794 -1.84946e-05 0)
(25.6809 -1.87275e-05 0)
(25.6823 -1.36767e-05 0)
(25.6836 -1.42893e-05 0)
(25.6849 -1.41801e-05 0)
(25.686 -1.44602e-05 0)
(25.687 -1.20249e-05 0)
(25.688 -1.23594e-05 0)
(25.6889 -1.21755e-05 0)
(25.6898 -1.22004e-05 0)
(25.6906 -1.07977e-05 0)
(25.6913 -1.06641e-05 0)
(25.692 -1.02041e-05 0)
(25.6926 -9.81458e-06 0)
(25.6932 -9.85137e-06 0)
(25.6938 -8.81642e-06 0)
(25.6942 -7.08915e-06 0)
(25.6949 -4.68887e-06 0)
(33.6708 0.0694835 0)
(31.5723 0.0227076 0)
(30.0007 0.0122486 0)
(28.9992 0.00751851 0)
(28.328 0.00520593 0)
(27.8444 0.00391086 0)
(27.4741 0.00310275 0)
(27.1779 0.002549 0)
(26.9337 0.00214515 0)
(26.7285 0.00182782 0)
(26.5551 0.00155781 0)
(26.4106 0.00128854 0)
(26.2933 0.00101704 0)
(26.2002 0.00075917 0)
(26.1254 0.000556486 0)
(26.0608 0.000426713 0)
(25.9985 0.000377382 0)
(25.9344 0.000379791 0)
(25.868 0.000408805 0)
(25.8018 0.000417788 0)
(25.7386 0.000409382 0)
(25.6808 0.000382921 0)
(25.6297 0.000351558 0)
(25.5858 0.000305745 0)
(25.549 0.000258927 0)
(25.5187 0.000212414 0)
(25.4944 0.00017989 0)
(25.4756 0.000137212 0)
(25.4616 9.90249e-05 0)
(25.4518 6.35627e-05 0)
(25.4457 3.92587e-05 0)
(25.4429 8.85566e-06 0)
(25.443 -1.77239e-05 0)
(25.4456 -4.22021e-05 0)
(25.4504 -5.24087e-05 0)
(25.4573 -7.4158e-05 0)
(25.4659 -9.28622e-05 0)
(25.4761 -0.000110617 0)
(25.4876 -0.000118704 0)
(25.5004 -0.000134767 0)
(25.5144 -0.000148445 0)
(25.5294 -0.000161525 0)
(25.5452 -0.000161772 0)
(25.5618 -0.00017436 0)
(25.5792 -0.000184781 0)
(25.5973 -0.000195104 0)
(25.6159 -0.000196624 0)
(25.6351 -0.000206445 0)
(25.6547 -0.000214329 0)
(25.6747 -0.000222068 0)
(25.695 -0.000217721 0)
(25.7157 -0.000225441 0)
(25.7366 -0.000231126 0)
(25.7577 -0.000236867 0)
(25.7788 -0.000233995 0)
(25.8001 -0.000239271 0)
(25.8214 -0.000242553 0)
(25.8426 -0.000245669 0)
(25.8637 -0.000236803 0)
(25.8847 -0.000239656 0)
(25.9055 -0.000240313 0)
(25.9261 -0.000240933 0)
(25.9464 -0.000233068 0)
(25.9663 -0.000232959 0)
(25.9858 -0.000230766 0)
(26.0049 -0.000228412 0)
(26.0234 -0.000214473 0)
(26.0414 -0.000211908 0)
(26.0589 -0.000207284 0)
(26.0759 -0.000202888 0)
(26.0921 -0.000190402 0)
(26.1077 -0.000185953 0)
(26.1227 -0.000179839 0)
(26.137 -0.000174071 0)
(26.1506 -0.00015737 0)
(26.1635 -0.000152435 0)
(26.1758 -0.000145997 0)
(26.1874 -0.00014037 0)
(26.1983 -0.000127428 0)
(26.2086 -0.000122782 0)
(26.2183 -0.00011697 0)
(26.2274 -0.000111951 0)
(26.2358 -9.67686e-05 0)
(26.2438 -9.32462e-05 0)
(26.2512 -8.85334e-05 0)
(26.2581 -8.48513e-05 0)
(26.2645 -7.4275e-05 0)
(26.2705 -7.18275e-05 0)
(26.2761 -6.83382e-05 0)
(26.2812 -6.56756e-05 0)
(26.286 -5.34138e-05 0)
(26.2904 -5.21858e-05 0)
(26.2946 -4.98214e-05 0)
(26.2984 -4.84077e-05 0)
(26.3019 -4.07358e-05 0)
(26.3051 -4.02953e-05 0)
(26.3082 -3.88182e-05 0)
(26.311 -3.80347e-05 0)
(26.3135 -2.90764e-05 0)
(26.3159 -2.93036e-05 0)
(26.3181 -2.84512e-05 0)
(26.3202 -2.83479e-05 0)
(26.322 -2.30943e-05 0)
(26.3238 -2.35643e-05 0)
(26.3254 -2.31067e-05 0)
(26.3269 -2.31419e-05 0)
(26.3283 -1.74327e-05 0)
(26.3296 -1.79589e-05 0)
(26.3308 -1.76469e-05 0)
(26.3319 -1.77935e-05 0)
(26.3329 -1.49797e-05 0)
(26.3339 -1.5232e-05 0)
(26.3348 -1.48978e-05 0)
(26.3356 -1.48158e-05 0)
(26.3364 -1.31878e-05 0)
(26.3371 -1.29537e-05 0)
(26.3378 -1.23669e-05 0)
(26.3384 -1.18543e-05 0)
(26.339 -1.18419e-05 0)
(26.3396 -1.05351e-05 0)
(26.34 -8.77712e-06 0)
(26.3407 -5.49851e-06 0)
(34.1946 0.0755365 0)
(32.5411 0.0282373 0)
(31.0181 0.016427 0)
(29.9638 0.0103092 0)
(29.2378 0.00714377 0)
(28.7119 0.00534284 0)
(28.3101 0.00421791 0)
(27.9902 0.0034508 0)
(27.7276 0.00289341 0)
(27.5079 0.00245671 0)
(27.3229 0.0020857 0)
(27.1688 0.00172356 0)
(27.0428 0.00136842 0)
(26.9406 0.00104304 0)
(26.8551 0.000797678 0)
(26.7777 0.000650442 0)
(26.7009 0.000602431 0)
(26.6213 0.00061212 0)
(26.5396 0.00064472 0)
(26.459 0.000646559 0)
(26.383 0.000622211 0)
(26.314 0.000573575 0)
(26.2533 0.000517944 0)
(26.2015 0.000446674 0)
(26.158 0.000375866 0)
(26.1223 0.000307168 0)
(26.0936 0.000255692 0)
(26.0712 0.000195027 0)
(26.0542 0.000141267 0)
(26.0421 9.19724e-05 0)
(26.0341 5.62729e-05 0)
(26.0297 1.50547e-05 0)
(26.0286 -2.07699e-05 0)
(26.0303 -5.35013e-05 0)
(26.0344 -6.9966e-05 0)
(26.0407 -9.83804e-05 0)
(26.0488 -0.000122708 0)
(26.0587 -0.000145596 0)
(26.07 -0.000157517 0)
(26.0826 -0.000177835 0)
(26.0964 -0.00019507 0)
(26.1113 -0.000211447 0)
(26.127 -0.000213667 0)
(26.1435 -0.000229126 0)
(26.1609 -0.000241843 0)
(26.1788 -0.000254338 0)
(26.1973 -0.000257076 0)
(26.2163 -0.000268764 0)
(26.2357 -0.000278055 0)
(26.2555 -0.000287118 0)
(26.2755 -0.00028296 0)
(26.2959 -0.000291827 0)
(26.3164 -0.000298185 0)
(26.3371 -0.000304541 0)
(26.3579 -0.000301407 0)
(26.3787 -0.000307089 0)
(26.3994 -0.000310358 0)
(26.4202 -0.000313399 0)
(26.4407 -0.000303369 0)
(26.4611 -0.000305998 0)
(26.4814 -0.000305974 0)
(26.5013 -0.000305868 0)
(26.5209 -0.000296447 0)
(26.5402 -0.000295443 0)
(26.5591 -0.00029197 0)
(26.5775 -0.00028831 0)
(26.5954 -0.000272053 0)
(26.6129 -0.000268113 0)
(26.6298 -0.000261722 0)
(26.6462 -0.00025559 0)
(26.6619 -0.000240643 0)
(26.6771 -0.00023447 0)
(26.6916 -0.000226352 0)
(26.7055 -0.000218656 0)
(26.7187 -0.000199145 0)
(26.7313 -0.000192426 0)
(26.7432 -0.000183934 0)
(26.7546 -0.0001764 0)
(26.7652 -0.000160967 0)
(26.7753 -0.000154648 0)
(26.7847 -0.000146993 0)
(26.7936 -0.000140301 0)
(26.8019 -0.000122687 0)
(26.8097 -0.000117787 0)
(26.817 -0.000111499 0)
(26.8239 -0.000106435 0)
(26.8302 -9.39548e-05 0)
(26.8361 -9.0412e-05 0)
(26.8415 -8.56856e-05 0)
(26.8466 -8.19637e-05 0)
(26.8513 -6.79389e-05 0)
(26.8557 -6.59431e-05 0)
(26.8598 -6.26277e-05 0)
(26.8636 -6.04414e-05 0)
(26.867 -5.15179e-05 0)
(26.8702 -5.05355e-05 0)
(26.8732 -4.83705e-05 0)
(26.876 -4.70445e-05 0)
(26.8785 -3.69324e-05 0)
(26.8809 -3.68263e-05 0)
(26.8831 -3.5469e-05 0)
(26.8851 -3.4999e-05 0)
(26.887 -2.89751e-05 0)
(26.8887 -2.92271e-05 0)
(26.8903 -2.84202e-05 0)
(26.8918 -2.82086e-05 0)
(26.8932 -2.18151e-05 0)
(26.8945 -2.22099e-05 0)
(26.8957 -2.164e-05 0)
(26.8968 -2.1613e-05 0)
(26.8978 -1.83897e-05 0)
(26.8987 -1.85269e-05 0)
(26.8996 -1.80071e-05 0)
(26.9004 -1.77945e-05 0)
(26.9012 -1.59211e-05 0)
(26.9019 -1.5567e-05 0)
(26.9026 -1.48353e-05 0)
(26.9032 -1.41821e-05 0)
(26.9038 -1.41023e-05 0)
(26.9044 -1.24923e-05 0)
(26.9048 -1.07541e-05 0)
(26.9056 -6.55213e-06 0)
(34.5334 0.0801464 0)
(33.3601 0.0337876 0)
(31.9723 0.0213024 0)
(30.8974 0.013809 0)
(30.124 0.00963388 0)
(29.5557 0.00719206 0)
(29.1205 0.00565526 0)
(28.7746 0.00460871 0)
(28.4916 0.00385023 0)
(28.2556 0.00325798 0)
(28.0575 0.00275711 0)
(27.8922 0.00227898 0)
(27.7559 0.00182357 0)
(27.6431 0.00142165 0)
(27.5457 0.00113214 0)
(27.4546 0.000971088 0)
(27.3627 0.000929381 0)
(27.2672 0.000948977 0)
(27.1697 0.000983558 0)
(27.0742 0.000972339 0)
(26.9846 0.000923108 0)
(26.9036 0.000841752 0)
(26.8326 0.00075102 0)
(26.7718 0.000643929 0)
(26.7209 0.000539723 0)
(26.6789 0.000440447 0)
(26.6449 0.000362696 0)
(26.618 0.000277716 0)
(26.5974 0.000202992 0)
(26.5821 0.000135213 0)
(26.5715 8.41558e-05 0)
(26.5651 2.87324e-05 0)
(26.5622 -1.91994e-05 0)
(26.5623 -6.26834e-05 0)
(26.5652 -8.75545e-05 0)
(26.5704 -0.00012446 0)
(26.5777 -0.000155931 0)
(26.5868 -0.000185287 0)
(26.5974 -0.000202181 0)
(26.6094 -0.000227727 0)
(26.6227 -0.000249317 0)
(26.6371 -0.00026971 0)
(26.6524 -0.000274526 0)
(26.6685 -0.000293363 0)
(26.6855 -0.000308756 0)
(26.703 -0.000323763 0)
(26.7211 -0.000327991 0)
(26.7397 -0.000341759 0)
(26.7587 -0.000352585 0)
(26.778 -0.000363094 0)
(26.7976 -0.000359221 0)
(26.8175 -0.000369267 0)
(26.8376 -0.000376254 0)
(26.8577 -0.00038318 0)
(26.8779 -0.000379709 0)
(26.8981 -0.000385697 0)
(26.9183 -0.000388803 0)
(26.9384 -0.000391642 0)
(26.9584 -0.000380325 0)
(26.9782 -0.000382564 0)
(26.9977 -0.000381644 0)
(27.0171 -0.000380619 0)
(27.036 -0.000369445 0)
(27.0547 -0.000367339 0)
(27.073 -0.000362351 0)
(27.0908 -0.000357183 0)
(27.1082 -0.000338421 0)
(27.1251 -0.000332883 0)
(27.1416 -0.00032446 0)
(27.1575 -0.00031635 0)
(27.1728 -0.000298698 0)
(27.1875 -0.00029055 0)
(27.2017 -0.000280146 0)
(27.2153 -0.000270272 0)
(27.2282 -0.000247712 0)
(27.2405 -0.000238936 0)
(27.2523 -0.000228076 0)
(27.2634 -0.000218348 0)
(27.2739 -0.000200141 0)
(27.2839 -0.000191866 0)
(27.2932 -0.000182067 0)
(27.302 -0.000173442 0)
(27.3103 -0.000153161 0)
(27.318 -0.000146624 0)
(27.3253 -0.000138474 0)
(27.3321 -0.000131776 0)
(27.3383 -0.000117155 0)
(27.3442 -0.000112287 0)
(27.3497 -0.000106083 0)
(27.3548 -0.000101107 0)
(27.3595 -8.51516e-05 0)
(27.3639 -8.22043e-05 0)
(27.3679 -7.77353e-05 0)
(27.3717 -7.46095e-05 0)
(27.3752 -6.42818e-05 0)
(27.3784 -6.26124e-05 0)
(27.3814 -5.96053e-05 0)
(27.3842 -5.76211e-05 0)
(27.3867 -4.62617e-05 0)
(27.3891 -4.57158e-05 0)
(27.3913 -4.37308e-05 0)
(27.3933 -4.28005e-05 0)
(27.3952 -3.5923e-05 0)
(27.3969 -3.58786e-05 0)
(27.3985 -3.46357e-05 0)
(27.4 -3.41177e-05 0)
(27.4014 -2.6994e-05 0)
(27.4027 -2.72027e-05 0)
(27.4039 -2.63103e-05 0)
(27.405 -2.60616e-05 0)
(27.406 -2.23855e-05 0)
(27.407 -2.2367e-05 0)
(27.4079 -2.16209e-05 0)
(27.4087 -2.12473e-05 0)
(27.4095 -1.90996e-05 0)
(27.4102 -1.85995e-05 0)
(27.4109 -1.7705e-05 0)
(27.4115 -1.68863e-05 0)
(27.4121 -1.67201e-05 0)
(27.4127 -1.47615e-05 0)
(27.4131 -1.31835e-05 0)
(27.4139 -7.86387e-06 0)
(34.7383 0.0835194 0)
(34.0043 0.0389198 0)
(32.8455 0.0266837 0)
(31.8005 0.0180673 0)
(30.9963 0.0127885 0)
(30.3891 0.00956667 0)
(29.9197 0.00750577 0)
(29.546 0.00609723 0)
(29.2407 0.0050768 0)
(28.9866 0.00428257 0)
(28.7735 0.00361518 0)
(28.5953 0.00299231 0)
(28.4472 0.00241623 0)
(28.3224 0.00192664 0)
(28.2121 0.00159084 0)
(28.1068 0.0014199 0)
(27.9996 0.00139016 0)
(27.8882 0.0014227 0)
(27.7749 0.00145733 0)
(27.6643 0.00142589 0)
(27.5606 0.00134077 0)
(27.467 0.00121353 0)
(27.3848 0.00107402 0)
(27.3143 0.000917882 0)
(27.2549 0.00076818 0)
(27.2057 0.000627467 0)
(27.1655 0.000513925 0)
(27.1333 0.000396362 0)
(27.1082 0.0002936 0)
(27.089 0.000201215 0)
(27.0752 0.00012957 0)
(27.0659 5.54513e-05 0)
(27.0605 -8.39187e-06 0)
(27.0585 -6.59575e-05 0)
(27.0595 -0.000102095 0)
(27.0632 -0.00014994 0)
(27.069 -0.000190606 0)
(27.0769 -0.000228233 0)
(27.0864 -0.000251634 0)
(27.0975 -0.000283733 0)
(27.1099 -0.000310771 0)
(27.1234 -0.000336164 0)
(27.138 -0.000344423 0)
(27.1534 -0.000367342 0)
(27.1697 -0.000385955 0)
(27.1866 -0.000403964 0)
(27.204 -0.000410075 0)
(27.222 -0.000426242 0)
(27.2404 -0.000438819 0)
(27.2591 -0.000450982 0)
(27.2781 -0.000447557 0)
(27.2973 -0.000458877 0)
(27.3168 -0.000466498 0)
(27.3363 -0.000473997 0)
(27.3558 -0.000470155 0)
(27.3754 -0.000476384 0)
(27.395 -0.000479207 0)
(27.4144 -0.000481755 0)
(27.4337 -0.000469054 0)
(27.4529 -0.000470772 0)
(27.4718 -0.00046877 0)
(27.4905 -0.000466664 0)
(27.5089 -0.000453561 0)
(27.527 -0.000450176 0)
(27.5447 -0.000443456 0)
(27.562 -0.000436608 0)
(27.5789 -0.00041517 0)
(27.5955 -0.000407832 0)
(27.6115 -0.000397122 0)
(27.627 -0.000386803 0)
(27.642 -0.000366198 0)
(27.6565 -0.000355821 0)
(27.6704 -0.000342835 0)
(27.6838 -0.000330522 0)
(27.6966 -0.00030465 0)
(27.7088 -0.000293518 0)
(27.7205 -0.000279938 0)
(27.7315 -0.000267692 0)
(27.742 -0.000246377 0)
(27.7519 -0.000235816 0)
(27.7612 -0.000223516 0)
(27.7701 -0.000212651 0)
(27.7783 -0.000189405 0)
(27.7861 -0.000180918 0)
(27.7934 -0.000170559 0)
(27.8003 -0.000161922 0)
(27.8066 -0.000144859 0)
(27.8126 -0.00013838 0)
(27.8181 -0.000130399 0)
(27.8232 -0.000123922 0)
(27.828 -0.000105815 0)
(27.8324 -0.000101686 0)
(27.8366 -9.58094e-05 0)
(27.8404 -9.15346e-05 0)
(27.8439 -7.96027e-05 0)
(27.8472 -7.70621e-05 0)
(27.8502 -7.30164e-05 0)
(27.8531 -7.0226e-05 0)
(27.8556 -5.74902e-05 0)
(27.8581 -5.63696e-05 0)
(27.8603 -5.36021e-05 0)
(27.8624 -5.20933e-05 0)
(27.8643 -4.42507e-05 0)