/*--------------------------------*- C++ -*----------------------------------*\
  =========                 |
  \\      /  F ield         | OpenFOAM: The Open Source CFD Toolbox
   \\    /   O peration     | Website:  https://openfoam.org
    \\  /    A nd           | Version:  7
     \\/     M anipulation  |
\*---------------------------------------------------------------------------*/
FoamFile
{
    version     2.0;
    format      ascii;
    class       volScalarField;
    location    "3.1";
    object      T;
}
// * * * * * * * * * * * * * * * * * * * * * * * * * * * * * * * * * * * * * //

dimensions      [0 0 0 1 0 0 0];

internalField   nonuniform List<scalar> 
32100
(
2.05591e+87
-1.99474e+86
1.61214e+85
1.04223e+84
-3.03937e+83
-2.74446e+82
2.7097e+81
-1.88748e+80
-1.40141e+79
4.06814e+78
2.49094e+77
-9.73833e+75
3.64644e+73
3.33696e+73
1.08137e+73
-2.23103e+86
1.69377e+85
1.1566e+84
-3.11515e+83
-2.86742e+82
2.8025e+81
-1.92604e+80
-1.45625e+79
4.32317e+78
5.19201e+77
6.36567e+76
-1.24016e+76
2.31949e+74
2.83984e+73
8.84813e+72
1.76587e+85
1.3318e+84
-3.21925e+83
-3.00997e+82
2.9336e+81
-2.02826e+80
-1.64763e+79
4.25491e+78
4.01956e+77
-5.73647e+76
5.64245e+75
-7.67409e+75
3.19472e+74
2.65487e+73
6.95412e+72
1.61454e+84
-3.33929e+83
-3.26558e+82
3.25768e+81
-1.95408e+80
-2.39472e+79
3.13645e+78
3.70364e+77
-6.5146e+76
-1.24962e+75
-4.02114e+75
-3.30395e+75
3.06032e+74
2.80543e+73
4.79258e+72
-3.07978e+83
-3.3869e+82
3.11006e+81
-3.77107e+79
-1.20097e+79
-3.10692e+78
-8.18997e+77
-1.16035e+77
6.15597e+74
-1.79932e+75
-1.71545e+75
-9.39157e+74
2.35615e+74
2.5093e+73
2.25064e+72
-5.05468e+81
5.7486e+81
-4.06563e+80
1.40138e+80
1.14435e+79
-6.73086e+78
-1.33483e+78
-5.74824e+76
-1.85955e+75
-6.07282e+74
-4.58439e+73
-7.41807e+73
1.50217e+74
1.70682e+73
2.03929e+71
3.68222e+82
2.08049e+81
-2.24518e+80
1.54262e+80
9.1279e+78
-6.81907e+78
-1.27545e+78
-6.74846e+76
-2.11297e+75
-3.40878e+74
2.00301e+74
1.06918e+74
7.77016e+73
7.97141e+72
-9.2686e+71
3.01016e+82
2.41324e+81
-2.03635e+80
1.40087e+80
1.02566e+79
-6.26553e+78
-1.27757e+78
-7.43487e+76
-2.13472e+75
-3.91586e+74
1.56493e+74
8.13289e+73
3.07196e+73
1.58824e+72
-1.20354e+72
2.78042e+82
2.55542e+81
-2.0815e+80
1.2878e+80
1.18982e+79
-5.74849e+78
-1.26882e+78
-8.07358e+76
-2.26874e+75
-4.3906e+74
9.43175e+73
4.15404e+73
8.43966e+72
-1.10185e+72
-9.62867e+71
2.54493e+82
2.64318e+81
-2.05059e+80
1.17714e+80
1.33234e+79
-5.20636e+78
-1.25258e+78
-8.70244e+76
-2.43948e+75
-4.43364e+74
6.29476e+73
2.76243e+73
1.5708e+72
-1.36583e+72
-5.74717e+71
2.3238e+82
2.71394e+81
-1.97526e+80
1.06496e+80
1.4586e+79
-4.65352e+78
-1.22956e+78
-9.29711e+76
-2.6623e+75
-4.2757e+74
4.5068e+73
2.37109e+73
9.1627e+71
-7.82766e+71
-2.62758e+71
2.11803e+82
2.75913e+81
-1.82341e+80
9.55412e+79
1.57258e+79
-4.1001e+78
-1.20057e+78
-9.84337e+76
-2.94216e+75
-4.0376e+74
3.09602e+73
2.04138e+73
1.45375e+72
-2.61202e+71
-8.49968e+70
1.91688e+82
2.72869e+81
-1.46821e+80
8.571e+79
1.63693e+79
-3.5585e+78
-1.16748e+78
-1.03284e+77
-3.27216e+75
-3.76742e+74
1.95746e+73
1.66306e+73
1.47014e+72
-3.9317e+70
-1.55878e+70
1.65022e+82
2.35722e+81
-9.60709e+79
6.68563e+79
1.49445e+79
-3.07528e+78
-1.12183e+78
-1.07092e+77
-3.62795e+75
-3.48857e+74
1.09318e+73
1.42522e+73
1.17516e+72
-1.69535e+69
-2.70405e+69
1.12567e+82
1.86288e+81
-7.23018e+79
4.82422e+79
1.25842e+79
-2.38466e+78
-9.84408e+77
-1.04331e+77
-3.94934e+75
-3.30383e+74
4.25961e+72
1.49729e+73
1.34593e+72
1.29676e+70
1.81591e+68
8.34221e+81
1.61733e+81
-6.24772e+79
3.7226e+79
1.13865e+79
-1.72824e+78
-8.5462e+77
-1.01871e+77
-4.37963e+75
-3.25553e+74
-3.06085e+72
1.60506e+73
1.82886e+72
2.89874e+70
1.39616e+69
7.23175e+81
1.5103e+81
-5.34385e+79
3.09882e+79
1.11752e+79
-1.28859e+78
-7.92648e+77
-1.04333e+77
-4.98561e+75
-3.26027e+74
-1.09913e+73
1.55423e+73
2.16836e+72
4.83864e+70
1.92135e+69
6.32231e+81
1.45558e+81
-4.37099e+79
2.66704e+79
1.12132e+79
-9.59396e+77
-7.54129e+77
-1.08849e+77
-5.75118e+75
-3.29586e+74
-1.84699e+73
1.43319e+73
2.36332e+72
7.00928e+70
1.97934e+69
5.59504e+81
1.4065e+81
-3.13329e+79
2.26406e+79
1.11174e+79
-6.54774e+77
-7.20279e+77
-1.14403e+77
-6.66086e+75
-3.37873e+74
-2.51793e+73
1.27621e+73
2.45902e+72
9.25316e+70
1.79921e+69
4.95978e+81
1.35502e+81
-1.79148e+79
1.85846e+79
1.09185e+79
-3.51517e+77
-6.83964e+77
-1.20111e+77
-7.70629e+75
-3.53222e+74
-3.09104e+73
1.12353e+73
2.57067e+72
1.18135e+71
1.61125e+69
4.36809e+81
1.29317e+81
-4.11551e+78
1.46663e+79
1.06317e+79
-4.77812e+76
-6.43017e+77
-1.25586e+77
-8.89663e+75
-3.79265e+74
-3.57793e+73
9.51855e+72
2.62417e+72
1.44279e+71
1.53167e+69
3.80533e+81
1.21849e+81
9.55089e+78
1.10652e+79
1.02527e+79
2.54017e+77
-5.96493e+77
-1.30897e+77
-1.02653e+76
-4.20679e+74
-3.99306e+73
7.63603e+72
2.56012e+72
1.6565e+71
1.63825e+69
3.28063e+81
1.13606e+81
2.2819e+79
7.87642e+78
9.78212e+78
5.48439e+77
-5.4395e+77
-1.36061e+77
-1.18568e+76
-4.83598e+74
-4.35817e+73
5.85021e+72
2.49574e+72
1.85549e+71
1.99741e+69
2.80032e+81
1.04995e+81
3.55184e+79
5.12855e+78
9.21078e+78
8.27157e+77
-4.85369e+77
-1.41054e+77
-1.37116e+76
-5.75027e+74
-4.70828e+73
4.16991e+72
2.46685e+72
2.0781e+71
2.63613e+69
2.37119e+81
9.65409e+80
4.75249e+79
2.86986e+78
8.55201e+78
1.08621e+78
-4.20526e+77
-1.45595e+77
-1.58692e+76
-7.01631e+74
-5.06899e+73
2.50702e+72
2.46194e+72
2.34731e+71
3.61174e+69
1.99233e+81
8.8304e+80
5.86567e+79
1.14238e+78
7.82079e+78
1.32224e+78
-3.49144e+77
-1.49193e+77
-1.83717e+76
-8.73872e+74
-5.47587e+73
7.81425e+71
2.4808e+72
2.69869e+71
5.09022e+69
1.66679e+81
8.03589e+80
6.87501e+79
-5.48504e+76
7.03161e+78
1.53087e+78
-2.71231e+77
-1.51503e+77
-2.12489e+76
-1.10522e+75
-5.96969e+73
-1.09054e+72
2.47881e+72
3.11393e+71
7.20734e+69
1.39102e+81
7.31285e+80
7.81397e+79
-7.10282e+77
6.20076e+78
1.70726e+78
-1.8659e+77
-1.52068e+77
-2.44676e+76
-1.42309e+75
-6.62924e+73
-3.06749e+72
2.38219e+72
3.50062e+71
9.8438e+69
1.15378e+81
6.66311e+80
8.71136e+79
-7.72598e+77
5.34307e+78
1.84844e+78
-9.53193e+76
-1.50522e+77
-2.80261e+76
-1.84951e+75
-7.59645e+73
-5.08799e+72
2.22208e+72
3.88665e+71
1.30557e+70
9.46026e+80
6.0275e+80
9.50692e+79
-1.9794e+77
4.47218e+78
1.9498e+78
2.51366e+75
-1.46367e+77
-3.20149e+76
-2.40995e+75
-9.089e+73
-7.13986e+72
2.00255e+72
4.29716e+71
1.69593e+70
7.64123e+80
5.33846e+80
1.00361e+80
9.65505e+77
3.61739e+78
2.00558e+78
1.06883e+77
-1.38844e+77
-3.64732e+76
-3.15838e+75
-1.14822e+74
-9.07633e+72
1.66011e+72
4.61098e+71
2.11714e+70
6.10243e+80
4.6184e+80
1.01903e+80
2.60062e+78
2.8176e+78
2.01098e+78
2.16893e+77
-1.26835e+77
-4.13406e+76
-4.15001e+75
-1.54439e+74
-1.07615e+73
1.25145e+72
4.86987e+71
2.60084e+70
4.86927e+80
3.98222e+80
1.02122e+80
4.63421e+78
2.09954e+78
1.96089e+78
3.30334e+77
-1.08789e+77
-4.63398e+76
-5.4635e+75
-2.21841e+74
-1.27358e+73
8.39948e+71
5.33766e+71
3.34235e+70
3.8665e+80
3.49075e+80
1.0399e+80
7.09933e+78
1.49744e+78
1.85578e+78
4.43857e+77
-8.35485e+76
-5.0954e+76
-7.16809e+75
-3.35761e+74
-1.57691e+73
3.17123e+71
6.1545e+71
4.64306e+70
3.02833e+80
3.06773e+80
1.06066e+80
1.0018e+79
1.06261e+78
1.69825e+78
5.50504e+77
-5.04965e+76
-5.44899e+76
-9.33459e+75
-5.25959e+74
-2.00631e+73
-4.51416e+71
7.18994e+71
6.84839e+70
2.34206e+80
2.63637e+80
1.05588e+80
1.33312e+79
8.50702e+77
1.48853e+78
6.35951e+77
-9.60985e+75
-5.60754e+76
-1.19669e+76
-8.36154e+74
-2.74722e+73
-1.56827e+72
8.21109e+71
1.04451e+71
1.78418e+80
2.22924e+80
1.0329e+80
1.69793e+79
9.23393e+77
1.23617e+78
6.92612e+77
3.81595e+76
-5.48861e+76
-1.49551e+76
-1.31553e+75
-4.27758e+73
-3.11632e+72
8.6884e+71
1.60124e+71
1.32762e+80
1.87136e+80
1.00576e+80
2.09024e+79
1.34957e+78
9.67403e+77
7.19099e+77
9.08219e+76
-5.01031e+76
-1.81081e+76
-2.00345e+75
-7.21775e+73
-4.84372e+72
7.7696e+71
2.36205e+71
9.59527e+79
1.55342e+80
9.71048e+79
2.48953e+79
2.17434e+78
7.12319e+77
7.11187e+77
1.45464e+77
-4.09301e+76
-2.10058e+76
-2.90775e+75
-1.2696e+74
-6.48335e+72
4.77003e+71
3.25794e+71
6.68916e+79
1.26854e+80
9.25078e+79
2.8658e+79
3.34625e+78
5.09653e+77
6.65178e+77
1.9745e+77
-2.71658e+76
-2.29996e+76
-3.99297e+75
-2.21731e+74
-8.21537e+72
-1.0633e+71
4.10966e+71
4.4808e+79
1.00642e+80
8.58178e+79
3.15818e+79
4.74162e+78
4.01058e+77
5.82954e+77
2.39054e+77
-9.42227e+75
-2.36138e+76
-5.18065e+75
-3.70915e+74
-1.07317e+73
-1.0173e+72
4.41898e+71
2.89578e+79
7.68076e+79
7.6699e+79
3.30757e+79
6.27027e+78
4.17894e+77
4.77077e+77
2.67181e+77
1.14421e+76
-2.27755e+76
-6.3033e+75
-5.70291e+74
-1.40474e+73
-1.77681e+72
3.57015e+71
1.83226e+79
5.66784e+79
6.58009e+79
3.32433e+79
7.82715e+78
5.72824e+77
3.62549e+77
2.74099e+77
3.37787e+76
-2.04849e+76
-7.01528e+75
-7.65114e+74
-1.96987e+73
-2.0869e+72
1.61319e+71
1.14163e+79
4.11212e+79
5.49182e+79
3.2603e+79
9.31188e+78
8.60013e+77
2.58801e+77
2.62961e+77
5.15752e+76
-1.7011e+76
-7.42548e+75
-9.46507e+74
-2.90202e+73
-1.9846e+72
-8.74325e+70
7.01834e+78
2.9714e+79
4.55437e+79
3.14688e+79
1.06687e+79
1.26167e+78
1.80455e+77
2.39126e+77
6.4066e+76
-1.24146e+76
-7.76772e+75
-1.08598e+75
-3.78425e+73
-1.82215e+72
-6.44481e+71
4.23629e+78
2.14396e+79
3.76987e+79
2.99513e+79
1.18776e+79
1.75914e+78
1.35222e+77
2.09397e+77
7.35904e+76
-7.5179e+75
-7.21335e+75
-1.08059e+75
-4.00908e+73
-5.84536e+71
-4.59986e+71
2.47732e+78
1.53532e+79
3.11885e+79
2.82793e+79
1.29232e+79
2.33977e+78
1.28581e+77
1.81291e+77
7.99503e+76
-3.17705e+75
-6.40963e+75
-1.02602e+75
-3.96578e+73
-1.22034e+71
-2.33408e+71
1.40209e+78
1.08339e+79
2.56067e+79
2.64713e+79
1.37683e+79
2.98263e+78
1.638e+77
1.54853e+77
8.62433e+76
4.70168e+74
-6.02813e+75
-1.02562e+75
-4.12781e+73
-2.55116e+70
-2.09555e+71
7.49084e+77
7.43047e+78
2.06116e+79
2.43732e+79
1.43251e+79
3.64397e+78
2.40307e+77
1.2776e+77
9.15409e+76
3.92631e+75
-5.80889e+75
-1.06341e+75
-4.58598e+73
-8.15219e+70
-2.57641e+71
3.77332e+77
4.92762e+78
1.62595e+79
2.21023e+79
1.46106e+79
4.30646e+78
3.5496e+77
9.97056e+76
9.41387e+76
7.3752e+75
-5.62604e+75
-1.11567e+75
-5.2075e+73
-2.96793e+71
-3.61601e+71
1.8078e+77
3.14335e+78
1.26338e+79
1.98122e+79
1.47076e+79
4.9912e+78
5.14157e+77
7.29105e+76
9.4523e+76
1.0845e+76
-5.40121e+75
-1.15874e+75
-5.8101e+73
-7.69989e+71
-5.34773e+71
9.03582e+76
1.9095e+78
9.59556e+78
1.7357e+79
1.46304e+79
5.70279e+78
7.32364e+77
5.02598e+76
9.284e+76
1.43229e+76
-5.04813e+75
-1.16077e+75
-6.18035e+73
-1.56276e+72
-8.05007e+71
5.63679e+76
1.09085e+78
6.99222e+78
1.48117e+79
1.43592e+79
6.44262e+78
1.01862e+78
3.5144e+76
8.85606e+76
1.77277e+76
-4.57135e+75
-1.11337e+75
-6.24081e+73
-2.67195e+72
-1.28237e+72
4.67965e+76
5.70927e+77
4.86371e+78
1.23595e+79
1.39668e+79
7.20513e+78
1.38365e+78
3.22718e+76
8.1125e+76
2.08301e+76
-4.02497e+75
-1.02219e+75
-6.0238e+73
-4.07088e+72
-2.29036e+72
4.81545e+76
2.6093e+77
3.24255e+78
1.00767e+79
1.33644e+79
7.93921e+78
1.83672e+78
4.82647e+76
7.03896e+76
2.34306e+76
-3.4442e+75
-8.85648e+74
-5.58155e+73
-5.50455e+72
-3.88972e+72
5.20369e+76
9.44511e+76
2.0183e+78
7.91779e+78
1.24084e+79
8.58715e+78
2.38559e+78
9.10464e+76
5.65472e+76
2.52014e+76
-2.87468e+75
-6.91796e+74
-5.04548e+73
-5.16051e+72
-4.3561e+72
5.20125e+76
2.17168e+76
1.12854e+78
5.87853e+78
1.113e+79
9.09361e+78
3.04025e+78
1.71922e+77
4.02941e+76
2.50099e+76
-2.27981e+75
-4.24924e+74
-3.9586e+73
-3.78661e+72
-4.07499e+72
4.55864e+76
4.07506e+75
5.34304e+77
4.06216e+78
9.56098e+78
9.37053e+78
3.78013e+78
3.04661e+77
2.3376e+76
2.27847e+76
-1.68545e+75
-1.48258e+74
-3.62098e+73
-5.40064e+72
-4.16368e+72
3.44758e+76
1.1505e+76
1.81647e+77
2.52636e+78
7.75357e+78
9.33765e+78
4.58616e+78
4.98665e+77
7.79281e+75
2.02502e+76
-1.20994e+75
3.25921e+73
-5.10707e+73
-1.01547e+73
-5.87762e+72
2.18971e+76
2.34975e+76
1.55393e+76
1.31784e+78
5.83098e+78
8.94672e+78
5.43565e+78
7.53265e+77
-2.05723e+75
2.65395e+76
-2.65331e+74
3.74875e+73
-5.82431e+73
-2.53647e+73
-1.39505e+73
9.85334e+75
2.83791e+76
-2.18056e+76
4.57196e+77
3.91494e+78
8.15481e+78
6.27095e+78
1.05973e+78
-2.38635e+75
4.77678e+76
-1.60429e+75
-6.17612e+74
-2.84137e+74
-1.82983e+74
-7.19384e+73
1.19213e+74
1.94476e+76
1.49052e+76
-5.31345e+76
2.11536e+78
6.92517e+78
6.99127e+78
1.43156e+78
1.02611e+75
5.59134e+76
8.33947e+74
-1.07889e+75
-1.39977e+73
-1.30091e+74
-1.22444e+74
-3.72794e+75
-8.79198e+74
6.4455e+76
-2.22842e+77
5.58665e+77
5.26308e+78
7.45007e+78
1.95894e+78
2.0775e+76
7.75988e+76
8.80445e+75
9.11104e+74
2.13753e+75
1.93208e+75
7.35361e+74
-3.95756e+75
-8.16229e+75
6.94002e+76
-1.11762e+77
-5.83669e+77
3.29275e+78
7.48547e+78
2.61097e+78
7.553e+76
9.85369e+76
4.79753e+76
3.30338e+76
4.22653e+76
5.47521e+76
3.47164e+76
-3.42328e+75
-1.13018e+76
6.24581e+76
7.23389e+76
-1.14168e+78
1.30069e+78
7.00806e+78
3.17344e+78
1.74832e+77
7.65693e+76
1.06408e+77
9.03735e+76
1.1953e+77
1.08547e+77
6.14315e+76
-2.88974e+76
-9.57241e+75
1.21474e+77
5.36437e+76
-1.1738e+78
-2.48018e+77
6.07065e+78
3.4767e+78
3.36144e+77
2.58261e+75
2.16921e+76
4.07939e+76
5.01229e+76
5.0345e+76
5.6908e+76
1.86754e+78
8.11277e+77
4.32473e+77
-2.61505e+77
-1.2349e+78
-8.88567e+77
5.02929e+78
3.50387e+78
5.67023e+77
2.93009e+75
-5.07127e+75
-1.71651e+75
5.86728e+75
1.75475e+76
4.96295e+76
-2.33538e+79
-9.53076e+78
-3.80319e+78
-1.79052e+78
-1.72322e+78
-8.37521e+76
5.09517e+78
3.4412e+78
9.14452e+77
2.49426e+77
6.74547e+76
2.57313e+76
1.51024e+76
1.49664e+76
4.04288e+76
1.4811e+80
4.97983e+79
9.36757e+78
-1.3478e+78
-2.67841e+78
4.68243e+78
9.79064e+78
4.18804e+78
1.3043e+78
4.15008e+77
1.39853e+77
5.582e+76
2.79671e+76
1.7112e+76
3.46412e+76
1.97098e+81
5.40004e+80
2.70444e+80
1.5332e+80
9.07482e+79
5.44328e+79
2.68701e+79
1.03568e+79
3.12862e+78
8.92651e+77
2.73531e+77
1.00058e+77
4.45371e+76
2.28016e+76
2.57935e+76
2.14392e+81
1.46855e+81
1.51836e+81
8.84132e+80
5.37642e+80
3.25333e+80
1.43126e+80
4.1564e+79
1.10514e+79
2.98374e+78
9.1699e+77
3.5546e+77
1.71607e+77
9.63422e+76
1.76115e+77
-3.30068e+83
-4.23421e+82
-5.82513e+81
-5.39009e+79
8.05401e+80
5.73377e+80
2.23337e+80
6.62218e+79
1.86196e+79
5.65872e+78
2.03731e+78
9.11341e+77
4.83114e+77
3.0171e+77
4.79618e+77
2.79217e+84
-7.09271e+82
-7.86051e+82
-1.784e+82
-2.18524e+81
2.04272e+80
2.13596e+80
5.52036e+79
1.09204e+79
-6.51735e+77
-3.1763e+78
-3.00577e+78
-2.06333e+78
-1.03757e+78
-4.80072e+77
-1.18613e+85
2.15896e+84
-3.43713e+82
-4.11564e+82
-1.57413e+81
2.27054e+80
1.1977e+79
-1.28233e+79
-4.65037e+79
-3.8711e+79
-2.80282e+79
-1.93329e+79
-1.23438e+79
-6.87045e+78
-4.41508e+78
-2.66068e+86
-1.35571e+85
2.32403e+84
-4.06492e+83
8.01368e+81
4.87393e+81
-7.48462e+80
-9.67121e+80
-7.93849e+80
-6.69686e+80
-5.20868e+80
-3.73511e+80
-2.34053e+80
-1.19216e+80
-4.75818e+79
-6.1766e+86
-2.65968e+86
-8.79303e+84
2.33658e+84
-4.62173e+83
-6.4821e+81
-1.52199e+82
-1.83014e+82
-1.57741e+82
-1.2779e+82
-9.88225e+81
-7.0541e+81
-4.40219e+81
-2.24875e+81
-8.1094e+80
2.42968e+88
-7.14307e+86
-2.49583e+86
-7.89734e+84
1.85627e+84
-6.18146e+83
-1.35018e+83
-1.06495e+83
-8.1238e+82
-5.70032e+82
-3.85605e+82
-2.55077e+82
-1.60577e+82
-9.22807e+81
-3.61628e+81
-1.35525e+89
2.21722e+88
-7.5033e+86
-2.41854e+86
-7.72199e+84
1.92585e+84
-2.7339e+83
2.61411e+83
2.98998e+83
2.93888e+83
2.62948e+83
2.07151e+83
1.3512e+83
6.59983e+82
2.38209e+82
5.94194e+89
-1.14342e+89
2.05596e+88
-7.54511e+86
-2.28006e+86
-4.10709e+83
7.4668e+84
4.14813e+84
3.63659e+84
2.76589e+84
2.02513e+84
1.4391e+84
9.46786e+83
5.42792e+83
2.30334e+83
9.96018e+90
4.9199e+89
-9.98287e+88
1.96127e+88
-6.91614e+86
-1.79209e+86
3.8373e+85
4.1726e+85
3.47731e+85
3.00616e+85
2.44967e+85
1.8927e+85
1.33826e+85
8.33413e+84
4.11151e+84
4.56396e+91
2.71502e+91
1.4641e+90
-3.04938e+89
5.96641e+88
3.76806e+86
1.2098e+87
1.68206e+87
1.54399e+87
1.32754e+87
1.0931e+87
8.64119e+86
6.36735e+86
4.53929e+86
3.3691e+86
-2.87264e+93
3.69045e+91
2.5265e+91
1.55541e+90
-3.04483e+89
7.13338e+88
1.03594e+88
8.47028e+87
7.69188e+87
6.35959e+87
4.46264e+87
2.96527e+87
2.01077e+87
1.36606e+87
8.20609e+86
1.63747e+94
-2.64471e+93
4.48008e+91
2.57423e+91
1.83204e+90
-2.15404e+89
1.07096e+89
3.85552e+88
2.71401e+88
2.0584e+88
1.48858e+88
1.00344e+88
6.07155e+87
3.26784e+87
1.82378e+87
-6.99971e+94
1.36659e+94
-2.5407e+93
1.34988e+91
3.15316e+91
4.88545e+90
2.18763e+89
2.36603e+89
1.63356e+89
9.29344e+88
5.83161e+88
3.45458e+88
1.81036e+88
8.29743e+87
4.0392e+87
-9.29406e+95
-5.43916e+94
1.21318e+94
-2.33307e+93
3.57076e+91
1.91742e+91
1.26804e+90
1.1635e+88
1.56854e+89
8.57915e+88
5.97329e+88
4.22241e+88
2.77518e+88
1.60629e+88
9.34361e+87
-6.41726e+94
1.34999e+94
-2.62837e+93
2.57483e+91
2.30402e+91
1.49035e+90
-2.43284e+89
1.27208e+89
7.32125e+88
5.85999e+88
4.67328e+88
3.99848e+88
3.03207e+88
2.14787e+88
1.49597e+88
1.71124e+94
-2.84418e+93
-5.89975e+91
9.99964e+90
7.81319e+89
-4.27414e+89
-1.07456e+89
2.46735e+87
3.5278e+88
3.80824e+88
3.40658e+88
3.71611e+88
3.07839e+88
2.50003e+88
1.91378e+88
-1.94365e+93
-1.83834e+92
-3.02583e+91
-6.97011e+90
-1.58152e+90
-2.68083e+89
6.15596e+88
1.2476e+89
1.13926e+89
8.83545e+88
6.92836e+88
6.592e+88
4.30391e+88
2.91141e+88
1.90432e+88
-3.56713e+90
2.65824e+90
3.7694e+90
2.10615e+90
1.23494e+90
7.55536e+89
4.69949e+89
2.9569e+89
1.89348e+89
1.37036e+89
1.25821e+89
1.51667e+89
1.5527e+88
3.63301e+87
1.2625e+87
5.22664e+90
1.44645e+90
8.43628e+89
5.18265e+89
3.14113e+89
1.93798e+89
1.24293e+89
8.44124e+88
7.17428e+88
1.30938e+89
3.22039e+88
-4.60088e+87
2.25658e+86
2.22566e+85
1.57968e+85
5.66644e+89
2.11676e+89
6.43902e+88
1.74563e+88
3.35492e+87
-8.92859e+86
-1.76225e+87
-1.78233e+87
-1.60128e+87
8.00141e+88
9.94647e+88
1.35906e+88
-9.44716e+86
-7.09435e+86
-3.46327e+86
-9.18607e+88
-3.45795e+88
-1.34141e+88
-6.59872e+87
-3.66452e+87
-1.66187e+87
6.85095e+84
1.59455e+87
3.01389e+87
2.65903e+88
8.02614e+88
5.40885e+88
3.13325e+88
1.78903e+88
1.01438e+88
9.86285e+87
3.5221e+87
1.80668e+87
1.20224e+87
9.1692e+86
6.55355e+86
3.16942e+86
6.2226e+85
-1.20185e+86
-3.81061e+86
5.49297e+87
1.05921e+88
1.06051e+88
8.5621e+87
6.45047e+87
9.54527e+85
4.83486e+85
-8.36341e+84
-1.88042e+85
-2.29317e+85
-2.10893e+85
1.3386e+84
1.75324e+85
1.70948e+85
5.96891e+85
-7.05587e+85
-1.46052e+86
-1.3506e+86
-1.09456e+86
-9.13727e+85
-7.42609e+85
-2.49386e+85
-1.6294e+85
-1.32257e+85
-1.15211e+85
-9.39057e+84
-5.89722e+84
-2.63054e+84
9.59657e+83
1.15021e+85
2.68818e+85
1.87726e+85
9.95805e+84
5.99684e+84
4.16996e+84
-1.01703e+85
-4.41359e+84
-1.62386e+84
-5.94817e+83
-1.87198e+83
-6.59366e+82
-3.75615e+83
-6.88697e+83
-7.58474e+83
-8.03465e+83
4.20674e+84
6.32667e+84
5.68986e+84
4.63586e+84
3.652e+84
1.99764e+84
7.94964e+83
3.31613e+83
1.72824e+83
1.0289e+83
5.34726e+82
4.43641e+81
-5.51013e+82
-1.81975e+83
-4.94526e+83
-8.5107e+83
-7.45756e+83
-5.52449e+83
-4.12322e+83
-3.12651e+83
-2.10735e+83
-7.81853e+82
-4.17886e+82
-2.83715e+82
-2.14206e+82
-1.47127e+82
-6.68649e+81
-1.57333e+81
-5.46227e+81
-3.52746e+82
-1.00927e+83
-1.15005e+83
-9.74763e+82
-7.66549e+82
-5.86583e+82
-3.42311e+81
-1.29146e+81
2.01066e+80
4.3566e+80
4.31463e+80
1.76797e+80
-3.64171e+80
-5.72894e+80
1.3253e+79
1.77012e+81
4.5407e+81
4.67274e+81
3.70862e+81
2.74149e+81
1.90386e+81
1.84971e+81
6.19818e+80
4.45891e+80
3.85992e+80
3.35027e+80
2.4283e+80
9.25951e+79
-1.02369e+80
-3.47177e+80
-4.94703e+80
-3.95922e+80
-2.0148e+80
-1.2219e+80
-1.36791e+80
-2.31593e+80
3.50051e+80
1.46509e+80
4.82869e+79
1.43619e+79
3.76254e+78
6.35036e+78
1.84801e+79
2.26989e+79
-1.43575e+77
-6.43464e+79
-1.49263e+80
-1.62475e+80
-1.52886e+80
-1.67308e+80
-2.33711e+80
-7.46195e+79
-2.9358e+79
-1.14173e+79
-5.38907e+78
-2.7379e+78
-8.43374e+77
1.33327e+78
5.20546e+78
1.21126e+79
1.93722e+79
2.01881e+79
1.12525e+79
-6.37888e+78
-4.31134e+79
-1.17077e+80
9.40084e+78
3.5693e+78
1.73047e+78
1.08447e+78
7.58476e+77
4.72679e+77
2.00607e+77
9.90835e+76
4.94403e+77
1.83456e+78
3.30281e+78
1.37602e+78
-6.67767e+78
-3.00559e+79
-8.38018e+79
-2.83083e+77
-1.07767e+77
-8.50467e+76
-6.81035e+76
-5.40703e+76
-3.19634e+76
-2.1343e+75
1.34708e+76
-7.50995e+75
-7.23566e+76
-1.21418e+77
-6.95044e+76
-1.26581e+78
-1.14635e+79
-4.34521e+79
-5.92347e+76
-2.209e+76
-1.34569e+76
-1.02902e+76
-8.56969e+75
-6.74625e+75
-4.03408e+75
2.71909e+73
5.80243e+75
1.93616e+76
4.78569e+76
1.05395e+77
2.31849e+77
1.03213e+77
-1.51658e+78
-4.6305e+75
-2.07505e+75
-6.76214e+74
-1.71562e+74
-3.36983e+73
-1.4585e+74
-5.63121e+74
-1.7581e+75
-4.17136e+75
3.85422e+75
2.85649e+76
6.3553e+76
1.33122e+77
2.87445e+77
5.53886e+77
1.10346e+75
4.66094e+74
2.01892e+74
1.03689e+74
5.92221e+73
2.58374e+73
-8.87319e+73
-1.10565e+75
-4.04784e+75
4.56212e+75
3.11024e+76
6.51622e+76
1.12397e+77
1.88207e+77
3.18755e+77
-1.1969e+74
-4.87558e+73
-2.51464e+73
-1.598e+73
-1.10259e+73
-8.26121e+72
-8.11813e+73
-1.13637e+75
-4.26263e+75
6.23905e+75
3.80879e+76
7.84357e+76
1.30788e+77
2.00592e+77
2.94569e+77
2.79434e+72
1.10524e+72
9.86081e+71
8.59921e+71
9.97505e+71
7.96872e+70
-8.04494e+73
-1.29667e+75
-4.75274e+75
5.53203e+75
3.95006e+76
8.59916e+76
1.47658e+77
2.29209e+77
3.35131e+77
7.00343e+71
2.76165e+71
1.95491e+71
2.06568e+71
4.90341e+71
1.9398e+70
-8.45709e+73
-1.50055e+75
-5.72837e+75
1.14625e+75
3.09276e+76
7.53816e+76
1.37623e+77
2.2177e+77
3.31896e+77
7.96793e+70
4.73872e+70
3.73576e+70
7.7689e+70
3.97641e+71
4.33437e+71
-8.48626e+73
-1.74653e+75
-6.7666e+75
-6.48693e+75
1.549e+76
5.0229e+76
9.9204e+76
1.65819e+77
2.53741e+77
-1.5371e+70
2.32161e+69
2.40999e+70
8.25563e+70
4.2152e+71
1.01299e+72
-7.81531e+73
-2.05799e+75
-7.10574e+75
-1.20012e+76
-1.43809e+75
1.85438e+76
4.70596e+76
8.56528e+76
1.36753e+77
6.47743e+69
1.39785e+70
3.38997e+70
9.70134e+70
4.44573e+71
1.46852e+72
-6.49692e+73
-2.38731e+75
-7.50743e+75
-1.2936e+76
-1.22785e+76
-6.02711e+75
5.31935e+75
2.16938e+76
4.40218e+76
5.17773e+69
1.52302e+70
3.90187e+70
1.09746e+71
4.67457e+71
1.75737e+72
-5.173e+73
-2.85937e+75
-7.12016e+75
-1.08758e+76
-1.34323e+76
-1.41736e+76
-1.26652e+76
-8.79555e+75
-2.17108e+75
6.10731e+69
1.81175e+70
4.67817e+70
1.28191e+71
5.00548e+71
2.00997e+72
-5.05168e+73
-2.21353e+75
-5.51426e+75
-8.22487e+75
-1.06914e+76
-1.28517e+76
-1.45501e+76
-1.56446e+76
-1.58646e+76
7.26016e+69
2.18857e+70
5.7224e+70
1.53813e+71
5.43237e+71
2.29975e+72
-5.15435e+73
-1.32058e+75
-3.32624e+75
-5.05982e+75
-6.75913e+75
-8.43728e+75
-1.01402e+76
-1.18825e+76
-1.3556e+76
8.465e+69
2.59477e+70
6.87094e+70
1.82771e+71
5.89043e+71
2.52092e+72
-5.66239e+73
-7.01962e+74
-1.53548e+75
-2.34595e+75
-3.1789e+75
-4.04958e+75
-5.0023e+75
-6.06026e+75
-7.20038e+75
9.70702e+69
3.01752e+70
8.07323e+70
2.13554e+71
6.44306e+71
2.65289e+72
-2.41964e+73
-2.37233e+74
-5.03293e+74
-7.78125e+74
-1.0656e+75
-1.38283e+75
-1.74766e+75
-2.1652e+75
-2.63259e+75
1.11141e+70
3.50308e+70
9.47355e+70
2.50054e+71
7.19582e+71
2.61915e+72
8.89922e+72
-2.76562e+73
-9.41695e+73
-1.62062e+74
-2.32946e+74
-3.12727e+74
-4.07121e+74
-5.1735e+74
-6.43218e+74
1.26802e+70
4.05845e+70
1.11334e+71
2.95399e+71
8.30366e+71
2.59739e+72
1.14297e+73
1.65405e+73
9.05391e+72
-1.06327e+72
-1.21922e+73
-2.48835e+73
-3.97675e+73
-5.71189e+73
-7.7258e+73
1.43184e+70
4.64157e+70
1.2903e+71
3.45704e+71
9.82182e+71
3.04495e+72
8.04972e+72
1.24747e+73
1.38563e+73
1.40417e+73
1.37596e+73
1.33823e+73
1.29003e+73
1.22172e+73
1.12327e+73
1.5506e+70
5.16707e+70
1.47134e+71
3.91246e+71
9.69386e+71
2.05322e+72
3.49172e+72
4.70816e+72
5.48582e+72
5.99582e+72
6.36926e+72
6.7162e+72
7.05651e+72
7.37724e+72
7.66311e+72
1.17312e+70
3.79127e+70
9.80687e+70
2.17819e+71
4.23733e+71
7.15743e+71
1.02158e+72
1.25303e+72
1.41346e+72
1.5394e+72
1.64501e+72
1.74229e+72
1.83306e+72
1.91422e+72
1.98454e+72
5.21098e+69
1.64857e+70
3.79739e+70
7.13795e+70
1.14501e+71
1.62211e+71
2.05894e+71
2.38318e+71
2.60867e+71
2.79406e+71
2.96195e+71
3.11216e+71
3.24124e+71
3.34534e+71
3.42447e+71
6.42744e+68
3.21792e+69
7.45949e+69
1.2798e+70
1.83169e+70
2.34695e+70
2.78019e+70
3.10308e+70
3.33441e+70
3.5185e+70
3.68089e+70
3.82295e+70
3.93777e+70
4.02105e+70
4.07258e+70
-5.42087e+68
-3.18725e+68
1.28162e+68
6.43917e+68
1.13675e+69
1.56238e+69
1.906e+69
2.16592e+69
2.35703e+69
2.50425e+69
2.62321e+69
2.71659e+69
2.78287e+69
2.82165e+69
2.83337e+69
-3.59905e+68
-4.15654e+68
-4.00399e+68
-3.57309e+68
-3.005e+68
-2.43155e+68
-1.9075e+68
-1.45416e+68
-1.07813e+68
-7.72844e+67
-5.25416e+67
-3.24048e+67
-1.6021e+67
-2.75472e+66
7.53549e+66
-1.0746e+68
-1.31509e+68
-1.33915e+68
-1.28046e+68
-1.17595e+68
-1.0566e+68
-9.35931e+67
-8.22568e+67
-7.24382e+67
-6.42761e+67
-5.73353e+67
-5.12216e+67
-4.57325e+67
-4.07703e+67
-3.63324e+67
-1.74544e+67
-2.20035e+67
-2.27011e+67
-2.19587e+67
-2.04362e+67
-1.86222e+67
-1.67257e+67
-1.48657e+67
-1.32407e+67
-1.19188e+67
-1.07839e+67
-9.75447e+66
-8.80407e+66
-7.92519e+66
-7.11882e+66
-1.32545e+66
-1.84747e+66
-1.99698e+66
-1.97967e+66
-1.8682e+66
-1.71586e+66
-1.54941e+66
-1.38478e+66
-1.2418e+66
-1.12466e+66
-1.02108e+66
-9.24669e+65
-8.34288e+65
-7.49885e+65
-6.71627e+65
4.86647e+64
1.42175e+64
-1.59169e+64
-3.39042e+64
-4.29611e+64
-4.61966e+64
-4.59445e+64
-4.41562e+64
-4.20606e+64
-3.98556e+64
-3.73909e+64
-3.46897e+64
-3.18573e+64
-2.89949e+64
-2.61589e+64
2.13306e+64
2.08975e+64
1.74123e+64
1.4092e+64
1.1253e+64
8.96184e+63
7.14738e+63
5.75998e+63
4.72724e+63
3.93322e+63
3.28949e+63
2.75235e+63
2.30035e+63
1.91987e+63
1.60403e+63
2.62053e+63
2.40944e+63
2.03498e+63
1.7069e+63
1.42377e+63
1.1882e+63
9.94939e+62
8.43485e+62
7.26882e+62
6.31788e+62
5.49551e+62
4.76683e+62
4.1185e+62
3.54418e+62
3.04312e+62
4.31209e+62
3.06899e+62
2.03545e+62
1.43317e+62
1.05824e+62
8.10118e+61
6.4019e+61
5.23744e+61
4.40815e+61
3.76931e+61
3.24352e+61
2.7948e+61
2.40565e+61
2.0663e+61
1.77453e+61
7.77291e+61
5.89047e+61
3.86408e+61
2.57558e+61
1.75904e+61
1.23667e+61
8.9744e+60
6.74934e+60
5.22909e+60
4.12348e+60
3.2826e+60
2.62825e+60
2.11287e+60
1.70406e+60
1.38201e+60
7.4772e+60
6.32385e+60
4.57136e+60
3.27539e+60
2.36205e+60
1.73662e+60
1.31373e+60
1.02581e+60
8.16931e+59
6.55845e+59
5.27919e+59
4.25311e+59
3.42709e+59
2.76211e+59
2.22898e+59
2.69347e+59
2.20835e+59
1.61711e+59
1.22003e+59
9.29024e+58
7.225e+58
5.80963e+58
4.80331e+58
4.01122e+58
3.34876e+58
2.78728e+58
2.312e+58
1.9113e+58
1.57607e+58
1.29617e+58
-2.77262e+58
-1.73682e+58
-1.26039e+58
-9.31091e+57
-6.91775e+57
-5.20891e+57
-4.022e+57
-3.17917e+57
-2.54469e+57
-2.04585e+57
-1.64579e+57
-1.32254e+57
-1.06109e+57
-8.4959e+56
-6.82479e+56
-1.39714e+58
-8.00747e+57
-4.32185e+57
-2.55418e+57
-1.62569e+57
-1.10203e+57
-7.91361e+56
-5.96308e+56
-4.63773e+56
-3.66973e+56
-2.93005e+56
-2.35065e+56
-1.89066e+56
-1.52242e+56
-1.23251e+56
-2.96766e+57
-1.92071e+57
-1.09822e+57
-6.55813e+56
-4.12197e+56
-2.73176e+56
-1.90155e+56
-1.37435e+56
-1.01701e+56
-7.62894e+55
-5.77234e+55
-4.39518e+55
-3.36344e+55
-2.58523e+55
-2.00272e+55
-4.44584e+56
-2.62127e+56
-1.50262e+56
-9.19665e+55
-5.98969e+55
-4.13122e+55
-2.98533e+55
-2.22181e+55
-1.6808e+55
-1.28142e+55
-9.79935e+54
-7.50475e+54
-5.75265e+54
-4.41517e+54
-3.40167e+54
-7.73066e+55
-3.84798e+55
-1.8188e+55
-9.74733e+54
-5.7824e+54
-3.7212e+54
-2.55891e+54
-1.84745e+54
-1.37277e+54
-1.03484e+54
-7.85903e+53
-5.99229e+53
-4.57696e+53
-3.50196e+53
-2.6928e+53
-7.70044e+54
-4.82512e+54
-2.45192e+54
-1.36306e+54
-8.11856e+53
-5.12858e+53
-3.39902e+53
-2.32924e+53
-1.62448e+53
-1.14214e+53
-8.0708e+52
-5.72825e+52
-4.08365e+52
-2.92906e+52
-2.11844e+52
7.98604e+53
2.2493e+53
3.80791e+52
-1.40113e+52
-2.57042e+52
-2.56159e+52
-2.21802e+52
-1.80877e+52
-1.42203e+52
-1.09106e+52
-8.2357e+51
-6.14567e+51
-4.55062e+51
-3.3602e+51
-2.47621e+51
2.77238e+53
1.46482e+53
6.94547e+52
3.60597e+52
2.02687e+52
1.21604e+52
7.69373e+51
5.0636e+51
3.41336e+51
2.33085e+51
1.60401e+51
1.11081e+51
7.74379e+50
5.43882e+50
3.87711e+50
2.53642e+52
1.51057e+52
8.04786e+51
4.67604e+51
2.92509e+51
1.93776e+51
1.33938e+51
9.52097e+50
6.85898e+50
4.96249e+50
3.5928e+50
2.60181e+50
1.88706e+50
1.37474e+50
1.01191e+50
7.82609e+50
4.22456e+50
2.15272e+50
1.32181e+50
8.9771e+49
6.44879e+49
4.78542e+49
3.60819e+49
2.72802e+49
2.05425e+49
1.53818e+49
1.14673e+49
8.53592e+48
6.37783e+48
4.80465e+48
-1.47139e+50
-6.81812e+49
-3.43582e+49
-1.84217e+49
-1.07767e+49
-6.78995e+48
-4.53845e+48
-3.16895e+48
-2.27199e+48
-1.64894e+48
-1.202e+48
-8.77787e+47
-6.42425e+47
-4.71925e+47
-3.51514e+47
-5.59354e+49
-2.53168e+49
-1.10023e+49
-5.36068e+48
-2.89639e+48
-1.70296e+48
-1.07232e+48
-7.11133e+47
-4.87944e+47
-3.41606e+47
-2.42128e+47
-1.73165e+47
-1.24833e+47
-9.07758e+46
-6.71006e+46
-8.68419e+48
-4.41552e+48
-2.03339e+48
-1.04586e+48
-5.89387e+47
-3.56701e+47
-2.27968e+47
-1.51351e+47
-1.02819e+47
-7.07798e+46
-4.91604e+46
-3.44097e+46
-2.42804e+46
-1.73029e+46
-1.25141e+46
-6.307e+47
-3.4668e+47
-1.71809e+47
-9.45524e+46
-5.65803e+46
-3.60106e+46
-2.39751e+46
-1.64411e+46
-1.14548e+46
-8.04546e+45
-5.68116e+45
-4.03235e+45
-2.88098e+45
-2.07769e+45
-1.51595e+45
-2.17025e+46
-9.30364e+45
-4.07196e+45
-2.24615e+45
-1.41518e+45
-9.5547e+44
-6.71747e+44
-4.8233e+44
-3.48897e+44
-2.52824e+44
-1.8343e+44
-1.33434e+44
-9.75807e+43
-7.19818e+43
-5.34822e+43
1.79007e+45
8.27123e+44
4.49887e+44
2.38409e+44
1.36669e+44
8.45337e+43
5.56056e+43
3.82281e+43
2.69721e+43
1.92812e+43
1.38788e+43
1.00385e+43
7.29522e+42
5.32612e+42
3.93317e+42
1.11776e+45
4.32003e+44
1.65643e+44
7.21522e+43
3.55685e+43
1.94479e+43
1.15878e+43
7.37164e+42
4.90081e+42
3.35079e+42
2.33481e+42
1.64949e+42
1.17831e+42
8.50016e+41
6.23155e+41
1.84819e+44
8.41372e+43
3.44395e+43
1.61358e+43
8.40479e+42
4.76405e+42
2.88395e+42
1.82897e+42
1.1952e+42
7.9712e+41
5.3991e+41
3.70135e+41
2.56483e+41
1.79668e+41
1.27572e+41
9.75405e+42
5.56737e+42
2.6515e+42
1.38842e+42
7.90903e+41
4.82432e+41
3.09554e+41
2.05323e+41
1.38965e+41
9.54201e+40
6.62391e+40
4.63528e+40
3.26917e+40
2.32573e+40
1.66767e+40
2.03479e+41
1.13867e+40
-2.73605e+38
-4.24255e+38
1.33358e+39
2.08191e+39
2.15332e+39
1.92686e+39
1.605e+39
1.28738e+39
1.01159e+39
7.85168e+38
6.0496e+38
4.63832e+38
3.52285e+38
8.76531e+40
1.68981e+40
5.37986e+37
-1.7589e+39
-1.51354e+39
-1.12285e+39
-8.1272e+38
-5.86239e+38
-4.23014e+38
-3.06037e+38
-2.21991e+38
-1.61155e+38
-1.17091e+38
-8.51204e+37
-6.19277e+37
-9.76628e+39
-2.19121e+39
-6.57544e+38
-1.31922e+38
-3.82241e+36
2.01322e+37
1.86631e+37
1.2607e+37
7.38081e+36
3.88333e+36
1.75533e+36
5.27588e+35