/*--------------------------------*- C++ -*----------------------------------*\
  =========                 |
  \\      /  F ield         | OpenFOAM: The Open Source CFD Toolbox
   \\    /   O peration     | Website:  https://openfoam.org
    \\  /    A nd           | Version:  7
     \\/     M anipulation  |
\*---------------------------------------------------------------------------*/
FoamFile
{
    version     2.0;
    format      ascii;
    class       volScalarField;
    location    "3.5";
    object      T;
}
// * * * * * * * * * * * * * * * * * * * * * * * * * * * * * * * * * * * * * //

dimensions      [0 0 0 1 0 0 0];

internalField   nonuniform List<scalar> 
32100
(
4.44902e+99
-7.62013e+98
-1.29209e+97
1.35194e+97
-1.14305e+96
-4.46127e+94
1.71083e+94
-6.51763e+92
-2.19358e+92
2.34276e+91
2.19249e+89
-6.52555e+88
4.98523e+86
3.09698e+86
1.31716e+86
-8.11108e+98
-1.82485e+97
1.447e+97
-1.18143e+96
-4.82148e+94
1.76384e+94
-6.47751e+92
-2.25575e+92
2.42406e+91
6.46485e+89
-1.00062e+89
-8.59455e+88
1.73547e+87
2.23861e+86
8.4042e+85
-2.70656e+97
1.58787e+97
-1.23886e+96
-5.28027e+94
1.84325e+94
-6.46909e+92
-2.34921e+92
2.46425e+91
2.049e+89
-5.18259e+89
-9.91493e+88
-5.19694e+88
2.10737e+87
2.86274e+86
7.157e+85
1.77572e+97
-1.33167e+96
-6.58704e+94
1.94751e+94
-4.96096e+92
-2.49311e+92
2.3591e+91
5.5325e+89
-4.45453e+89
-3.50967e+88
-4.9008e+88
-2.29627e+88
2.09207e+87
3.81366e+86
5.41232e+85
-1.36972e+96
-9.50195e+94
1.4291e+94
-3.22529e+92
-1.19548e+92
2.01696e+91
-1.1205e+90
-2.0286e+89
2.62377e+88
-1.35833e+88
-1.51569e+88
-6.83857e+87
1.84985e+87
3.9352e+86
3.30052e+85
-8.19178e+94
-1.19561e+93
-6.52362e+93
-3.26913e+91
1.60646e+92
-3.74509e+90
-2.01848e+90
2.24711e+89
1.86125e+88
-7.11217e+87
-1.43626e+87
-5.25883e+86
1.39683e+87
3.08785e+86
1.47158e+85
2.65176e+94
-2.1873e+94
-6.14433e+93
2.02503e+92
1.33359e+92
-3.21577e+90
-1.61716e+90
1.82764e+89
1.5625e+88
-4.41523e+87
7.00775e+86
9.38106e+86
8.56564e+86
1.85024e+86
2.75662e+84
1.22541e+93
-1.98253e+94
-5.71454e+93
1.12598e+92
1.29932e+92
-1.246e+90
-1.66812e+90
1.50685e+89
1.83031e+88
-4.39913e+87
4.16148e+86
6.87543e+86
4.03763e+86
8.24288e+85
-2.66501e+84
4.47835e+92
-1.76552e+94
-5.60322e+93
4.747e+91
1.26988e+92
2.65482e+89
-1.68373e+90
1.24641e+89
2.01408e+88
-4.44424e+87
-1.22465e+86
2.48021e+86
1.35025e+86
2.44546e+85
-3.50353e+84
1.65186e+92
-1.59069e+94
-5.44385e+93
-1.57988e+91
1.22618e+92
1.77853e+90
-1.66768e+90
9.72553e+88
2.17674e+88
-4.08291e+87
-3.55037e+86
7.15477e+85
2.52287e+85
2.27763e+84
-2.334e+84
-4.15892e+92
-1.42377e+94
-5.27553e+93
-7.82167e+91
1.17482e+92
3.25328e+90
-1.62779e+90
6.97192e+88
2.29392e+88
-3.52917e+87
-4.15719e+86
3.09391e+85
-2.526e+84
-2.14574e+84
-9.98853e+83
-9.15241e+92
-1.28128e+94
-5.08072e+93
-1.37325e+92
1.11724e+92
4.64845e+90
-1.56532e+90
4.28785e+88
2.34994e+88
-2.93427e+87
-4.16744e+86
2.20501e+85
-3.1871e+84
-1.4439e+84
-2.21415e+83
-1.96358e+93
-1.18342e+94
-4.70948e+93
-1.80016e+92
1.05459e+92
5.91987e+90
-1.48332e+90
1.77222e+88
2.34103e+88
-2.36874e+87
-4.01371e+86
1.66621e+85
-1.35749e+84
-6.34689e+83
8.20539e+81
-5.48206e+93
-9.81837e+93
-3.75142e+93
-1.85663e+92
9.00933e+91
6.87335e+90
-1.36303e+90
-4.31569e+87
2.25983e+88
-1.85318e+87
-4.00223e+86
1.27943e+85
-4.8742e+83
-3.73617e+83
3.25147e+82
-6.73333e+93
-7.01161e+93
-2.95164e+93
-1.794e+92
7.06581e+91
6.70861e+90
-1.12652e+90
-2.32425e+88
2.11559e+88
-1.396e+87
-4.2486e+86
1.05946e+85
-1.89262e+83
-3.62138e+83
3.73943e+82
-3.58933e+93
-5.03402e+93
-2.52593e+93
-1.85559e+92
5.76362e+91
6.5132e+90
-9.23297e+89
-4.13629e+88
2.00909e+88
-9.49326e+86
-4.5526e+86
7.01145e+84
1.66776e+83
-4.6808e+83
3.88069e+82
-1.85887e+93
-4.0999e+93
-2.28668e+93
-1.97612e+92
5.05489e+91
6.89923e+90
-7.99428e+89
-5.88962e+88
1.93357e+88
-4.97313e+86
-4.72197e+86
1.25898e+84
6.78817e+83
-5.62882e+83
3.50796e+82
-1.70707e+93
-3.589e+93
-2.15831e+93
-2.13711e+92
4.55995e+91
7.38069e+90
-6.83152e+89
-7.57257e+88
1.83242e+88
-3.58274e+85
-4.77809e+86
-5.56776e+84
1.1872e+84
-5.97909e+83
2.5311e+82
-1.65346e+93
-3.17315e+93
-2.03238e+93
-2.28926e+92
4.04662e+91
7.8781e+90
-5.54467e+89
-9.22356e+88
1.69364e+88
4.28561e+86
-4.73431e+86
-1.29263e+85
1.62295e+84
-5.81388e+83
1.15143e+82
-1.6556e+93
-2.79181e+93
-1.89781e+93
-2.42452e+92
3.48946e+91
8.34403e+90
-4.07029e+89
-1.07505e+89
1.5106e+88
8.82643e+86
-4.59822e+86
-2.08229e+85
1.99254e+84
-5.45822e+83
-4.70493e+81
-1.69686e+93
-2.43908e+93
-1.75384e+93
-2.54072e+92
2.89336e+91
8.74596e+90
-2.39289e+89
-1.20737e+89
1.28195e+88
1.32078e+87
-4.35965e+86
-2.88459e+85
2.21077e+84
-4.86187e+83
-2.19214e+82
-1.72056e+93
-2.10625e+93
-1.6073e+93
-2.64158e+92
2.26199e+91
9.06469e+90
-5.13701e+88
-1.31444e+89
1.00899e+88
1.74083e+87
-4.02559e+86
-3.64513e+85
2.20583e+84
-3.98319e+83
-3.67537e+82
-1.70223e+93
-1.79863e+93
-1.46387e+93
-2.72253e+92
1.59933e+91
9.27733e+90
1.55347e+89
-1.39028e+89
6.89751e+87
2.14203e+87
-3.61185e+86
-4.40046e+85
2.06462e+84
-3.04913e+83
-4.76787e+82
-1.64628e+93
-1.51927e+93
-1.3238e+93
-2.77864e+92
9.07092e+90
9.32372e+90
3.78944e+89
-1.42757e+89
3.19378e+87
2.51565e+87
-3.11404e+86
-5.18579e+85
1.80596e+84
-2.14387e+83
-5.54387e+82
-1.5649e+93
-1.27437e+93
-1.19014e+93
-2.81279e+92
1.90883e+90
9.18325e+90
6.1726e+89
-1.41464e+89
-1.07579e+87
2.838e+87
-2.50095e+86
-6.01981e+85
1.3935e+84
-1.25145e+83
-6.14712e+82
-1.46534e+93
-1.064e+93
-1.06112e+93
-2.82159e+92
-5.41789e+90
8.85121e+90
8.66414e+89
-1.33651e+89
-5.94466e+87
3.08643e+87
-1.74072e+86
-6.95423e+85
7.66676e+83
-3.3171e+82
-6.75113e+82
-1.35541e+93
-8.80591e+92
-9.36931e+92
-2.80651e+92
-1.28643e+91
8.30979e+90
1.1223e+90
-1.17853e+89
-1.13826e+88
3.22964e+87
-7.92232e+85
-7.90305e+85
-1.80266e+83
6.70906e+82
-7.29846e+82
-1.25603e+93
-7.22915e+92
-8.22246e+92
-2.77652e+92
-2.03721e+91
7.53391e+90
1.37908e+90
-9.23592e+88
-1.72344e+88
3.24563e+87
3.67734e+85
-8.66016e+85
-1.50275e+84
1.69514e+83
-7.4907e+82
-1.17437e+93
-5.97134e+92
-7.19874e+92
-2.7339e+92
-2.78565e+91
6.50462e+90
1.63075e+90
-5.53308e+88
-2.33038e+88
3.05746e+87
1.73582e+86
-9.22165e+85
-3.23116e+84
2.65693e+83
-7.32061e+82
-1.0979e+93
-5.04408e+92
-6.27972e+92
-2.66874e+92
-3.51565e+91
5.19709e+90
1.86782e+90
-4.54572e+87
-2.93449e+88
2.58964e+87
3.29336e+86
-9.53141e+85
-5.44436e+84
3.51609e+83
-6.81486e+82
-1.00742e+93
-4.3225e+92
-5.40456e+92
-2.56868e+92
-4.21234e+91
3.58383e+90
2.07713e+90
6.27224e+88
-3.48936e+88
1.77113e+87
5.03684e+86
-9.31159e+85
-7.96624e+84
4.06306e+83
-5.8636e+82
-8.96513e+92
-3.62224e+92
-4.51948e+92
-2.43855e+92
-4.8598e+91
1.64383e+90
2.23923e+90
1.49149e+89
-3.91237e+88
4.95581e+86
6.94077e+86
-8.406e+85
-1.06455e+85
4.16611e+83
-4.67635e+82
-7.86845e+92
-2.92198e+92
-3.70151e+92
-2.28388e+92
-5.4316e+91
-6.42498e+89
2.32495e+90
2.56074e+89
-4.06256e+88
-1.35569e+87
8.91889e+86
-6.94672e+85
-1.4211e+85
3.88452e+83
-3.40248e+82
-7.00329e+92
-2.38134e+92
-3.03198e+92
-2.11094e+92
-5.92725e+91
-3.28531e+90
2.30207e+90
3.81609e+89
-3.74056e+88
-3.87971e+87
1.07184e+87
-4.48333e+85
-1.96062e+85
2.82453e+83
-1.63722e+82
-6.29579e+92
-2.08797e+92
-2.49446e+92
-1.92706e+92
-6.35518e+91
-6.28717e+90
2.131e+90
5.18739e+89
-2.70416e+88
-7.09779e+87
1.18373e+87
8.67214e+83
-2.66452e+85
-2.26593e+82
1.40578e+82
-5.61883e+92
-1.90564e+92
-2.01687e+92
-1.73595e+92
-6.70491e+91
-9.6231e+90
1.75514e+90
6.55934e+89
-6.93177e+87
-1.08299e+88
1.13222e+87
7.91307e+85
-3.48855e+85
-7.5953e+83
6.67287e+82
-4.97464e+92
-1.72466e+92
-1.58831e+92
-1.54541e+92
-6.96575e+91
-1.31886e+91
1.15191e+90
7.80957e+89
2.51436e+88
-1.45408e+88
7.76602e+86
2.02507e+86
-4.24424e+85
-2.34588e+84
1.47056e+83
-4.37788e+92
-1.57788e+92
-1.23324e+92
-1.35765e+92
-7.11445e+91
-1.67813e+91
3.18888e+89
8.77423e+89
7.04343e+88
-1.7321e+88
-3.60226e+85
3.56095e+86
-4.3809e+85
-5.18279e+84
2.33008e+83
-3.81812e+92
-1.48851e+92
-9.53854e+91
-1.16701e+92
-7.08635e+91
-2.00319e+91
-7.42966e+89
9.23619e+89
1.27698e+89
-1.77665e+88
-1.37832e+87
5.04975e+86
-3.27802e+85
-9.4955e+84
2.50303e+83
-3.28459e+92
-1.44884e+92
-7.49625e+91
-9.78942e+91
-6.77489e+91
-2.2676e+91
-1.99997e+90
8.95266e+89
1.91837e+89
-1.42814e+88
-3.18209e+87
5.97787e+86
-1.0659e+84
-1.5418e+85
3.60683e+82
-2.75698e+92
-1.43014e+92
-6.16476e+91
-7.99079e+91
-6.21695e+91
-2.45731e+91
-3.37033e+90
7.63926e+89
2.55418e+89
-5.89474e+87
-5.21497e+87
5.72096e+86
6.3227e+85
-2.1995e+85
-7.25712e+83
-2.23196e+92
-1.37844e+92
-5.39201e+91
-6.32114e+91
-5.55416e+91
-2.56749e+91
-4.74522e+90
5.3504e+89
3.14337e+89
7.47233e+87
-7.03972e+87
3.53009e+86
1.38778e+86
-2.44756e+85
-2.09579e+84
-1.75055e+92
-1.26559e+92
-4.91298e+91
-4.87937e+91
-4.86803e+91
-2.60111e+91
-6.01888e+90
2.15543e+89
3.66566e+89
2.5139e+88
-7.98904e+87
-4.89306e+85
2.01223e+86
-2.07938e+85
-3.80632e+84
-1.35104e+92
-1.1158e+92
-4.49968e+91
-3.75059e+91
-4.19821e+91
-2.56834e+91
-7.13347e+90
-1.67945e+89
3.76679e+89
4.506e+88
-8.05153e+87
-5.20909e+86
2.48008e+86
-1.25417e+85
-5.6901e+84
-1.03923e+92
-9.67482e+91
-4.16044e+91
-2.93671e+91
-3.57481e+91
-2.48813e+91
-8.06684e+90
-5.69178e+89
3.52008e+89
6.13281e+88
-7.45314e+87
-9.57839e+86
2.47485e+86
-1.8225e+84
-1.0335e+85
-8.02968e+91
-8.40764e+91
-3.93812e+91
-2.36473e+91
-3.01966e+91
-2.38112e+91
-8.86383e+90
-9.66936e+89
3.14556e+89
7.30584e+88
-5.61744e+87
-1.19967e+87
1.94513e+86
9.16035e+84
-6.35753e+84
-6.21495e+91
-7.35096e+91
-3.8247e+91
-1.98197e+91
-2.54181e+91
-2.26378e+91
-9.59189e+90
-1.38033e+90
2.67367e+89
8.316e+88
-3.64803e+87
-1.30652e+87
1.43734e+86
1.04852e+85
-3.09794e+84
-4.79011e+91
-6.42432e+91
-3.7986e+91
-1.7669e+91
-2.13651e+91
-2.13124e+91
-1.0226e+91
-1.80681e+90
2.19038e+89
9.26417e+88
-2.02293e+87
-1.42554e+87
1.16436e+86
1.17432e+85
-2.08549e+84
-3.63998e+91
-5.55957e+91
-3.76957e+91
-1.66664e+91
-1.78608e+91
-1.96834e+91
-1.06442e+91
-2.23389e+90
1.62635e+89
1.0291e+89
-3.99484e+86
-1.56114e+87
1.01251e+86
1.35381e+85
-1.93573e+84
-2.72216e+91
-4.7335e+91
-3.68185e+91
-1.6307e+91
-1.48234e+91
-1.78254e+91
-1.08258e+91
-2.65035e+90
9.16627e+88
1.12595e+89
1.38858e+87
-1.69819e+87
8.88164e+85
1.56305e+85
-2.12273e+84
-1.99927e+91
-3.9767e+91
-3.57301e+91
-1.66747e+91
-1.23553e+91
-1.5969e+91
-1.09326e+91
-3.0696e+90
4.21401e+87
1.20664e+89
3.36365e+87
-1.8048e+87
7.37357e+85
1.68799e+85
-2.30271e+84
-1.43332e+91
-3.29089e+91
-3.45792e+91
-1.75507e+91
-1.04941e+91
-1.41402e+91
-1.10034e+91
-3.5221e+90
-1.02453e+89
1.26372e+89
5.45159e+87
-1.83152e+87
5.40194e+85
1.61185e+85
-2.20788e+84
-1.00602e+91
-2.65209e+91
-3.25463e+91
-1.83897e+91
-9.13859e+90
-1.23056e+91
-1.09351e+91
-4.00245e+90
-2.30699e+89
1.29548e+89
7.44969e+87
-1.76511e+87
3.26742e+85
1.33481e+85
-2.06406e+84
-6.91941e+90
-2.08183e+91
-2.95766e+91
-1.91438e+91
-8.36797e+90
-1.0514e+91
-1.07e+91
-4.48857e+90
-3.82032e+89
1.29403e+89
9.15513e+87
-1.61487e+87
1.31844e+85
9.24465e+84
-2.34931e+84
-4.59799e+90
-1.60208e+91
-2.64096e+91
-2.00141e+91
-8.35993e+90
-8.79514e+90
-1.02642e+91
-4.95898e+90
-5.56899e+89
1.25435e+89
1.02594e+88
-1.37976e+87
-3.1831e+84
4.56044e+84
-3.03175e+84
-2.89351e+90
-1.19543e+91
-2.31184e+91
-2.08779e+91
-8.98052e+90
-7.20238e+90
-9.61105e+90
-5.38962e+90
-7.54496e+89
1.17896e+89
1.03288e+88
-1.04397e+87
-1.7388e+85
1.13324e+83
-2.92879e+84
-1.6745e+90
-8.48312e+90
-1.96024e+91
-2.13092e+91
-1.00675e+91
-5.8632e+90
-8.76672e+90
-5.79629e+90
-9.72459e+89
1.03875e+89
8.90349e+87
-5.99456e+86
-2.84364e+85
-2.68075e+84
-2.54716e+84
-8.63113e+89
-5.63156e+90
-1.59333e+91
-2.10921e+91
-1.15237e+91
-4.90348e+90
-7.67881e+90
-6.15077e+90
-1.20719e+90
8.46354e+88
6.46945e+87
-1.71472e+86
-4.41487e+85
-5.53236e+84
-2.65999e+84
-3.77979e+89
-3.40877e+90
-1.22494e+91
-2.01227e+91
-1.31143e+91
-4.4229e+90
-6.3248e+90
-6.35633e+90
-1.46607e+90
6.12758e+88
4.45666e+87
6.00885e+85
-6.49508e+85
-1.35481e+85
-4.41471e+84
-1.20611e+89
-1.80002e+90
-8.72714e+90
-1.83559e+91
-1.46116e+91
-4.55946e+90
-4.76957e+90
-6.277e+90
-1.77562e+90
4.43256e+88
4.68652e+87
7.01698e+85
-7.79607e+85
-3.35325e+85
-1.33739e+85
-5.81589e+87
-7.30015e+89
-5.52716e+90
-1.58702e+91
-1.58929e+91
-5.49056e+90
-3.12011e+90
-5.72983e+90
-2.07503e+90
3.61263e+88
1.73792e+88
-4.55381e+86
-1.28472e+86
-1.0916e+86
-4.87743e+85
2.13768e+88
-1.22716e+89
-2.81485e+90
-1.2725e+91
-1.68252e+91
-7.40664e+90
-1.61426e+90
-4.64141e+90
-2.16896e+90
-8.02136e+88
4.22448e+88
4.60501e+87
4.64636e+87
2.81341e+87
8.99854e+86
1.19037e+88
8.62992e+88
-7.93282e+89
-8.96201e+90
-1.70838e+91
-1.03586e+91
-6.99247e+89
-3.27735e+90
-2.347e+90
-4.02153e+89
3.35833e+88
-4.76842e+87
-8.96351e+87
-3.81054e+87
2.00763e+86
1.76823e+88
7.88259e+88
2.4199e+89
-4.75673e+90
-1.6067e+91
-1.40069e+91
-8.20726e+89
-1.64672e+90
-2.38759e+90
-7.9817e+89
-3.01847e+89
-2.44024e+89
-3.23647e+89
-4.16137e+89
-2.56401e+89
7.17415e+88
1.16456e+89
2.27834e+89
-1.11641e+90
-1.30135e+91
-1.75712e+91
-2.23295e+90
1.11999e+89
-1.87451e+90
-7.54671e+89
-7.74315e+89
-7.35472e+89
-9.85369e+89
-8.41725e+89
-4.4855e+89
2.94761e+89
1.02454e+89
1.7734e+89
-3.36659e+89
-8.32456e+90
-1.96253e+91
-4.6675e+90
1.36259e+90
-9.99844e+89
-2.06368e+89
-1.81385e+89
-4.22105e+89
-4.90417e+89
-3.74421e+89
-4.27901e+89
1.34367e+90
2.64455e+89
3.531e+89
-1.1333e+90
-7.47504e+90
-1.71661e+91
-6.72832e+90
1.69985e+90
-2.47402e+89
4.22692e+88
-4.74831e+88
-5.93025e+88
-6.97336e+88
-1.1928e+89
-3.74714e+89
-4.90739e+91
-1.87726e+91
-8.20696e+90
-4.71698e+90
-1.17366e+91
-1.62475e+91
-3.59019e+90
1.59267e+90
4.16472e+89
-4.18176e+89
-2.98484e+89
-1.93919e+89
-1.37249e+89
-1.08268e+89
-3.03282e+89
-4.5918e+92
-1.41672e+92
-9.19311e+91
-6.62265e+91
-4.45403e+91
-1.04971e+91
9.89505e+90
6.57026e+90
7.87463e+89
-4.76098e+89
-4.20544e+89
-2.74426e+89
-1.7402e+89
-1.1082e+89
-2.59929e+89
1.7747e+94
4.46252e+93
1.33879e+93
5.11252e+92
2.32744e+92
1.23781e+92
5.3011e+91
1.24442e+91
6.23711e+89
-1.33712e+90
-9.98472e+89
-5.6517e+89
-3.06252e+89
-1.65274e+89
-2.32462e+89
-1.29992e+95
-1.70387e+94
3.42335e+93
3.43779e+93
2.09241e+93
1.17424e+93
4.65878e+92
1.1421e+92
2.20414e+91
3.03834e+90
-7.10923e+88
-2.87307e+89
-1.56355e+89
-7.0577e+88
-2.11381e+88
-7.48159e+95
-1.90387e+95
-6.93965e+94
-1.89653e+94
-3.38496e+93
4.84631e+92
5.46976e+92
1.79492e+92
4.23273e+91
8.05467e+90
7.13453e+89
-5.0903e+89
-4.77219e+89
-2.4144e+89
-7.52902e+88
1.36784e+97
3.78403e+95
-2.68386e+95
-9.2841e+94
-2.62675e+94
-2.83872e+93
3.01278e+92
1.17317e+92
-1.12899e+90
-2.51042e+91
-2.45466e+91
-1.86666e+91
-1.22081e+91
-6.83137e+90
-5.61917e+90
7.11429e+97
1.62763e+97
1.25738e+96
-1.9447e+95
-1.06872e+94
-5.10914e+93
2.50126e+92
4.21162e+92
3.10225e+92
2.70323e+92
2.28637e+92
1.70813e+92
1.0604e+92
5.09422e+91
2.1269e+91
-1.91217e+99
5.86715e+97
1.91355e+97
-7.67306e+95
-1.65382e+95
4.16776e+94
3.91981e+93
4.63654e+93
3.60345e+93
2.58768e+93
1.83207e+93
1.25374e+93
7.86124e+92
4.16717e+92
1.68112e+92
9.83702e+99
-1.81429e+99
9.26651e+97
1.38399e+97
-1.43493e+96
-1.18394e+95
2.68397e+94
-1.69315e+94
-1.70349e+94
-1.6385e+94
-1.42047e+94
-1.06977e+94
-6.60237e+93
-3.0413e+93
-9.92872e+92
6.42774e+100
8.12821e+99
-1.63779e+99
8.75417e+97
1.21859e+97
-1.54933e+96
-2.08526e+95
-3.43651e+92
5.76184e+93
3.36817e+94
4.2634e+94
3.70393e+94
2.36057e+94
1.01845e+94
3.38902e+93
-9.83405e+101
6.35972e+100
7.08032e+99
-1.54821e+99
8.75156e+97
1.43223e+97
6.83288e+95
1.69704e+96
1.56697e+96
1.2305e+96
9.47406e+95
6.84549e+95
4.38367e+95
2.31473e+95
8.86792e+94
-3.677e+102
-8.79761e+101
6.20843e+100
6.44303e+99
-1.48418e+99
7.43701e+97
-2.60881e+96
-1.92615e+97
-1.94381e+97
-1.88016e+97
-1.67896e+97
-1.34343e+97
-9.2037e+96
-5.02514e+96
-2.06976e+96
1.14158e+104
-3.8482e+102
-8.03793e+101
6.02597e+100
5.59308e+99
-1.79143e+99
-2.09244e+98
-2.19634e+98
-1.81736e+98
-1.33605e+98
-9.44407e+97
-6.59662e+97
-4.39913e+97
-2.73203e+97
-1.36566e+97
-2.41923e+105
3.16003e+104
-9.96337e+102
-2.38041e+102
1.61484e+101
1.99583e+100
-2.93934e+99
2.33702e+99
2.54153e+99
2.53806e+99
2.36563e+99
2.02771e+99
1.5538e+99
1.13896e+99
8.39895e+98
-4.8308e+105
-2.28418e+105
3.01418e+104
-8.39578e+102
-2.40949e+102
1.81513e+101
5.48725e+100
2.23376e+100
2.31262e+100
1.88142e+100
1.28119e+100
8.36787e+99
5.68169e+99
3.83251e+99
2.26202e+99
1.75927e+107
-5.71405e+105
-2.04146e+105
2.89019e+104
-5.90687e+102
-2.38771e+102
2.58165e+101
1.34331e+101
7.40681e+100
5.7699e+100
4.13583e+100
2.75468e+100
1.63658e+100
8.88142e+99
5.05294e+99
7.36602e+106
1.59927e+107
-6.47671e+105
-2.12841e+105
2.12714e+104
2.04238e+103
-4.37124e+102
-2.2674e+101
1.9642e+101
1.07475e+101
8.10939e+100
5.81134e+100
3.49348e+100
1.79347e+100
9.33655e+99
-1.37764e+109
1.59079e+107
1.49893e+107
-6.04157e+105
-1.66705e+105
2.14778e+104
-8.33958e+102
-2.4589e+102
-3.60377e+101
-1.58086e+101
-5.50019e+100
-4.80632e+99
1.43418e+100
1.80094e+100
1.55093e+100
9.86165e+106
1.65001e+107
-7.27005e+105
-2.14071e+105
2.42726e+104
-2.11629e+103
-8.53158e+102
-2.65163e+102
-1.16838e+102
-4.99828e+101
-1.84116e+101
-5.08957e+100
-1.16133e+100
7.96261e+99
1.84517e+100
1.80735e+107
-4.48843e+105
-2.71522e+105
-1.11406e+103
-4.19664e+103
-2.07387e+103
-8.73237e+102
-3.85615e+102
-1.75837e+102
-7.9851e+101
-3.2708e+101
-8.63299e+100
-1.08612e+100
1.82205e+100
3.13518e+100
-1.91114e+105
-1.37824e+105
-4.62477e+104
-1.52887e+104
-5.2282e+103
-1.93502e+103
-7.61754e+102
-3.1161e+102
-1.29373e+102
-5.21039e+101
-1.52289e+101
7.23718e+100
7.3808e+100
6.4288e+100
5.08295e+100
-1.25168e+105
-1.98063e+104
-2.1743e+103
6.55935e+101
3.16104e+102
2.72915e+102
1.9454e+102
1.30993e+102
8.72326e+101
6.52951e+101
5.99882e+101
7.29987e+101
7.05825e+100
1.1373e+100
2.04123e+99
8.56272e+103
2.37195e+103
9.50189e+102
4.6775e+102
2.49054e+102
1.42053e+102
8.63526e+101
5.56245e+101
4.35997e+101
8.51179e+101
2.21553e+101
-2.42394e+100
4.5509e+99
6.91889e+98
5.81692e+97
-7.98346e+100
4.5125e+100
-1.79263e+101
-1.7983e+101
-1.45016e+101
-1.14009e+101
-8.96566e+100
-8.05031e+100
-1.08429e+101
4.5629e+101
6.43243e+101
2.2465e+100
-2.56303e+100
-1.43867e+100
-7.56754e+99
-4.70491e+101
-1.65173e+101
-7.78181e+100
-4.98088e+100
-3.62554e+100
-2.43639e+100
-1.42386e+100
-5.84137e+99
2.80643e+100
1.01717e+101
5.24311e+101
3.46048e+101
1.98549e+101
1.118e+101
6.27952e+100
6.65394e+99
6.02777e+98
2.56955e+99
3.18278e+99
3.26801e+99
2.67119e+99
3.94852e+98
-1.31247e+99
-1.55815e+99
-8.41534e+99
2.72665e+100
6.42925e+100
6.84444e+100
5.61637e+100
4.2473e+100
6.32013e+99
2.57082e+99
1.03539e+99
5.04088e+98
2.77859e+98
1.46134e+98
1.15184e+98
9.4001e+97
3.26419e+97
-9.26303e+97
-2.57758e+99
-3.1511e+99
-2.55649e+99
-2.01721e+99
-1.67057e+99
-7.82697e+98
-2.94773e+98
-1.49422e+98
-9.76587e+97
-7.31554e+97
-5.2332e+97
-2.39292e+97
8.57514e+94
1.56264e+97
7.95283e+97
-2.08124e+97
-1.33923e+98
-1.50988e+98
-1.32969e+98
-1.13048e+98
6.60667e+96
6.98276e+95
3.36051e+96
3.85773e+96
3.85359e+96
3.12809e+96
6.33399e+95
-1.42087e+96
-1.69795e+96
2.64481e+96
3.35524e+97
4.28278e+97
3.68065e+97
2.95575e+97
2.32152e+97
7.79127e+96
2.89825e+96
1.40213e+96
9.20896e+95
6.93459e+95
5.03747e+95
3.09446e+95
5.34425e+94
-4.84496e+95
-1.42877e+96
-2.18904e+96
-1.60907e+96
-1.02821e+96
-7.02277e+95
-5.1418e+95
-1.45538e+95
-1.69452e+94
-6.50521e+94
-8.08082e+94
-7.94256e+94
-5.69272e+94
-5.86563e+93
4.16629e+94
6.16559e+94
-1.88376e+94
-3.23251e+95
-4.34794e+95
-3.86037e+95
-3.07307e+95
-2.34221e+95
-1.59043e+95
-6.36964e+94
-2.42102e+94
-1.09577e+94
-5.64691e+93
-3.30605e+93
-2.5864e+93
9.55636e+92
1.32137e+94
3.81805e+94
6.82112e+94
6.50276e+94
5.09331e+94
3.84944e+94
2.8891e+94
2.27953e+94
8.62355e+93
4.21652e+93
2.66349e+93
1.86876e+93
1.09922e+93
1.72677e+92
-7.64069e+92
-1.48463e+93
-9.82566e+92
1.32389e+93
2.55664e+93
2.45517e+93
1.94672e+93
1.36941e+93
-6.12543e+92
-2.15564e+92
-1.7508e+92
-1.45783e+92
-1.14627e+92
-5.8369e+91
1.44436e+91
1.84299e+91
-1.4459e+92
-5.43868e+92
-1.00489e+93
-1.01205e+93
-8.37021e+92
-6.85756e+92
-6.10839e+92
-1.517e+92
-5.5434e+91
-2.55898e+91
-1.66498e+91
-1.23676e+91
-8.29088e+90
-1.90959e+90
1.1713e+91
3.61064e+91
5.87688e+91
6.07864e+91
3.99436e+91
1.30866e+91
-2.69437e+91
-9.44645e+91
5.17036e+90
1.25466e+90
2.03474e+90
2.24321e+90
2.04214e+90
1.26737e+90
-6.9111e+88
-1.13136e+90
-5.67224e+89
3.81195e+90
1.00016e+91
7.91036e+90
-2.12451e+90
-2.57788e+91
-7.35008e+91
3.58469e+90
1.45978e+90
5.4211e+89
2.3246e+89
1.14307e+89
7.21215e+88
5.85818e+88
-4.52266e+88
-3.93674e+89
-1.0442e+90
-1.73661e+90
-1.82072e+90
-3.25835e+90
-1.37239e+91
-4.28781e+91
-5.3704e+89
-2.11226e+89
-1.03407e+89
-6.45227e+88
-4.50306e+88
-2.76369e+88
-6.75664e+87
1.75306e+88
4.2584e+88
5.14864e+88
2.26473e+88
-5.07244e+86
-6.78389e+88
-7.4611e+89
-3.45698e+90
1.84657e+88
6.67369e+87
5.0837e+87
4.23728e+87
3.4394e+87
2.17987e+87
4.71599e+86
-2.41909e+86
3.48321e+87
1.86937e+88
3.43099e+88
4.10375e+88
4.45836e+88
4.47816e+88
-7.64458e+87
3.58801e+87
1.46906e+87
6.35394e+86
3.52855e+86
2.32528e+86
1.62955e+86
9.22554e+85
3.89773e+85
1.3975e+87
1.04439e+88
1.40841e+88
1.41061e+88
1.45912e+88
2.10603e+88
4.16927e+88
-3.2875e+86
-1.21606e+86
-8.33646e+85
-6.80043e+85
-5.63868e+85
-4.05023e+85
-6.6569e+84
1.72636e+86
2.20137e+87
1.38851e+88
1.82723e+88
1.77199e+88
1.6194e+88
1.74058e+88
2.66329e+88
-4.50879e+85
-2.04973e+85
-7.58903e+84
-2.83227e+84
-1.21155e+84
-1.07261e+84
7.7798e+84
1.73088e+86
2.45371e+87
1.57911e+88
2.13976e+88
2.17845e+88
2.00205e+88
1.97456e+88
2.58844e+88
8.61475e+84
3.65267e+84
1.85583e+84
1.14975e+84
6.58034e+83
4.83699e+82
9.18399e+84
1.92734e+86
2.93912e+87
1.60485e+88
2.30905e+88
2.56441e+88
2.5098e+88
2.37602e+88
2.49514e+88
-3.33626e+83
-1.2283e+83
-1.04007e+83
-1.08996e+83
-2.51955e+83
-7.6583e+83
8.36368e+84
2.14992e+86
2.28448e+87
1.42762e+88
2.3034e+88
2.80902e+88
2.9922e+88
2.93224e+88
2.69666e+88
-7.47883e+82
-3.51849e+82
-2.11339e+82
-3.2513e+82
-1.83344e+83
-8.74828e+83
6.97553e+84
2.48491e+86
1.91836e+87
1.06062e+88
1.95001e+88
2.61637e+88
3.04266e+88
3.24684e+88
3.18064e+88
8.54583e+81
1.79538e+81
-4.5894e+81
-2.52322e+82
-1.78107e+83
-9.78227e+83
4.86773e+84
2.8576e+86
1.81684e+87
6.34499e+87
1.23963e+88
1.85767e+88
2.39536e+88
2.81193e+88
3.06542e+88
1.61696e+81
-1.18996e+81
-7.75967e+81
-3.04038e+82
-1.8351e+83
-1.04255e+84
2.83376e+84
3.40927e+86
1.34789e+87
3.29021e+87
6.25323e+87
1.0047e+88
1.41719e+88
1.82155e+88
2.19472e+88
6.41999e+80
-2.10677e+81
-9.7196e+81
-3.57088e+82
-1.91099e+83
-1.11463e+84
2.16713e+84
2.00584e+86
6.63371e+86
1.45087e+87
2.64988e+87
4.29748e+87
6.3738e+87
8.82578e+87
1.15738e+88
9.46208e+80
-2.52598e+81
-1.2021e+82
-4.3077e+82
-2.01253e+83
-1.18807e+84
1.66273e+84
9.43745e+85
2.34538e+86
4.49039e+86
8.01251e+86
1.31252e+87
2.01281e+87
2.93655e+87
4.10311e+87
1.11709e+81
-3.02861e+81
-1.45933e+82
-5.16135e+82
-2.13427e+83
-1.20577e+84
1.60618e+84
4.60352e+85
7.39571e+85
9.40779e+85
1.34735e+86
2.09063e+86
3.31027e+86
5.16941e+86
7.83237e+86
1.29119e+81
-3.55422e+81
-1.73065e+82
-6.09102e+82
-2.31681e+83
-1.18224e+84
-2.12534e+84
1.55534e+85
2.62865e+85
2.40443e+85
1.63422e+85
7.56968e+84
8.68161e+83
-4.94966e+83
7.39111e+84
1.47656e+81
-4.18852e+81
-2.05443e+82
-7.22541e+82
-2.5991e+83
-1.12254e+84
-5.43495e+84
-2.6705e+84
5.96168e+84
9.12328e+84
8.43568e+84
4.96946e+84
-1.03263e+84
-9.59012e+84
-2.04992e+85
1.69319e+81
-4.89539e+81
-2.43386e+82
-8.63246e+82
-3.03048e+83
-1.09579e+84
-5.2591e+84
-7.76773e+84
-4.79108e+84
-1.91286e+84
1.79913e+83
1.55459e+84
2.19263e+84
1.99138e+84
8.81696e+83
1.90406e+81
-5.70187e+81
-2.8482e+82
-1.01929e+83
-3.6008e+83
-1.27781e+84
-3.51026e+84
-5.2863e+84
-5.36372e+84
-4.81384e+84
-4.09493e+84
-3.38238e+84
-2.69557e+84
-2.03986e+84
-1.42355e+84
2.23524e+81
-6.39113e+81
-3.25543e+82
-1.13141e+83
-3.36622e+83
-8.00421e+83
-1.4539e+84
-2.02554e+84
-2.36454e+84
-2.52667e+84
-2.58316e+84
-2.59028e+84
-2.5598e+84
-2.49063e+84
-2.38206e+84
3.8108e+81
-1.89917e+81
-1.58992e+82
-4.68064e+82
-1.08879e+83
-2.10963e+83
-3.34882e+83
-4.46662e+83
-5.37857e+83
-6.14649e+83
-6.79259e+83
-7.35374e+83
-7.82998e+83
-8.203e+83
-8.46669e+83
5.7155e+81
3.93084e+81
9.27352e+78
-5.18909e+81
-1.17422e+82
-1.97452e+82
-2.8669e+82
-3.77839e+82
-4.70266e+82
-5.68563e+82
-6.7218e+82
-7.77601e+82
-8.81097e+82
-9.78975e+82
-1.0689e+83
5.77373e+81
6.15916e+81
5.41195e+81
4.62297e+81
4.15389e+81
4.10203e+81
4.32755e+81
4.5931e+81
4.74934e+81
4.7747e+81
4.68243e+81
4.46983e+81
4.13014e+81
3.6641e+81
3.10097e+81
3.73312e+81
4.59132e+81
4.60157e+81
4.27661e+81
3.80927e+81
3.36186e+81
2.99279e+81
2.70999e+81
2.50814e+81
2.37839e+81
2.3061e+81
2.27123e+81
2.25457e+81
2.24139e+81
2.22855e+81
1.3031e+81
1.84017e+81
2.02038e+81
1.98605e+81
1.82136e+81
1.61382e+81
1.40422e+81
1.21254e+81
1.04978e+81
9.16954e+80
8.08596e+80
7.18638e+80
6.42589e+80
5.77484e+80
5.22201e+80
1.67403e+80
3.23974e+80
4.10066e+80
4.40817e+80
4.34735e+80
4.09288e+80
3.74131e+80
3.36069e+80
3.00625e+80
2.69683e+80
2.42221e+80
2.1719e+80
1.94172e+80
1.73073e+80
1.53864e+80
-3.86168e+79
-1.77613e+79
4.0483e+78
1.91532e+79
2.83943e+79
3.33009e+79
3.512e+79
3.4907e+79
3.38122e+79
3.24712e+79
3.08739e+79
2.90221e+79
2.70016e+79
2.49046e+79
2.27764e+79
-1.79774e+79
-1.73549e+79
-1.41835e+79
-1.11248e+79
-8.48628e+78
-6.36105e+78
-4.70433e+78
-3.43265e+78
-2.48167e+78
-1.77808e+78
-1.24601e+78
-8.36364e+77
-5.20871e+77
-2.80133e+77
-1.04522e+77
-3.43483e+78
-3.30133e+78
-2.86624e+78
-2.45593e+78
-2.07593e+78
-1.73924e+78
-1.44949e+78
-1.21267e+78
-1.02907e+78
-8.84766e+77
-7.64293e+77
-6.5988e+77
-5.68431e+77
-4.88273e+77
-4.18836e+77
-6.2598e+77
-4.99204e+77
-3.7086e+77
-2.87555e+77
-2.28924e+77
-1.85615e+77
-1.52451e+77
-1.27347e+77
-1.08757e+77
-9.43589e+76
-8.23405e+76
-7.1859e+76
-6.25733e+76
-5.43267e+76
-4.71075e+76
-1.12768e+77
-9.11387e+76
-6.2598e+76
-4.36059e+76
-3.10595e+76
-2.27092e+76
-1.70177e+76
-1.31299e+76
-1.04494e+76
-8.50118e+75
-6.99827e+75
-5.79531e+75
-4.8147e+75
-4.00882e+75
-3.35118e+75
-7.88285e+75
-9.23678e+75
-7.60134e+75
-5.87186e+75
-4.4447e+75
-3.36281e+75
-2.57703e+75
-2.02492e+75
-1.62457e+75
-1.31564e+75
-1.06804e+75
-8.67125e+74
-7.03698e+74
-5.71069e+74
-4.63764e+74
1.75447e+75
8.34471e+74
2.88722e+74
5.1525e+73
-4.5463e+73
-8.12385e+73
-9.12129e+73
-9.07916e+73
-8.54396e+73
-7.74103e+73
-6.83376e+73
-5.92624e+73
-5.0731e+73
-4.30267e+73
-3.61452e+73
4.48182e+74
3.16663e+74
1.9827e+74
1.27388e+74
8.41515e+73
5.73513e+73
4.04874e+73
2.96496e+73
2.22724e+73
1.69532e+73
1.29864e+73
9.98352e+72
7.69402e+72
5.94326e+72
4.61496e+72
2.72851e+73
2.50881e+73
1.83232e+73
1.32765e+73
9.61478e+72
7.09739e+72
5.42421e+72
4.27736e+72
3.42442e+72
2.75409e+72
2.21726e+72
1.78529e+72
1.43716e+72
1.15726e+72
9.32393e+71
-9.22352e+72
-3.3649e+72
-1.26152e+72
-4.45604e+71
-1.34201e+71
-6.21943e+69
4.7698e+70
6.71647e+70
6.96144e+70
6.44898e+70
5.67332e+70
4.85774e+70
4.09202e+70
3.41978e+70
2.8156e+70
-3.34693e+72
-1.58847e+72
-7.6931e+71
-4.09838e+71
-2.33523e+71
-1.39877e+71
-8.82921e+70
-5.84563e+70
-4.01123e+70
-2.81874e+70
-2.01305e+70
-1.45558e+70
-1.06373e+70
-7.83956e+69
-5.89151e+69
-2.768e+71
-2.79596e+71
-1.61208e+71
-9.72691e+70
-5.98901e+70
-3.86529e+70
-2.6213e+70
-1.84518e+70
-1.32885e+70
-9.69222e+69
-7.12529e+69
-5.26914e+69
-3.91541e+69
-2.92224e+69
-2.20023e+69
3.73355e+70
-2.28965e+70
-2.05653e+70
-1.3363e+70
-8.60973e+69
-5.86682e+69
-4.17283e+69
-3.04999e+69
-2.26533e+69
-1.69701e+69
-1.27674e+69
-9.62937e+68
-7.27486e+68
-5.50708e+68
-4.18811e+68
-2.84266e+70
-5.94907e+69
-2.6548e+69
-1.19607e+69
-7.29105e+68
-5.05815e+68
-3.69363e+68
-2.78012e+68
-2.12244e+68
-1.62586e+68
-1.24358e+68
-9.48485e+67
-7.21538e+67
-5.48477e+67
-4.18242e+67
-1.3887e+70
-3.2182e+69
-6.42778e+68
-1.65183e+68
-5.9656e+67
-2.59036e+67
-1.44161e+67
-1.01817e+67
-8.09601e+66
-6.56867e+66
-5.26842e+66
-4.1774e+66
-3.28265e+66
-2.56705e+66
-2.01413e+66
1.03614e+69
-1.20681e+68
-5.81557e+67
-4.65765e+67
-2.64381e+67
-1.37921e+67
-7.14733e+66
-3.65267e+66
-1.77808e+66
-7.95509e+65
-3.1569e+65
-1.0078e+65
-1.2594e+64
1.67885e+64
2.60862e+64
1.26505e+69
3.33762e+68
7.21024e+67
1.47175e+67
1.41345e+66
-1.66317e+66
-1.96193e+66
-1.56793e+66
-1.10347e+66
-7.35979e+65
-4.79213e+65
-3.07947e+65
-1.96587e+65
-1.25153e+65
-7.75709e+64
4.93211e+67
5.18732e+67
2.11681e+67
1.04621e+67
5.33545e+66
2.78165e+66
1.48269e+66
7.98739e+65
4.27865e+65
2.2586e+65
1.17675e+65
6.08447e+64
3.12462e+64
1.59992e+64
8.02967e+63
-6.98436e+67
-1.97596e+67
-4.37668e+66
-5.99153e+65
2.85197e+65
4.25898e+65
3.73516e+65
2.84907e+65
2.04214e+65
1.41743e+65
9.67676e+64
6.55839e+64
4.44111e+64
3.02221e+64
2.05924e+64
-9.54335e+66
-5.19676e+66
-2.13222e+66
-9.86813e+65
-4.89442e+65
-2.54125e+65
-1.35997e+65
-7.38054e+64
-3.99362e+64
-2.12722e+64
-1.10616e+64
-5.55654e+63
-2.62445e+63
-1.08405e+63
-3.05654e+62
1.48505e+66
3.49157e+65
2.58355e+64
-4.45413e+64
-5.06557e+64
-4.22134e+64
-3.21001e+64
-2.34483e+64
-1.67109e+64
-1.17139e+64
-8.13185e+63
-5.62227e+63
-3.8892e+63
-2.70675e+63
-1.89614e+63
4.17363e+65
2.0491e+65
8.65996e+64
3.97906e+64
1.96052e+64
1.01913e+64
5.50103e+63
3.03139e+63
1.67678e+63
9.18014e+62
4.91265e+62
2.52445e+62
1.1979e+62
4.67323e+61
9.04023e+60
3.22265e+64
1.80174e+64
9.31033e+63
5.22381e+63
3.16211e+63
2.02454e+63
1.34951e+63
9.22913e+62
6.39174e+62
4.45056e+62
3.10862e+62
2.17859e+62
1.53478e+62
1.0901e+62
7.82748e+61
2.81369e+63
9.18368e+62
3.02814e+62
1.24866e+62
6.41418e+61
3.8819e+61
2.62875e+61
1.90237e+61
1.42072e+61
1.07344e+61
8.13972e+60
6.18256e+60
4.70928e+60
3.60498e+60
2.77994e+60
2.96822e+62
1.44084e+62
5.43355e+61
2.41252e+61
1.1646e+61
5.93371e+60
3.14054e+60
1.69782e+60
9.23295e+59
4.99491e+59
2.66213e+59
1.37555e+59
6.6622e+58
2.82177e+58
8.64599e+57
-5.06246e+61
-1.16696e+61
-1.46926e+60
7.56957e+59
1.00269e+60
8.34013e+59
6.2323e+59
4.47357e+59
3.14501e+59
2.18888e+59
1.51959e+59
1.0563e+59
7.36746e+58
5.16621e+58
3.62785e+58
-1.35084e+61
-5.72255e+60
-2.15984e+60
-9.21065e+59
-4.33332e+59
-2.20015e+59
-1.18328e+59
-6.61771e+58
-3.78666e+58
-2.19231e+58
-1.27373e+58
-7.36412e+57
-4.20005e+57
-2.34375e+57
-1.29555e+57
-8.40779e+59
-4.4145e+59
-2.03933e+59
-1.06106e+59
-6.03218e+58
-3.6709e+58
-2.34924e+58
-1.55346e+58
-1.04748e+58
-7.15975e+57
-4.94344e+57
-3.43818e+57
-2.4085e+57
-1.70069e+57