/*--------------------------------*- C++ -*----------------------------------*\
  =========                 |
  \\      /  F ield         | OpenFOAM: The Open Source CFD Toolbox
   \\    /   O peration     | Website:  https://openfoam.org
    \\  /    A nd           | Version:  7
     \\/     M anipulation  |
\*---------------------------------------------------------------------------*/
FoamFile
{
    version     2.0;
    format      ascii;
    class       volScalarField;
    location    "1.9";
    object      T;
}
// * * * * * * * * * * * * * * * * * * * * * * * * * * * * * * * * * * * * * //

dimensions      [0 0 0 1 0 0 0];

internalField   nonuniform List<scalar> 
32100
(
-2.40903e+46
-2.52651e+46
1.99367e+45
-2.69682e+43
-8.41705e+42
1.87259e+42
1.26383e+41
-2.60605e+40
1.71513e+39
1.92285e+38
-1.96242e+37
-4.00339e+35
2.41319e+33
3.78075e+33
1.12096e+33
-2.82487e+46
2.15041e+45
-2.65533e+43
-9.0478e+42
1.91666e+42
1.32664e+41
-2.68171e+40
1.73171e+39
1.85458e+38
-3.7503e+37
-8.7177e+36
-5.99646e+35
2.99985e+34
3.60501e+33
9.89845e+32
2.33122e+45
-2.68146e+43
-1.00566e+43
1.98101e+42
1.41318e+41
-2.7764e+40
1.79571e+39
1.99537e+38
-3.62246e+37
-5.57841e+36
-2.45899e+36
-3.50465e+35
4.61172e+34
2.48926e+33
8.0734e+32
-2.81749e+43
-1.26746e+43
1.91493e+42
1.6112e+41
-2.80131e+40
1.81078e+39
2.47666e+38
-2.80936e+37
-3.2057e+36
-5.26241e+34
-6.39694e+35
-1.06802e+35
4.31099e+34
1.49217e+33
5.59556e+32
-1.88682e+43
7.50368e+41
3.4286e+40
-2.06869e+40
2.8152e+39
2.44472e+38
8.80557e+36
3.79444e+36
5.39572e+35
-7.38091e+34
-6.5338e+34
2.70068e+33
2.94563e+34
6.56226e+32
2.83191e+32
-3.27485e+42
-1.15844e+42
-1.66698e+41
1.065e+40
1.29899e+39
-4.31909e+36
3.85645e+37
7.39527e+36
5.38839e+34
2.14332e+34
3.12159e+34
2.2202e+34
1.53784e+34
1.51861e+31
6.79395e+31
-4.93338e+42
-1.32678e+42
-1.35305e+41
7.97183e+39
1.10093e+39
2.70241e+37
3.96206e+37
6.90496e+36
1.02634e+35
1.0661e+34
2.24126e+34
1.32412e+34
5.84517e+33
-3.36517e+32
-4.01042e+31
-4.82956e+42
-1.23104e+42
-1.39145e+41
6.50804e+39
1.18764e+39
3.06759e+37
3.62634e+37
6.9687e+36
1.50264e+35
-4.55364e+33
1.09115e+34
3.74278e+33
1.22957e+33
-3.92076e+32
-5.98839e+31
-4.42251e+42
-1.17071e+42
-1.41088e+41
5.25957e+39
1.23676e+39
3.11471e+37
3.33904e+37
6.97163e+36
2.00529e+35
-1.05941e+34
6.1687e+33
5.63026e+31
-2.17936e+32
-2.75103e+32
-3.8983e+31
-4.06807e+42
-1.1078e+42
-1.42162e+41
3.90951e+39
1.27114e+39
3.3527e+37
3.04766e+37
6.91452e+36
2.53768e+35
-1.20458e+34
5.16908e+33
-2.50867e+32
-3.72271e+32
-1.35451e+32
-1.49033e+31
-3.73721e+42
-1.04669e+42
-1.42955e+41
2.50878e+39
1.29537e+39
3.71834e+37
2.76025e+37
6.80264e+36
3.04678e+35
-1.21379e+34
4.63733e+33
-1.75922e+31
-2.41344e+32
-4.77722e+31
-1.77134e+30
-3.43167e+42
-9.92828e+41
-1.42623e+41
1.07743e+39
1.30512e+39
4.20205e+37
2.48506e+37
6.641e+36
3.50925e+35
-1.13969e+34
3.92624e+33
1.29858e+32
-1.40904e+32
-1.4661e+31
1.67739e+30
-3.16576e+42
-9.40115e+41
-1.36643e+41
-2.19026e+38
1.29862e+39
4.78467e+37
2.23418e+37
6.43748e+36
3.90717e+35
-9.82139e+33
3.20799e+33
1.71764e+32
-9.84099e+31
-7.2288e+30
9.51791e+29
-2.88593e+42
-7.83996e+41
-1.12889e+41
-1.19264e+39
1.16989e+39
5.52074e+37
2.02565e+37
6.18476e+36
4.21662e+35
-7.59477e+33
2.71509e+33
2.13865e+32
-6.6977e+31
-5.18016e+30
5.03211e+29
-2.07278e+42
-5.83949e+41
-9.21604e+40
-1.71561e+39
9.63569e+38
5.56991e+37
1.69708e+37
5.58629e+36
4.42023e+35
-5.25454e+33
2.41543e+33
2.81061e+32
-6.77571e+31
-6.04496e+30
3.24631e+29
-1.46439e+42
-4.6702e+41
-8.15805e+40
-2.16376e+39
8.19508e+38
5.22231e+37
1.36643e+37
5.03137e+36
4.70581e+35
-2.67712e+33
2.08695e+33
3.55141e+32
-8.02989e+31
-8.58145e+30
2.46597e+29
-1.22714e+42
-4.1443e+41
-7.61832e+40
-2.64314e+39
7.47083e+38
5.28624e+37
1.16435e+37
4.75149e+36
5.09398e+35
5.99779e+32
1.67323e+33
4.12712e+32
-8.04131e+31
-1.11457e+31
1.8178e+29
-1.08113e+42
-3.84548e+41
-7.42524e+40
-3.19854e+39
7.03346e+38
5.68189e+37
1.03855e+37
4.55882e+36
5.52307e+35
4.82557e+33
1.23144e+33
4.55915e+32
-7.16182e+31
-1.29888e+31
8.06551e+28
-9.62763e+41
-3.58434e+41
-7.23909e+40
-3.77766e+39
6.561e+38
6.25072e+37
9.46436e+36
4.38859e+36
5.96742e+35
1.00071e+34
7.98103e+32
4.83521e+32
-5.80804e+31
-1.40755e+31
-6.1909e+28
-8.6183e+41
-3.33329e+41
-7.0255e+40
-4.3584e+39
5.99645e+38
6.89626e+37
8.76471e+36
4.20465e+36
6.40213e+35
1.61282e+34
4.07012e+32
5.03352e+32
-4.41185e+31
-1.49637e+31
-2.41527e+29
-7.69303e+41
-3.07825e+41
-6.76919e+40
-4.92707e+39
5.32171e+38
7.57554e+37
8.29227e+36
3.99782e+36
6.81921e+35
2.32398e+34
7.04736e+31
5.05401e+32
-2.87327e+31
-1.53881e+31
-4.44356e+29
-6.80404e+41
-2.81205e+41
-6.48833e+40
-5.48707e+39
4.52491e+38
8.26252e+37
8.08343e+36
3.7768e+36
7.22751e+35
3.15143e+34
-1.8885e+32
4.87894e+32
-1.26253e+31
-1.49876e+31
-6.35775e+29
-5.95771e+41
-2.54567e+41
-6.19852e+40
-6.02862e+39
3.59781e+38
8.92729e+37
8.17691e+36
3.54879e+36
7.63532e+35
4.12588e+34
-3.42628e+32
4.61455e+32
2.07808e+30
-1.4288e+31
-8.01328e+29
-5.16712e+41
-2.28687e+41
-5.89776e+40
-6.53877e+39
2.52784e+38
9.49571e+37
8.60846e+36
3.32144e+36
8.04035e+35
5.27706e+34
-3.61752e+32
4.28763e+32
1.57817e+31
-1.36022e+31
-9.49613e+29
-4.44815e+41
-2.04648e+41
-5.59646e+40
-7.02111e+39
1.30917e+38
9.91322e+37
9.40545e+36
3.0989e+36
8.43276e+35
6.61419e+34
-2.01164e+32
3.88446e+32
2.94469e+31
-1.29715e+31
-1.10121e+30
-3.80224e+41
-1.82487e+41
-5.28455e+40
-7.46431e+39
-6.19183e+36
1.01345e+38
1.05835e+37
2.88563e+36
8.79934e+35
8.15845e+34
2.0513e+32
3.40256e+32
4.40345e+31
-1.24049e+31
-1.28734e+30
-3.23809e+41
-1.62003e+41
-4.96428e+40
-7.86834e+39
-1.59371e+38
1.0097e+38
1.21574e+37
2.69433e+36
9.12208e+35
9.92981e+34
9.42848e+32
2.76856e+32
5.95217e+31
-1.16013e+31
-1.50513e+30
-2.75884e+41
-1.43849e+41
-4.66303e+40
-8.25601e+39
-3.29434e+38
9.71861e+37
1.41195e+37
2.54148e+36
9.36332e+35
1.20242e+35
2.11924e+33
1.94118e+32
7.3761e+31
-1.01843e+31
-1.70157e+30
-2.34798e+41
-1.28303e+41
-4.39614e+40
-8.63503e+39
-5.16929e+38
8.91034e+37
1.64546e+37
2.45256e+36
9.50232e+35
1.44226e+35
3.87624e+33
1.00796e+32
8.64453e+31
-8.31251e+30
-1.87287e+30
-1.98459e+41
-1.14407e+41
-4.14411e+40
-8.97145e+39
-7.20445e+38
7.5587e+37
1.91089e+37
2.46152e+36
9.55613e+35
1.70883e+35
6.37577e+33
5.0872e+30
9.73528e+31
-5.97502e+30
-2.02127e+30
-1.655e+41
-1.0052e+41
-3.8556e+40
-9.2107e+39
-9.37916e+38
5.52666e+37
2.19707e+37
2.61044e+36
9.53011e+35
2.01037e+35
9.87457e+33
-8.14067e+31
1.0211e+32
-3.07362e+30
-2.10111e+30
-1.36173e+41
-8.62706e+40
-3.49867e+40
-9.34707e+39
-1.1669e+39
2.66402e+37
2.48287e+37
2.95093e+36
9.42711e+35
2.34364e+35
1.47862e+34
-1.33431e+32
1.00214e+32
5.00156e+28
-2.15299e+30
-1.11921e+41
-7.34663e+40
-3.15233e+40
-9.38358e+39
-1.40221e+39
-1.20216e+37
2.7298e+37
3.53473e+36
9.25501e+35
2.70548e+35
2.17496e+34
-1.17679e+32
9.72327e+31
3.62332e+30
-2.28354e+30
-9.23628e+40
-6.37181e+40
-2.89468e+40
-9.35181e+39
-1.64455e+39
-6.26589e+37
2.88338e+37
4.4074e+36
9.07122e+35
3.07565e+35
3.15332e+34
4.5508e+31
9.16744e+31
8.73129e+30
-2.52925e+30
-7.59911e+40
-5.60848e+40
-2.69035e+40
-9.28311e+39
-1.89799e+39
-1.27588e+38
2.86323e+37
5.58309e+36
9.01707e+35
3.42736e+35
4.50779e+34
5.08298e+32
7.36417e+31
1.6219e+31
-2.81021e+30
-6.20925e+40
-4.87347e+40
-2.46802e+40
-9.18532e+39
-2.16247e+39
-2.09081e+38
2.54304e+37
7.02133e+36
9.31677e+35
3.71277e+35
6.31234e+34
1.56677e+33
3.47308e+31
2.66462e+31
-2.91316e+30
-5.03664e+40
-4.17744e+40
-2.24028e+40
-9.08171e+39
-2.43855e+39
-3.08032e+38
1.81486e+37
8.64662e+36
1.0318e+36
3.87883e+35
8.53721e+34
3.77603e+33
-2.84447e+31
3.95373e+31
-2.35135e+30
-4.04364e+40
-3.57687e+40
-2.04053e+40
-8.96851e+39
-2.7198e+39
-4.22919e+38
5.77953e+36
1.03055e+37
1.24543e+36
3.90403e+35
1.09834e+35
7.56829e+33
-9.07747e+31
5.05717e+31
-3.81334e+29
-3.20411e+40
-3.06388e+40
-1.86445e+40
-8.79576e+39
-2.97614e+39
-5.46706e+38
-1.28353e+37
1.17134e+37
1.60817e+36
3.79524e+35
1.3285e+35
1.33002e+34
-8.2102e+31
5.27465e+31
3.74547e+30
-2.49593e+40
-2.62104e+40
-1.70707e+40
-8.55443e+39
-3.14668e+39
-6.7228e+38
-3.84239e+37
1.24384e+37
2.13123e+36
3.60998e+35
1.50093e+35
2.11007e+34
1.37088e+32
3.66044e+31
1.06979e+31
-1.89986e+40
-2.21611e+40
-1.55186e+40
-8.18997e+39
-3.22144e+39
-7.93185e+38
-7.0689e+37
1.18216e+37
2.79607e+36
3.48789e+35
1.58219e+35
3.06857e+34
8.41336e+32
-1.14974e+31
1.99871e+31
-1.4075e+40
-1.8257e+40
-1.38608e+40
-7.65468e+39
-3.24259e+39
-9.04161e+38
-1.08314e+38
9.50794e+36
3.58929e+36
3.62094e+35
1.54984e+35
4.0171e+34
2.02482e+33
-7.79452e+31
2.6288e+31
-1.0237e+40
-1.46142e+40
-1.20662e+40
-7.02807e+39
-3.22812e+39
-1.00159e+39
-1.49187e+38
5.15069e+36
4.50865e+36
4.17367e+35
1.37728e+35
4.55456e+34
3.483e+33
-1.33558e+32
2.50588e+31
-7.39637e+39
-1.15138e+40
-1.03012e+40
-6.43123e+39
-3.18485e+39
-1.08403e+39
-1.91549e+38
-1.1362e+36
5.0966e+36
5.23645e+35
1.14717e+35
4.77356e+34
5.1178e+33
-1.57077e+32
1.71677e+31
-5.35557e+39
-9.06955e+39
-8.79448e+39
-5.90784e+39
-3.12501e+39
-1.15403e+39
-2.34138e+38
-8.85075e+36
5.28934e+36
6.41978e+35
9.46525e+34
4.6936e+34
6.08152e+33
-1.46088e+32
-9.14158e+30
-3.90216e+39
-7.20444e+39
-7.5633e+39
-5.44066e+39
-3.06186e+39
-1.21673e+39
-2.77366e+38
-1.76197e+37
5.26717e+36
7.51585e+35
7.2346e+34
4.03845e+34
5.80455e+33
-3.28809e+31
-1.65117e+31
-2.8467e+39
-5.76271e+39
-6.57169e+39
-5.04146e+39
-3.00163e+39
-1.27725e+39
-3.2274e+38
-2.77659e+37
5.02966e+36
8.71083e+35
5.4048e+34
3.35164e+34
5.18266e+33
2.60062e+31
-8.79991e+30
-2.0703e+39
-4.61321e+39
-5.74394e+39
-4.70141e+39
-2.93981e+39
-1.33121e+39
-3.6962e+38
-3.93919e+37
4.7244e+36
1.00872e+36
4.3532e+34
2.96671e+34
4.95691e+33
5.33044e+31
-8.01945e+30
-1.48409e+39
-3.66111e+39
-4.98629e+39
-4.3717e+39
-2.8592e+39
-1.36763e+39
-4.1351e+38
-5.23553e+37
4.23416e+36
1.18271e+36
3.86841e+34
2.75359e+34
5.092e+33
8.15403e+31
-8.43777e+30
-1.0483e+39
-2.86982e+39
-4.28933e+39
-4.04786e+39
-2.76224e+39
-1.3896e+39
-4.53281e+38
-6.64637e+37
3.4066e+36
1.38024e+36
3.73701e+34
2.59728e+34
5.35642e+33
1.19236e+32
-8.18482e+30
-7.27444e+38
-2.22692e+39
-3.68627e+39
-3.75429e+39
-2.66688e+39
-1.4107e+39
-4.95357e+38
-8.21733e+37
2.17579e+36
1.58908e+36
3.89968e+34
2.42963e+34
5.52429e+33
1.65241e+32
-3.65399e+30
-4.93249e+38
-1.70587e+39
-3.15724e+39
-3.454e+39
-2.57672e+39
-1.43263e+39
-5.4245e+38
-1.00695e+38
4.31068e+35
1.8004e+36
4.29708e+34
2.19104e+34
5.40013e+33
2.10246e+32
9.20006e+30
-3.28721e+38
-1.27792e+39
-2.64219e+39
-3.13335e+39
-2.48553e+39
-1.45525e+39
-5.91383e+38
-1.22462e+38
-1.97401e+36
2.00846e+36
4.86307e+34
1.89536e+34
4.97464e+33
2.46599e+32
3.16818e+31
-2.15044e+38
-9.3606e+38
-2.15551e+39
-2.81994e+39
-2.40875e+39
-1.48093e+39
-6.42209e+38
-1.47396e+38
-5.19407e+36
2.19508e+36
5.54298e+34
1.58589e+34
4.32631e+33
2.74853e+32
7.1362e+31
-1.35652e+38
-6.72806e+38
-1.73872e+39
-2.53205e+39
-2.34023e+39
-1.50479e+39
-6.94223e+38
-1.75435e+38
-9.38046e+36
2.33722e+36
6.20023e+34
1.29106e+34
3.50664e+33
2.92758e+32
1.32998e+32
-8.09087e+37
-4.68358e+38
-1.37547e+39
-2.25268e+39
-2.25147e+39
-1.52297e+39
-7.47432e+38
-2.06492e+38
-1.46733e+37
2.41024e+36
6.63439e+34
1.01789e+34
2.57695e+33
2.29072e+32
1.55517e+32
-4.43361e+37
-3.09631e+38
-1.05393e+39
-1.96025e+39
-2.13888e+39
-1.53509e+39
-8.0373e+38
-2.42104e+38
-2.11736e+37
2.31431e+36
6.45995e+34
7.1463e+33
1.39687e+33
1.2187e+32
1.46819e+32
-2.16927e+37
-1.91371e+38
-7.74699e+38
-1.66162e+39
-1.99994e+39
-1.53592e+39
-8.57689e+38
-2.82042e+38
-2.89183e+37
2.04693e+36
5.55264e+34
3.72506e+33
7.09257e+32
1.16213e+32
1.45513e+32
-9.15106e+36
-1.07866e+38
-5.38102e+38
-1.36176e+39
-1.8282e+39
-1.52046e+39
-9.06747e+38
-3.22581e+38
-3.81962e+37
1.71126e+36
4.71072e+34
4.21829e+32
9.84886e+32
1.30163e+32
1.79728e+32
-3.03563e+36
-5.33086e+37
-3.45288e+38
-1.06803e+39
-1.629e+39
-1.48958e+39
-9.52406e+38
-3.56805e+38
-5.0063e+37
1.68182e+36
3.37257e+34
9.90602e+32
1.27575e+33
7.09817e+32
5.32582e+32
-5.65306e+35
-2.08657e+37
-1.95345e+38
-7.89932e+38
-1.41206e+39
-1.44548e+39
-9.94391e+38
-3.7564e+38
-6.38395e+37
1.76794e+36
1.60674e+35
8.94468e+33
2.00572e+33
1.70089e+33
1.09044e+33
-5.26072e+34
-4.86506e+36
-8.77226e+37
-5.33633e+38
-1.18337e+39
-1.38926e+39
-1.03373e+39
-3.78731e+38
-7.44275e+37
-2.13239e+36
4.60463e+35
1.0349e+35
7.92018e+34
4.78251e+34
1.67711e+34
-2.59327e+35
-4.53239e+35
-2.16835e+37
-3.05478e+38
-9.41728e+38
-1.31698e+39
-1.07385e+39
-3.88247e+38
-9.09146e+37
-1.48196e+37
5.62478e+35
8.11042e+34
-4.74263e+33
3.4911e+34
3.97437e+34
-4.11512e+35
-1.14909e+36
5.03989e+36
-1.17381e+38
-6.83687e+38
-1.21985e+39
-1.11306e+39
-4.01244e+38
-1.04828e+38
-3.48597e+37
-1.41349e+37
-1.18508e+37
-1.6231e+37
-2.07307e+37
-1.2457e+37
-1.02838e+36
-1.95038e+36
5.43775e+36
1.45226e+36
-4.1415e+38
-1.09066e+39
-1.1436e+39
-4.01843e+38
-9.7338e+37
-3.47168e+37
-4.20526e+37
-3.87875e+37
-5.04411e+37
-4.16535e+37
-2.2727e+37
-5.35709e+36
-1.73284e+36
1.17992e+37
1.74139e+37
-1.86594e+38
-9.2395e+38
-1.14146e+39
-3.993e+38
-8.10708e+37
-5.80209e+36
-9.254e+36
-2.00209e+37
-2.09287e+37
-1.73418e+37
-2.16412e+37
1.81455e+38
8.21695e+37
4.26318e+37
-2.82896e+36
-1.71242e+38
-6.88211e+38
-1.07057e+39
-3.99974e+38
-7.8211e+37
7.48846e+35
-9.74043e+35
-2.09273e+36
-3.13421e+36
-5.61727e+36
-1.86904e+37
-1.64341e+39
-6.89536e+38
-2.53662e+38
-1.04007e+38
-3.35435e+38
-7.45213e+38
-8.97908e+38
-3.91557e+38
-9.56379e+37
-4.68193e+37
-2.05323e+37
-1.07226e+37
-7.11896e+36
-5.49815e+36
-1.51589e+37
-1.30798e+40
-4.00521e+39
-2.64552e+39
-1.99264e+39
-1.377e+39
-1.06193e+39
-9.6019e+38
-3.00847e+38
-1.3789e+38
-7.31543e+37
-3.50559e+37
-1.7699e+37
-1.00431e+37
-5.95317e+36
-1.29438e+37
7.2264e+40
1.50254e+40
-3.2902e+39
-4.68873e+39
-4.21482e+39
-3.03097e+39
-1.85516e+39
-1.07676e+39
-4.60414e+38
-1.90412e+38
-7.94409e+37
-3.52492e+37
-1.7019e+37
-8.51594e+36
-1.09067e+37
1.4369e+42
3.07756e+41
1.11814e+41
4.23156e+40
1.46128e+40
3.9996e+39
-4.02843e+38
-1.09575e+39
-6.85064e+38
-3.14605e+38
-1.34865e+38
-5.86672e+37
-2.67305e+37
-1.31274e+37
-1.87511e+37
-1.95194e+43
-1.59925e+42
2.53864e+41
1.85777e+41
9.50025e+40
3.49426e+40
6.34054e+39
1.26006e+38
-4.58513e+38
-2.63358e+38
-1.0957e+38
-3.82492e+37
-1.14074e+37
-4.4201e+36
-6.59632e+36
2.81287e+43
-1.47556e+43
-4.43099e+42
-6.09166e+41
1.47516e+39
3.57599e+40
9.97914e+39
7.60484e+38
-2.27869e+38
-2.15403e+38
-1.31574e+38
-7.32264e+37
-3.60991e+37
-1.44918e+37
-9.87646e+35
3.38542e+45
1.50759e+44
-1.18866e+43
-1.2521e+42
-5.50126e+40
-3.1667e+40
8.7162e+39
6.09869e+39
3.74642e+39
3.43688e+39
2.84079e+39
2.10693e+39
1.33034e+39
6.79491e+38
3.56829e+38
-1.94791e+46
3.23089e+45
1.6581e+44
-2.13558e+43
2.95979e+42
2.03097e+41
8.61506e+40
1.25902e+41
1.09091e+41
8.69531e+40
6.68928e+40
4.7663e+40
2.97484e+40
1.50573e+40
5.85954e+39
-6.80201e+46
-1.68236e+46
3.52869e+45
-5.97421e+42
-1.84771e+43
3.99377e+42
7.51146e+41
4.03285e+41
2.73128e+41
1.45386e+41
6.59327e+40
3.05536e+40
2.03525e+40
1.85543e+40
8.99801e+39
9.59246e+47
-7.21592e+46
-1.4081e+46
3.21176e+45
-1.18769e+43
-2.26711e+43
-1.32089e+42
-4.03147e+42
-3.72554e+42
-3.09896e+42
-2.46591e+42
-1.80219e+42
-1.13231e+42
-5.59491e+41
-1.96609e+41
-1.87043e+48
8.52529e+47
-7.22433e+46
-1.301e+46
3.04478e+45
-4.57525e+43
-4.32433e+43
-1.26641e+43
-8.51242e+42
-3.78061e+42
-8.57405e+41
2.55128e+41
2.52133e+41
-1.22882e+41
-1.01504e+41
-1.06985e+50
-1.3021e+48
7.74e+47
-7.26865e+46
-1.22075e+46
2.9148e+45
-1.00852e+44
-1.18264e+44
-1.01042e+44
-1.00976e+44
-9.00112e+43
-7.17152e+43
-4.92694e+43
-2.73878e+43
-1.14265e+43
6.11824e+50
-9.97543e+49
-9.50796e+47
7.20792e+47
-7.61458e+46
-1.52542e+46
-5.22587e+44
-3.1934e+45
-2.89507e+45
-2.47213e+45
-2.02719e+45
-1.57419e+45
-1.11268e+45
-6.89913e+44
-3.40126e+44
9.37328e+51
1.73195e+51
-2.76872e+50
-3.9039e+48
2.07936e+48
-2.62789e+47
-8.48645e+46
-1.81555e+46
-1.28403e+46
-2.9029e+45
3.70917e+45
6.13709e+45
5.76694e+45
4.66532e+45
3.28098e+45
-1.77449e+53
8.57618e+51
1.71369e+51
-2.66006e+50
-5.44433e+48
2.36118e+48
-2.44769e+46
1.06945e+47
1.62035e+47
1.33944e+47
9.38026e+46
6.43207e+46
4.55899e+46
3.02849e+46
1.77338e+46
1.13252e+54
-1.60097e+53
8.84078e+51
1.64637e+51
-2.51175e+50
-6.60455e+48
4.27061e+48
1.43096e+48
1.13308e+48
8.918e+47
6.28951e+47
4.10141e+47
2.36613e+47
1.2108e+47
6.69971e+46
6.09055e+54
9.57592e+53
-1.50514e+53
7.49447e+51
2.31862e+51
-9.02088e+49
-2.09024e+49
1.90655e+49
1.10729e+49
6.53014e+48
4.00877e+48
2.26435e+48
1.11647e+48
4.69021e+47
2.24464e+47
-7.55015e+55
6.26463e+54
8.46204e+53
-1.36791e+53
7.90876e+51
1.30918e+51
-1.34391e+50
1.99444e+49
1.4583e+49
8.46304e+48
5.66585e+48
3.86376e+48
2.44625e+48
1.31952e+48
7.17061e+47
6.39038e+54
9.29141e+53
-1.55774e+53
9.14063e+51
1.8162e+51
-1.67351e+50
3.15142e+49
2.45721e+49
1.35653e+49
8.13083e+48
5.09651e+48
3.7393e+48
2.93646e+48
2.02065e+48
1.28769e+48
1.16228e+54
-1.75459e+53
3.43834e+51
1.65389e+51
2.58326e+49
3.64957e+49
3.41046e+49
2.36762e+49
1.52511e+49
9.29863e+48
5.42152e+48
3.83972e+48
3.04279e+48
2.26823e+48
1.52483e+48
-1.22939e+53
-8.85617e+51
-5.07367e+50
2.82492e+49
1.05368e+50
8.36033e+49
5.38939e+49
3.32497e+49
2.02702e+49
1.22496e+49
7.66177e+48
5.85065e+48
3.46644e+48
1.97749e+48
1.04999e+48
2.07139e+51
6.90648e+50
4.97431e+50
2.63462e+50
1.32635e+50
6.9474e+49
3.78409e+49
2.1288e+49
1.22479e+49
7.88801e+48
6.36231e+48
7.16175e+48
1.20032e+47
-1.22331e+47
-6.24762e+46
6.54001e+50
1.79468e+50
4.91833e+49
1.67119e+49
5.97519e+48
1.96535e+48
4.3794e+47
-2.16975e+47
-1.02737e+48
-8.94454e+47
5.09264e+47
2.36084e+47
6.61235e+46
9.54931e+45
3.81754e+45
-4.61404e+49
-1.50999e+49
-7.9254e+48
-4.79557e+48
-3.07057e+48
-2.08748e+48
-1.52534e+48
-1.22095e+48
-1.88917e+48
-1.99059e+48
-6.06419e+46
-1.33696e+48
-3.60286e+47
-1.70141e+47
-8.37847e+46
-2.21435e+48
-8.71334e+47
-2.70545e+47
-9.34333e+46
-2.32886e+46
-7.69531e+43
-1.05306e+47
-1.90216e+47
-1.68879e+46
-1.67305e+48
-2.61808e+47
-2.86503e+47
-2.15874e+47
-1.59838e+47
-1.03537e+47
4.1048e+47
1.41297e+47
7.08991e+46
5.06767e+46
4.03404e+46
2.83085e+46
1.01972e+46
-4.69954e+45
-1.20395e+46
-7.3079e+46
-1.78181e+47
-1.24987e+47
-4.25036e+46
-8.18007e+45
5.14088e+44
9.53611e+45
7.10298e+45
-5.36623e+44
-3.19293e+45
-4.03056e+45
-3.81235e+45
-1.75061e+45
1.32737e+44
1.02936e+45
4.31102e+45
-2.05615e+46
-3.27756e+46
-2.99925e+46
-2.49213e+46
-2.10673e+46
-1.19789e+46
-4.83229e+45
-2.0125e+45
-1.04712e+45
-6.24114e+44
-3.63424e+44
-2.67472e+44
-1.94487e+44
-8.29933e+43
1.18683e+44
1.67199e+45
1.77202e+45
1.28051e+45
9.27329e+44
7.16563e+44
1.30453e+45
4.76444e+44
2.65213e+44
1.87806e+44
1.4972e+44
1.10993e+44
5.20096e+43
-1.17119e+42
-5.54524e+43
-1.38787e+44
-6.56624e+42
1.45194e+44
1.74778e+44
1.56677e+44
1.27698e+44
5.32219e+43
2.3665e+43
6.69091e+42
9.61911e+41
-1.02724e+42
-7.15722e+41
2.85781e+42
5.27265e+42
1.69703e+42
-1.45974e+43
-6.27138e+43
-7.2125e+43
-6.0055e+43
-4.67905e+43
-3.55343e+43
-1.53291e+43
-5.89408e+42
-2.62697e+42
-1.52938e+42
-1.01567e+42
-5.83477e+41
-4.89953e+40
6.89166e+41
2.00213e+42
3.77161e+42
3.93338e+42
2.33046e+42
1.30416e+42
8.84961e+41
7.93724e+41
1.02423e+42
3.58783e+41
2.38044e+41
1.86213e+41
1.49568e+41
9.90935e+40
2.92602e+40
-4.85015e+39
7.98891e+40
4.50785e+41
1.10777e+42
1.21748e+42
1.03044e+42
8.45724e+41
7.55665e+41
1.3325e+41
4.85047e+40
1.65508e+40
8.56877e+39
5.54844e+39
4.53286e+39
4.44542e+39
-3.80283e+38
-1.52303e+40
-4.1541e+40
-6.85192e+40
-6.34094e+40
-4.19722e+40
-9.87643e+38
8.77983e+40
-1.70428e+40
-5.38361e+39
-4.83523e+39
-4.5539e+39
-4.04017e+39
-2.84275e+39
-8.84929e+38
1.19995e+39
2.74732e+39
1.85438e+39
-1.87369e+39
-4.19794e+39
-4.37472e+38
1.95692e+40
8.0093e+40
-5.46674e+39
-2.20106e+39
-7.86912e+38
-3.12388e+38
-1.45883e+38
-1.32008e+38
-2.15153e+38
-2.03059e+38
3.28686e+37
4.55019e+38
3.78858e+38
-8.65439e+38
-3.51497e+38
1.02487e+40
5.0734e+40
9.05772e+38
3.53634e+38
1.57698e+38
8.87833e+37
5.60211e+37
2.79808e+37
-4.38895e+36
-5.26256e+37
-1.74539e+38
-3.29489e+38
-7.21618e+38
-1.87921e+39
-3.23314e+39
4.49197e+37
2.31203e+40
-6.50465e+37
-2.50896e+37
-1.24596e+37
-7.85538e+36
-5.36554e+36
-2.68439e+36
2.32993e+36
4.2105e+36
-4.62444e+37
-1.03324e+38
-9.15317e+37
-3.24163e+38
-2.0664e+39
-5.18482e+39
-4.51657e+38
1.5511e+36
5.828e+35
4.85332e+35
3.99849e+35
3.30241e+35
4.58866e+35
3.02386e+36
4.79974e+36
-4.54323e+37
-7.25033e+37
8.48666e+37
1.89388e+38
-8.17933e+37
-1.56907e+39
-5.32634e+39
3.733e+35
1.40658e+35
8.08515e+34
5.97793e+34
5.00015e+34
2.59412e+35
3.06084e+36
5.32364e+36
-5.22042e+37
-8.01308e+37
1.36977e+38
3.10159e+38
3.41162e+38
1.18159e+38
-5.85677e+38
1.90354e+34
9.58503e+33
1.51547e+33
-1.82161e+33
-1.75816e+33
2.18528e+35
3.21359e+36
6.21596e+36
-5.67424e+37
-8.9654e+37
1.83838e+38
3.85357e+38
4.52169e+38
3.63969e+38
9.28793e+37
-8.93515e+33
-3.86577e+33
-1.84191e+33
-1.56883e+33
-1.08924e+33
2.17343e+35
3.40077e+36
7.17976e+36
-6.13205e+37
-1.08918e+38
2.24994e+38
4.71412e+38
5.59026e+38
4.65967e+38
1.79675e+38
9.18307e+32
3.02309e+32
-2.12172e+31
-6.85885e+32
-1.39454e+33
2.10695e+35
3.60656e+36
8.42723e+36
-6.96655e+37
-1.52527e+38
2.1617e+38
5.44315e+38
7.1181e+38
6.66218e+38
3.77573e+38
-4.75668e+31
-1.09292e+32
-2.86806e+32
-9.73903e+32
-2.67537e+33
2.00663e+35
3.86243e+36
1.01379e+37
-8.76945e+37
-2.29501e+38
1.08002e+38
4.98985e+38
8.04236e+38
9.32106e+38
8.20247e+38
-5.83773e+31
-1.33581e+32
-3.4867e+32
-1.159e+33
-4.24079e+33
1.70778e+35
4.02479e+36
1.24689e+37
-7.96416e+37
-3.21382e+38
-9.45257e+37
2.76379e+38
6.51228e+38
9.51585e+38
1.11634e+39
-6.17462e+31
-1.57314e+32
-4.22373e+32
-1.3771e+33
-5.71409e+33
1.29374e+35
3.93805e+36
1.46541e+37
-6.76902e+37
-3.28163e+38
-2.9743e+38
-6.93237e+37
2.31528e+38
5.45872e+38
8.39046e+38
-7.0852e+31
-1.84179e+32
-5.01465e+32
-1.60689e+33
-6.85029e+33
9.1392e+34
3.58941e+36
1.58057e+37
-6.26623e+37
-2.40362e+38
-3.45318e+38
-3.13637e+38
-1.82361e+38
7.81069e+36
2.34811e+38
-8.14563e+31
-2.14127e+32
-5.89794e+32
-1.8623e+33
-7.80958e+33
6.55069e+34
3.18595e+36
2.14873e+37
-3.61318e+37
-1.35499e+38
-2.4084e+38
-3.08286e+38
-3.19373e+38
-2.76787e+38
-1.87557e+38
-9.50722e+31
-2.54227e+32
-7.12667e+32
-2.22731e+33
-8.98056e+33
4.66338e+34
3.24317e+36
3.41372e+37
9.75699e+36
-4.82174e+37
-1.15635e+38
-1.80546e+38
-2.33309e+38
-2.67179e+38
-2.77977e+38
-1.12618e+32
-3.07019e+32
-8.7899e+32
-2.73624e+33
-1.04463e+34
2.0409e+34
3.35381e+36
3.48442e+37
3.88438e+37
1.59599e+37
-1.60973e+37
-5.22995e+37
-9.00872e+37
-1.27125e+38
-1.61111e+38
-1.31381e+32
-3.64512e+32
-1.06344e+33
-3.31218e+33
-1.19496e+34
-1.22798e+34
3.69964e+36
2.69426e+37
3.76524e+37
3.65465e+37
2.96304e+37
1.88537e+37
5.18166e+36
-1.08762e+37
-2.92064e+37
-1.50689e+32
-4.2453e+32
-1.25851e+33
-3.9265e+33
-1.35027e+34
-4.14565e+34
2.62528e+36
1.45973e+37
2.2185e+37
2.61604e+37
2.78773e+37
2.81312e+37
2.72374e+37
2.51196e+37
2.15051e+37
-1.72428e+32
-4.93423e+32
-1.48785e+33
-4.66164e+33
-1.53945e+34
-5.37242e+34
4.75572e+35
4.83129e+36
8.35494e+36
1.07869e+37
1.26102e+37
1.41735e+37
1.56063e+37
1.68006e+37
1.7601e+37
-1.96691e+32
-5.72463e+32
-1.7616e+33
-5.57995e+33
-1.80799e+34
-5.62852e+34
-1.04489e+34
6.66431e+35
1.58738e+36
2.3694e+36
3.04702e+36
3.72953e+36
4.43063e+36
5.11714e+36
5.7596e+36
-2.22005e+32
-6.54015e+32
-2.04759e+33
-6.57268e+33
-2.14513e+34
-6.61726e+34
-1.48412e+35
-1.68165e+35
-9.2191e+34
1.67256e+34
1.37213e+35
2.67473e+35
4.08203e+35
5.57141e+35
7.12139e+35
-2.42721e+32
-7.23956e+32
-2.29802e+33
-7.2403e+33
-2.06081e+34
-4.75804e+34
-8.47105e+34
-1.17115e+35
-1.36389e+35
-1.45031e+35
-1.46804e+35
-1.44788e+35
-1.39529e+35
-1.30846e+35
-1.18539e+35
-2.01547e+32
-5.16263e+32
-1.33604e+33
-3.3114e+33
-7.32999e+33
-1.38945e+34
-2.18683e+34
-2.91769e+34
-3.52545e+34
-4.04432e+34
-4.48889e+34
-4.88332e+34
-5.22763e+34
-5.50833e+34
-5.71817e+34
-1.26219e+32
-2.54092e+32
-4.63622e+32
-8.07949e+32
-1.3183e+33
-1.99283e+33
-2.76075e+33
-3.51055e+33
-4.20645e+33
-4.89474e+33
-5.59136e+33
-6.28263e+33
-6.9504e+33
-7.57393e+33
-8.14215e+33
-5.93277e+31
-1.05949e+32
-1.50152e+32
-1.85333e+32
-2.07597e+32
-2.21193e+32
-2.29817e+32
-2.3675e+32
-2.4599e+32
-2.60531e+32
-2.81145e+32
-3.06825e+32
-3.35838e+32
-3.66523e+32
-3.97832e+32
-1.86537e+31
-3.47119e+31
-4.85217e+31
-5.74271e+31
-6.02681e+31
-5.84597e+31
-5.3618e+31
-4.71882e+31
-4.04341e+31
-3.41439e+31
-2.85598e+31
-2.36591e+31
-1.93893e+31
-1.57231e+31
-1.26639e+31
-1.73187e+30
-4.66022e+30
-7.58697e+30
-9.76559e+30
-1.0966e+31
-1.13993e+31
-1.12711e+31
-1.0778e+31
-1.01093e+31
-9.37543e+30
-8.60972e+30
-7.82204e+30
-7.02515e+30
-6.2366e+30
-5.47369e+30
5.44447e+29
4.78041e+29
2.5673e+29
1.25114e+28
-2.11076e+29
-3.94468e+29
-5.32177e+29
-6.28357e+29
-6.94118e+29
-7.38583e+29
-7.6478e+29
-7.73988e+29
-7.68081e+29
-7.49411e+29
-7.20058e+29
1.503e+29
1.96622e+29
2.08997e+29
2.05544e+29
1.92136e+29
1.73903e+29
1.53574e+29
1.32944e+29
1.14267e+29
9.83319e+28
8.42288e+28
7.1369e+28
5.96312e+28
4.90256e+28
3.96069e+28
1.13691e+28
1.59947e+28
1.82899e+28
1.93783e+28
1.95343e+28
1.90812e+28
1.8226e+28
1.71384e+28
1.60902e+28
1.51919e+28
1.43278e+28
1.3437e+28
1.25197e+28
1.15887e+28
1.06603e+28
1.65832e+26
2.27459e+26
2.57893e+26
2.73423e+26
2.76754e+26
2.71466e+26
2.60543e+26
2.48147e+26
2.37611e+26
2.2872e+26
2.19752e+26
2.09937e+26
1.99226e+26
1.87779e+26
1.75846e+26
2.26537e+24
2.03621e+24
1.66239e+24
1.37305e+24
1.13809e+24
9.4688e+23
7.90812e+23
6.68268e+23
5.75364e+23
5.01712e+23
4.38967e+23
3.83536e+23
3.34093e+23
2.90063e+23
2.51331e+23
2.79712e+23
2.35397e+23
1.67637e+23
1.21853e+23
9.0869e+22
6.96472e+22
5.47045e+22
4.42136e+22
3.67954e+22
3.11978e+22
2.66655e+22
2.28487e+22
1.95791e+22
1.67653e+22
1.43578e+22
8.12055e+21
1.57851e+22
1.41444e+22
1.11215e+22
8.38264e+21
6.26372e+21
4.72673e+21
3.6553e+21
2.88473e+21
2.29589e+21
1.83053e+21
1.4597e+21
1.16422e+21
9.29781e+20
7.43181e+20
-7.58574e+21
-4.25919e+21
-1.99276e+21
-9.0723e+20
-3.88171e+20
-1.37333e+20
-1.44857e+19
4.54331e+19
7.16763e+19
7.92507e+19
7.72043e+19
7.06403e+19
6.22724e+19
5.36402e+19
4.5043e+19
-1.57307e+21
-1.19855e+21
-7.77885e+20
-5.06091e+20
-3.35172e+20
-2.28176e+20
-1.60686e+20
-1.17332e+20
-8.7903e+19
-6.678e+19
-5.11056e+19
-3.92908e+19
-3.03126e+19
-2.34567e+19
-1.82645e+19
-1.42177e+20
-1.121e+20
-7.97854e+19
-5.67429e+19
-4.06054e+19
-2.97084e+19
-2.25106e+19
-1.7608e+19
-1.39976e+19
-1.1189e+19
-8.95775e+18
-7.17293e+18
-5.74215e+18
-4.59641e+18
-3.68376e+18
-1.35678e+19
-7.36456e+18
-3.88871e+18
-2.36157e+18
-1.57421e+18
-1.12784e+18
-8.61574e+17
-6.88555e+17
-5.62139e+17
-4.62276e+17
-3.80768e+17
-3.13421e+17
-2.57543e+17
-2.11306e+17
-1.73229e+17
-9.99107e+17
-7.46476e+17
-3.7319e+17
-1.94124e+17
-1.03194e+17
-5.61427e+16
-3.09901e+16
-1.68023e+16
-8.37169e+15
-3.29582e+15
-3.35443e+14
1.27429e+15
2.04618e+15
2.30482e+15
2.30436e+15
4.12139e+17
1.61223e+17
5.78533e+16
2.10315e+16
7.23753e+15
1.70736e+15
-4.95723e+14
-1.20953e+15
-1.26615e+15
-1.08566e+15
-8.54326e+14
-6.39868e+14
-4.62338e+14
-3.25653e+14
-2.13028e+14
1.16338e+17
6.6606e+16
3.37355e+16
1.84453e+16
1.07867e+16
6.70644e+15
4.3947e+15
2.99371e+15
2.09218e+15
1.48471e+15
1.0638e+15
7.67951e+14
5.58001e+14
4.08145e+14
3.02067e+14
9.35014e+15
6.70072e+15
4.00179e+15
2.50165e+15
1.64166e+15
1.13001e+15
8.08859e+14
5.94183e+14
4.4181e+14
3.29842e+14
2.46619e+14
1.84501e+14
1.3802e+14
1.03372e+14
7.76883e+13
-2.58933e+14
-7.14652e+13
3.37745e+12
2.57664e+13
3.00151e+13
2.84795e+13
2.51628e+13
2.14227e+13
1.7762e+13
1.44269e+13
1.1535e+13
9.10634e+12
7.11519e+12
5.52261e+12
4.26752e+12
-1.14321e+14
-6.6967e+13
-3.65439e+13
-2.12179e+13
-1.31371e+13
-8.59803e+12
-5.8895e+12
-4.17084e+12
-3.00809e+12
-2.18592e+12
-1.59247e+12
-1.16107e+12
-8.47299e+11
-6.19473e+11
-4.56951e+11
-2.01854e+13
-1.04498e+13
-5.19441e+12
-2.85266e+12
-1.71284e+12
-1.10591e+12
-7.5642e+11
-5.39335e+11
-3.93906e+11
-2.90934e+11
-2.15822e+11
-1.60355e+11
-1.19297e+11
-8.8966e+10
-6.7003e+10
-3.4005e+12
-1.7893e+12
-8.6242e+11
-4.57646e+11
-2.64558e+11
-1.63919e+11
-1.07324e+11
-7.31768e+10
-5.1124e+10
-3.61762e+10
-2.578e+10
-1.84666e+10
-1.32972e+10
-9.63735e+09
-7.08076e+09
-3.73207e+11
-2.0427e+11
-1.02943e+11
-5.73704e+10
-3.4773e+10
-2.2456e+10
-1.5194e+10
-1.06066e+10
-7.5262e+09
-5.37587e+09
-3.84972e+09
-2.76263e+09
-1.98929e+09
-1.44157e+09
-1.05755e+09
-2.29203e+10
-1.19622e+10
-5.78856e+09
-3.28663e+09
-2.06395e+09
-1.3824e+09
-9.66377e+08
-6.93315e+08
-5.03099e+08
-3.66076e+08
-2.66343e+08
-1.93852e+08
-1.41446e+08
-1.0393e+08
-7.72182e+07
1.75216e+09
5.84435e+08
2.3456e+08
9.12559e+07
3.6668e+07
1.51295e+07
6.43039e+06
2.93504e+06
1.54378e+06
954586
657353
473413
342254
234961
176165
9.67215e+08
4.16099e+08
1.71012e+08
7.87887e+07
4.02951e+07
2.24737e+07
1.34741e+07
8.54787e+06
5.64008e+06
3.81701e+06
2.62732e+06
1.83155e+06
1.29061e+06
918813
666727
1.45697e+08
7.27097e+07
3.26701e+07
1.64708e+07
9.11093e+06
5.41694e+06
3.40509e+06
2.22618e+06
1.49109e+06
1.01351e+06
696108
482365
337268
238319
170871
8.85812e+06
5.01703e+06
2.50542e+06
1.38183e+06
824619
522086
345370
235129
162595
113409
79600.6
56211.2
39984.4
28709.1
20831
141607
47870.2
20383.4
12565.5
9081.08
6842.31
5218.15
3976.15
3004.6
2250.64
1677.08
1248.6
932.47
700.553
527.499
-13586.8
-9308.82
-6156.49
-3681.3
-2282.75
-1485.85
-1009.11
-706.061
-502.017
-359.837
-259.335
-187.789
-136.657
-99.9473
-73.7038
-10609.4
-3994.36
-1514.09
-645.002
-311.375
-168.011
-99.7022
-63.7083
-42.8162
-29.7052
-21.0303
-15.0887
-10.9364
-7.99738
-5.94297
-2172.69
-962.776
-386.753
-176.535
-89.8868
-50.0632
-29.8925
-18.7544
-12.1606
-8.06908
-5.44398
-3.71678
-2.56395
-1.78802
-1.26521
-190.07
-89.5526
-38.5776
-18.7108
-10.131
-5.97737
-3.75103
-2.45091
-1.64233
-1.12021
-0.774353
-0.540442
-0.380288
-0.269779
-0.192881
-17.6556
-5.82775
-2.00368
-0.841671
-0.427038
-0.245636
-0.153267
-0.100519
-0.0679127
-0.0468287
-0.0327847
-0.0231928
-0.0165426
-0.0118891
-0.00859073
-1.71173
-0.543601
-0.147803
-0.0565895
-0.0266004
-0.0138955
-0.00772574
-0.00445229
-0.00262098
-0.00156808
-0.000950886
-0.000582225
-0.00035934
-0.000224595
-0.000140477
0.273392
0.075118
0.0221619
0.00628225
0.00180409
0.000475959
8.04723e-05
-2.52092e-05
-4.36388e-05
-3.90042e-05
-2.98271e-05
-2.11539e-05