/*--------------------------------*- C++ -*----------------------------------*\
  =========                 |
  \\      /  F ield         | OpenFOAM: The Open Source CFD Toolbox
   \\    /   O peration     | Website:  https://openfoam.org
    \\  /    A nd           | Version:  7
     \\/     M anipulation  |
\*---------------------------------------------------------------------------*/
FoamFile
{
    version     2.0;
    format      ascii;
    class       volScalarField;
    location    "4.5";
    object      T;
}
// * * * * * * * * * * * * * * * * * * * * * * * * * * * * * * * * * * * * * //

dimensions      [0 0 0 1 0 0 0];

internalField   nonuniform List<scalar> 
32100
(
8.0072e+132
3.22926e+132
-3.56232e+131
7.1191e+129
3.06761e+129
-3.40919e+128
-3.86132e+127
6.29769e+126
-2.59248e+125
-6.85444e+124
4.52282e+123
1.09346e+122
-4.66389e+119
-1.02347e+120
-2.68838e+119
3.66099e+132
-3.84423e+131
6.82391e+129
3.24208e+129
-3.46836e+128
-4.03284e+127
6.46881e+126
-2.58121e+125
-6.74714e+124
8.62216e+123
2.09093e+123
1.63893e+122
-8.6072e+120
-1.02039e+120
-2.65196e+119
-4.16792e+131
6.46764e+129
3.49403e+129
-3.56409e+128
-4.25017e+127
6.71691e+126
-2.62756e+125
-7.10414e+124
8.47416e+123
1.47044e+123
5.91682e+122
9.61541e+121
-1.34722e+121
-6.26765e+119
-2.10914e+119
5.93699e+129
4.03285e+129
-3.53031e+128
-4.76428e+127
6.94663e+126
-2.20412e+125
-7.81899e+124
6.65401e+123
8.65749e+122
-7.52881e+120
1.63031e+122
2.77934e+121
-1.25264e+121
-2.66026e+119
-1.40158e+119
5.20291e+129
-1.88156e+128
-3.83306e+127
5.02846e+126
-2.63852e+125
-3.93002e+124
2.87689e+123
-5.95231e+122
-1.56987e+122
2.38151e+121
1.52506e+121
-2.24592e+120
-8.36502e+120
4.83505e+117
-6.11726e+118
4.72586e+128
1.26371e+128
1.93726e+127
-2.37633e+126
-1.10355e+125
4.42304e+124
-3.76078e+123
-1.55798e+123
-6.34779e+120
-4.38569e+120
-9.49265e+120
-6.79889e+120
-4.16457e+120
1.70989e+119
-1.25979e+117
7.33286e+128
1.83469e+128
1.21616e+127
-2.07732e+126
-4.61165e+124
3.64675e+124
-4.07053e+123
-1.37794e+123
-2.11192e+121
-9.57928e+119
-6.19369e+120
-3.72931e+120
-1.41701e+120
2.25002e+119
2.5606e+118
7.48899e+128
1.67869e+128
1.29886e+127
-1.83505e+126
-7.64073e+124
3.4591e+124
-3.17667e+123
-1.37008e+123
-3.20937e+121
3.26468e+120
-2.74208e+120
-9.36616e+119
-1.76359e+119
1.8922e+119
2.61938e+118
6.82156e+128
1.60441e+128
1.3697e+127
-1.67507e+126
-9.96526e+124
3.35194e+124
-2.45975e+123
-1.34352e+123
-4.34183e+121
4.62603e+120
-1.46204e+120
1.44347e+118
1.42935e+119
1.16005e+119
1.60057e+118
6.26582e+128
1.52748e+128
1.42346e+127
-1.49454e+126
-1.2036e+125
3.1851e+124
-1.7465e+123
-1.30251e+123
-5.52757e+121
4.74628e+120
-1.23965e+120
3.20346e+118
1.27067e+119
5.31409e+118
6.54996e+117
5.7501e+128
1.45182e+128
1.47253e+127
-1.30334e+126
-1.39641e+125
2.98095e+124
-1.05959e+123
-1.24952e+123
-6.62319e+121
4.56656e+120
-1.10605e+120
-5.09379e+118
6.43397e+118
1.7809e+118
1.5135e+117
5.2741e+128
1.38507e+128
1.5041e+127
-1.10397e+126
-1.56643e+125
2.74298e+124
-4.15863e+122
-1.18622e+123
-7.57995e+121
4.20779e+120
-9.13621e+119
-8.64667e+118
2.98348e+118
4.71131e+117
-8.08877e+115
4.85605e+128
1.31363e+128
1.46191e+127
-9.07752e+125
-1.68407e+125
2.4775e+124
1.63e+122
-1.11498e+123
-8.36149e+121
3.66543e+120
-7.202e+119
-8.6392e+118
1.88982e+118
1.69826e+117
-1.59965e+116
4.38551e+128
1.09282e+128
1.22461e+127
-6.3193e+125
-1.60176e+125
2.165e+124
5.85524e+122
-1.03592e+123
-8.92031e+121
2.98415e+120
-5.83086e+119
-8.93045e+118
1.23797e+118
1.1058e+117
-9.99321e+115
3.11164e+128
8.15573e+127
1.0222e+127
-4.02211e+125
-1.39483e+125
1.65181e+124
8.41512e+122
-9.00965e+122
-9.2362e+121
2.31522e+120
-4.9128e+119
-1.06456e+119
1.20874e+118
1.26527e+117
-6.49437e+115
2.20696e+128
6.59679e+127
9.25722e+126
-2.59212e+125
-1.27173e+125
1.24556e+124
1.12667e+123
-7.74487e+122
-9.70907e+121
1.63265e+120
-3.90212e+119
-1.259e+119
1.36773e+118
1.7841e+117
-5.18036e+115
1.86489e+128
5.90811e+127
8.79834e+126
-1.57122e+125
-1.24267e+125
1.01317e+124
1.44406e+123
-6.92601e+122
-1.03639e+122
8.06204e+119
-2.70496e+119
-1.36958e+119
1.27694e+118
2.30924e+117
-4.30447e+115
1.64407e+128
5.50986e+127
8.70238e+126
-6.48886e+124
-1.24696e+125
8.03915e+123
1.71275e+123
-6.21932e+122
-1.10529e+122
-2.26686e+119
-1.47755e+119
-1.42659e+119
1.01777e+118
2.67942e+117
-2.57915e+115
1.46267e+128
5.15408e+127
8.59666e+126
3.01208e+124
-1.24147e+125
5.77521e+123
1.9485e+123
-5.50659e+122
-1.1718e+122
-1.46054e+120
-3.10228e+118
-1.43668e+119
6.76137e+117
2.8849e+117
2.10363e+114
1.30737e+128
4.80932e+127
8.45514e+126
1.28808e+125
-1.22243e+125
3.32094e+123
2.14604e+123
-4.73402e+122
-1.23019e+122
-2.88171e+120
7.15013e+118
-1.42839e+119
3.2107e+117
3.03841e+117
3.89921e+115
1.16453e+128
4.45522e+127
8.25647e+126
2.28547e+125
-1.18679e+125
7.02317e+122
2.29432e+123
-3.89098e+122
-1.27805e+122
-4.48944e+120
1.57167e+119
-1.37338e+119
-5.04626e+116
3.08488e+117
8.15994e+115
1.0274e+128
4.0819e+127
8.02044e+126
3.28096e+125
-1.13164e+125
-2.04658e+123
2.3799e+123
-2.98825e+122
-1.31591e+122
-6.30779e+120
2.21337e+119
-1.26923e+119
-4.05729e+117
2.95471e+117
1.22896e+116
8.97296e+127
3.70582e+127
7.76348e+126
4.26099e+125
-1.05511e+125
-4.87433e+123
2.39032e+123
-2.03309e+122
-1.34359e+122
-8.38663e+120
2.5843e+119
-1.14682e+119
-7.27221e+117
2.75631e+117
1.59314e+116
7.76224e+127
3.33861e+127
7.48209e+126
5.21242e+125
-9.54276e+124
-7.69431e+123
2.31636e+123
-1.03305e+122
-1.35831e+122
-1.07683e+121
2.62723e+119
-1.01207e+119
-1.03366e+118
2.55054e+117
1.92036e+116
6.66491e+127
2.99618e+127
7.18868e+126
6.13343e+125
-8.28207e+124
-1.04223e+124
2.14913e+123
3.41053e+119
-1.35521e+122
-1.34455e+121
2.24187e+119
-8.5929e+118
-1.34333e+118
2.34108e+117
2.25062e+116
5.68225e+127
2.67894e+127
6.86974e+126
7.00934e+125
-6.76049e+124
-1.2971e+124
1.87864e+123
1.05949e+122
-1.32811e+122
-1.64255e+121
1.28382e+119
-6.85022e+118
-1.67707e+118
2.12078e+117
2.6468e+116
4.82693e+127
2.38456e+127
6.52963e+126
7.83829e+125
-4.96591e+124
-1.52403e+124
1.49666e+123
2.10921e+122
-1.26961e+122
-1.96992e+121
-4.3487e+118
-4.71804e+118
-2.02067e+118
1.82589e+117
3.1016e+116
4.1014e+127
2.12339e+127
6.20596e+126
8.64174e+125
-2.88455e+124
-1.71077e+124
9.94884e+122
3.11642e+122
-1.16958e+122
-2.33839e+121
-3.13584e+119
-2.15057e+118
-2.30397e+118
1.3948e+117
3.50239e+116
3.47906e+127
1.89895e+127
5.91891e+126
9.42636e+125
-4.99939e+123
-1.84453e+124
3.68092e+122
4.03568e+122
-1.01938e+122
-2.73353e+121
-7.09506e+119
6.30738e+117
-2.52689e+118
8.56484e+116
3.83578e+116
2.92876e+127
1.69618e+127
5.63993e+126
1.01518e+126
2.18897e+124
-1.90841e+124
-3.8864e+122
4.80229e+122
-8.13518e+121
-3.13497e+121
-1.26061e+120
3.42154e+118
-2.68352e+118
2.02563e+116
4.10078e+116
2.43163e+127
1.49107e+127
5.29674e+126
1.07516e+126
5.16111e+124
-1.88126e+124
-1.27674e+123
5.32919e+122
-5.42797e+121
-3.53834e+121
-2.013e+120
5.86667e+118
-2.659e+118
-5.55295e+116
4.20171e+116
1.99277e+127
1.28012e+127
4.8483e+126
1.12123e+126
8.38505e+124
-1.73942e+124
-2.28558e+123
5.48654e+122
-1.975e+121
-3.909e+121
-3.03851e+120
7.32349e+118
-2.45922e+118
-1.34822e+117
4.21698e+116
1.63234e+127
1.0917e+127
4.40967e+126
1.15312e+126
1.18132e+125
-1.45501e+124
-3.38233e+123
5.09466e+122
2.26518e+121
-4.19889e+121
-4.44114e+120
7.19536e+118
-2.2167e+118
-2.29694e+117
4.33575e+116
1.34169e+127
9.48745e+126
4.09107e+126
1.17504e+126
1.54457e+125
-9.99164e+123
-4.50519e+123
3.961e+122
7.15369e+121
-4.31556e+121
-6.32779e+120
3.79462e+118
-1.8524e+118
-3.68021e+117
4.56322e+116
1.09802e+127
8.35464e+126
3.83815e+126
1.19104e+126
1.93136e+125
-3.3686e+123
-5.53794e+123
1.90323e+122
1.23186e+122
-4.1381e+121
-8.79987e+120
-6.45176e+118
-1.10771e+118
-5.63795e+117
4.62105e+116
8.91831e+126
7.25046e+126
3.54968e+126
1.20212e+126
2.34162e+125
5.73648e+123
-6.26383e+123
-1.18955e+122
1.71382e+122
-3.50518e+121
-1.18505e+121
-2.99004e+119
2.25279e+117
-8.1947e+117
3.87567e+116
7.18667e+126
6.20547e+126
3.24771e+126
1.21109e+126
2.7766e+125
1.76056e+124
-6.49462e+123
-5.30568e+122
2.07159e+122
-2.26942e+121
-1.51942e+121
-7.78722e+119
2.20298e+118
-1.10198e+118
1.03158e+116
5.72582e+126
5.30406e+126
2.98103e+126
1.21708e+126
3.22791e+125
3.22017e+124
-6.0713e+123
-1.03015e+123
2.18313e+122
-3.66028e+120
-1.81648e+121
-1.57835e+120
4.07538e+118
-1.281e+118
-5.64513e+116
4.4963e+126
4.53102e+126
2.74259e+126
1.21321e+126
3.65547e+125
4.8889e+124
-4.78367e+123
-1.58406e+123
1.90441e+122
2.11803e+121
-1.98044e+121
-2.73605e+120
4.05231e+118
-1.1726e+118
-1.76143e+117
3.46514e+126
3.85965e+126
2.5249e+126
1.19778e+126
3.97795e+125
6.67966e+124
-2.43646e+123
-2.12755e+123
1.11905e+122
4.84929e+121
-1.91408e+121
-4.22424e+120
-1.13592e+118
-5.39748e+117
-3.56555e+117
2.60515e+126
3.24285e+126
2.30304e+126
1.16205e+126
4.17651e+125
8.49178e+124
1.04842e+123
-2.54401e+123
-2.10246e+121
7.33112e+121
-1.55853e+121
-5.91904e+120
-1.76964e+119
9.16019e+117
-5.66623e+117
1.90486e+126
2.65033e+126
2.05897e+126
1.09852e+126
4.29991e+125
1.02326e+125
5.56193e+123
-2.74908e+123
-2.04999e+122
9.10431e+121
-9.19697e+120
-7.3888e+120
-4.49683e+119
2.66021e+118
-6.63864e+117
1.36807e+126
2.10369e+126
1.79069e+126
1.01862e+126
4.36638e+125
1.18324e+125
1.08556e+124
-2.62281e+123
-4.30638e+122
9.71972e+121
-7.90442e+119
-7.89662e+120
-7.73771e+119
3.903e+118
-5.48491e+117
9.76677e+125
1.64436e+126
1.52618e+126
9.40044e+125
4.38251e+125
1.32525e+125
1.66309e+124
-2.16878e+123
-6.35088e+122
8.858e+121
8.16779e+120
-7.70206e+120
-1.12307e+120
4.20646e+118
-2.60805e+117
6.98871e+125
1.2858e+126
1.30042e+126
8.6933e+125
4.36495e+125
1.45103e+125
2.26446e+124
-1.43254e+123
-7.91051e+122
6.34877e+121
1.66719e+121
-6.9613e+120
-1.31262e+120
3.65179e+118
5.87555e+117
5.02831e+125
1.01377e+126
1.11545e+126
8.04562e+125
4.33274e+125
1.56632e+125
2.88572e+124
-4.87496e+122
-9.10982e+122
3.06917e+121
2.13836e+121
-5.4137e+120
-1.23089e+120
5.67701e+117
6.26697e+117
3.6159e+125
8.04158e+125
9.65814e+125
7.48161e+125
4.29509e+125
1.67728e+125
3.53809e+124
6.30413e+122
-9.89743e+122
-2.23059e+120
2.36008e+121
-3.98076e+120
-1.08033e+120
-8.59604e+117
3.24402e+117
2.58729e+125
6.37682e+125
8.40048e+125
6.98996e+125
4.24601e+125
1.77803e+125
4.21581e+124
1.94453e+123
-1.06148e+123
-3.43851e+121
2.61803e+121
-3.05434e+120
-1.01825e+120
-1.49932e+118
2.81635e+117
1.82001e+125
5.00637e+125
7.24711e+125
6.50134e+125
4.16173e+125
1.85411e+125
4.86827e+124
3.47658e+123
-1.11251e+123
-7.01288e+121
2.83891e+121
-2.38568e+120
-1.0313e+120
-2.13976e+118
3.03063e+117
1.25844e+125
3.87837e+125
6.19124e+125
6.01501e+125
4.04761e+125
1.91012e+125
5.48399e+124
5.22459e+123
-1.1169e+123
-1.10369e+122
3.02098e+121
-1.79153e+120
-1.06912e+120
-2.95073e+118
3.33517e+117
8.51922e+124
2.97116e+125
5.28078e+125
5.56732e+125
3.93023e+125
1.96433e+125
6.14037e+124
7.2298e+123
-1.07164e+123
-1.54592e+122
3.13367e+121
-1.20093e+120
-1.08496e+120
-3.84126e+118
2.92208e+117
5.61192e+124
2.24334e+125
4.48234e+125
5.10299e+125
3.8145e+125
2.01888e+125
6.87141e+124
9.62319e+123
-9.66264e+122
-2.02182e+122
3.12606e+121
-5.97383e+119
-1.04055e+120
-4.55165e+118
9.66938e+116
3.62191e+124
1.65399e+125
3.71209e+125
4.60696e+125
3.69223e+125
2.07411e+125
7.64091e+124
1.2477e+124
-7.79471e+122
-2.51824e+122
2.98961e+121
-5.00047e+118
-9.36521e+119
-4.91195e+118
-2.37337e+117
2.28302e+124
1.19076e+125
2.99486e+125
4.12278e+125
3.58651e+125
2.13332e+125
8.4534e+124
1.58084e+124
-4.86851e+122
-3.0031e+122
2.74417e+121
3.55811e+119
-7.90051e+119
-4.96123e+118
-7.56495e+117
1.37247e+124
8.39211e+124
2.38718e+125
3.67604e+125
3.4858e+125
2.18885e+125
9.30182e+124
1.96303e+124
-6.52315e+121
-3.43567e+122
2.39877e+121
5.39342e+119
-6.11037e+119
-4.76049e+118
-1.54976e+118
7.6604e+123
5.70328e+124
1.86242e+125
3.24111e+125
3.34769e+125
2.23459e+125
1.01884e+125
2.39562e+124
5.07641e+122
-3.7563e+122
1.96076e+121
4.25553e+119
-4.08565e+119
-3.35514e+118
-1.8867e+118
3.80473e+123
3.65745e+124
1.40357e+125
2.78904e+125
3.16852e+125
2.26888e+125
1.11379e+125
2.89882e+124
1.24932e+123
-3.78095e+122
1.41564e+121
6.17587e+118
-1.68337e+119
-1.32817e+118
-1.79761e+118
1.58746e+123
2.17312e+124
1.01139e+125
2.33282e+125
2.94516e+125
2.28259e+125
1.2073e+125
3.47052e+124
2.16466e+123
-3.48656e+122
8.73206e+120
-2.75469e+119
-1.50762e+118
-4.75747e+117
-1.72625e+118
4.93083e+122
1.16051e+124
6.85324e+124
1.88121e+125
2.66981e+125
2.26745e+125
1.2959e+125
4.06416e+124
3.27996e+123
-3.12936e+122
4.32707e+120
-2.54822e+119
-1.78133e+118
1.28242e+118
-1.80249e+118
5.9362e+121
5.2908e+123
4.25602e+124
1.44617e+125
2.35278e+125
2.22372e+125
1.38138e+125
4.58921e+124
4.6945e+123
-3.70581e+122
1.85537e+120
-4.3396e+119
-6.36633e+118
-7.1175e+118
-7.37023e+118
-3.73134e+121
1.79097e+123
2.29315e+124
1.04165e+125
2.00996e+125
2.15331e+125
1.46262e+125
4.93044e+124
6.4008e+123
-5.34657e+122
4.42164e+120
8.66815e+119
9.38063e+119
4.78618e+119
7.26256e+118
1.01936e+121
2.98413e+122
9.41129e+123
6.7654e+124
1.65117e+125
2.05603e+125
1.53949e+125
5.09603e+124
8.01104e+123
-1.38134e+122
-2.76757e+121
-3.79137e+120
-6.11856e+120
-2.91211e+120
-7.71391e+119
5.90587e+121
8.14527e+121
1.72539e+123
3.60428e+124
1.27658e+125
1.92481e+125
1.61311e+125
5.38342e+124
1.04235e+124
1.29247e+123
-1.4068e+122
-4.29731e+121
-4.2985e+121
-3.55773e+121
-1.53127e+121
7.41092e+121
1.98986e+122
-8.00336e+122
1.11922e+124
8.85244e+124
1.74847e+125
1.67691e+125
5.74324e+124
1.25812e+124
3.86516e+123
1.51582e+123
1.36338e+123
1.92827e+123
2.45236e+123
1.44195e+123
1.52421e+122
3.15743e+122
-7.18432e+122
-2.9174e+123
4.92488e+124
1.52133e+125
1.71648e+125
5.93569e+124
1.21102e+124
4.03315e+123
5.17616e+123
4.78004e+123
6.1417e+123
4.92071e+123
2.69403e+123
8.76698e+122
2.77268e+122
-1.67424e+123
-4.10033e+123
1.85507e+124
1.24416e+125
1.69546e+125
6.04608e+124
1.07193e+124
4.81334e+122
1.11699e+123
2.39734e+123
2.31456e+123
1.93344e+123
2.57589e+123
-2.71821e+124
-1.23422e+124
-6.27472e+123
-2.16453e+123
1.74792e+124
9.04769e+124
1.56717e+125
6.11701e+124
1.11184e+124
-4.88067e+121
7.43307e+121
2.42691e+122
3.51678e+122
6.08582e+122
2.20792e+123
1.72332e+125
7.57987e+124
2.41531e+124
7.42029e+123
4.0988e+124
1.01428e+125
1.32681e+125
5.95512e+124
1.43785e+124
6.36241e+123
2.6684e+123
1.32951e+123
8.6864e+122
6.41361e+122
1.7912e+123
2.24692e+126
6.95398e+125
3.91926e+125
2.75942e+125
1.87087e+125
1.5695e+125
1.51503e+125
5.03143e+124
2.07131e+124
1.01782e+124
4.66562e+123
2.26066e+123
1.25147e+123
7.14221e+122
1.52834e+123
-7.88432e+126
-1.47449e+126
8.85333e+125
9.27072e+125
7.51183e+125
5.21105e+125
3.05441e+125
1.65036e+125
6.72509e+124
2.64301e+124
1.05627e+124
4.5135e+123
2.1167e+123
1.02226e+123
1.28542e+123
-3.85759e+128
-7.8402e+127
-2.45222e+127
-8.70437e+126
-3.04219e+126
-9.2241e+125
-3.06833e+124
1.48161e+125
9.77035e+124
4.40989e+124
1.82897e+124
7.67629e+123
3.38372e+123
1.59366e+123
2.20991e+123
6.88602e+129
6.6039e+128
-8.8911e+126
-3.07465e+127
-1.74887e+127
-6.51887e+126
-1.21899e+126
-5.52716e+124
6.53981e+124
3.96282e+124
1.70127e+124
6.411e+123
2.26858e+123
9.51008e+122
1.20196e+123
-2.58322e+130
3.99289e+129
1.58335e+129
3.04199e+128
3.22126e+127
-4.11037e+126
-1.56053e+126
-3.59802e+123
1.52502e+125
1.29936e+125
9.47589e+124
6.50052e+124
4.03225e+124
2.17508e+124
1.62509e+124
-3.66654e+131
-3.647e+130
4.02897e+129
7.03499e+128
1.00084e+128
8.09181e+126
-2.58344e+125
3.20226e+125
3.78362e+125
1.68305e+125
5.23131e+124
1.06551e+124
6.44067e+123
1.30648e+124
2.30555e+124
8.71769e+131
-3.79855e+131
-3.94116e+130
8.32905e+129
-6.25827e+128
-1.54454e+127
-1.11807e+127
-1.86604e+127
-1.66688e+127
-1.38053e+127
-1.09146e+127
-7.88179e+126
-4.90361e+126
-2.41439e+126
-8.88829e+125
2.67888e+133
6.03554e+131
-4.10011e+131
-1.42434e+130
7.50833e+129
-9.12121e+128
-1.53157e+128
-1.02346e+128
-7.56069e+127
-4.8833e+127
-3.03166e+127
-1.90423e+127
-1.20871e+127
-7.36586e+126
-2.93892e+126
-3.19901e+134
2.51484e+133
3.81184e+131
-3.76863e+131
-1.25243e+130
7.37191e+129
-5.09e+128
2.35785e+128
2.53641e+128
2.25299e+128
1.90047e+128
1.43186e+128
8.9405e+127
4.11464e+127
1.35231e+127
5.71413e+134
-2.83706e+134
2.36809e+133
3.1073e+131
-3.65901e+131
-1.19275e+130
5.56339e+129
-2.97761e+129
-2.71176e+129
-2.74656e+129
-2.48676e+129
-1.95687e+129
-1.27794e+129
-6.43209e+128
-2.41248e+128
1.90048e+136
3.86876e+134
-2.57663e+134
2.26578e+133
2.04687e+131
-3.99682e+131
-3.78265e+130
-1.0101e+130
-9.84704e+129
-3.30744e+129
2.57363e+128
1.54939e+129
1.39811e+129
6.01396e+128
1.98966e+128
-7.68882e+136
1.78121e+136
2.73718e+134
-2.41122e+134
2.23044e+133
7.4064e+131
1.81182e+131
5.29765e+131
5.23509e+131
4.63554e+131
3.93687e+131
3.12984e+131
2.23866e+131
1.38599e+131
6.81546e+130
-1.88249e+138
-2.2018e+137
4.93731e+136
1.13965e+135
-7.01111e+134
8.06707e+133
1.47574e+133
8.51218e+132
6.5655e+132
4.21564e+132
2.33923e+132
1.27374e+132
7.17298e+131
4.16722e+131
3.47722e+131
3.35621e+139
-1.73814e+138
-2.22374e+137
4.76554e+136
1.59837e+135
-7.22958e+134
6.41158e+133
2.42713e+129
-7.78587e+132
-6.99185e+132
-4.87612e+132
-3.69255e+132
-2.89317e+132
-1.82969e+132
-1.01458e+132
-1.07122e+140
3.01994e+139
-1.74109e+138
-2.11745e+137
4.62849e+136
1.91937e+135
-9.64862e+134
-1.41564e+134
-1.39682e+134
-1.08586e+134
-7.58202e+133
-4.84075e+133
-2.71434e+133
-1.34941e+133
-7.43464e+132
-1.84694e+141
-8.21152e+139
2.83382e+139
-1.45684e+138
-3.29634e+137
2.71931e+136
5.48808e+135
-3.08947e+135
-1.65437e+135
-9.27963e+134
-5.73438e+134
-3.20362e+134
-1.55852e+134
-6.38683e+133
-3.05512e+133
1.25799e+142
-1.78663e+141
-6.84824e+139
2.55839e+139
-1.54483e+138
-1.69323e+137
2.56924e+136
-2.473e+135
-2.3498e+135
-1.23815e+135
-8.4511e+134
-5.78129e+134
-3.67635e+134
-1.97397e+134
-1.06646e+134
-1.90371e+141
-7.68933e+139
2.89641e+139
-1.8069e+138
-2.44512e+137
3.29101e+136
-3.60345e+135
-3.98367e+135
-1.99284e+135
-1.20579e+135
-7.46368e+134
-5.47738e+134
-4.43191e+134
-3.0802e+134
-1.95422e+134
-1.13539e+140
3.31402e+139
-8.51798e+137
-2.4518e+137
1.09404e+135
-4.23633e+135
-5.15283e+135
-3.6199e+135
-2.34892e+135
-1.42802e+135
-8.20736e+134
-5.69659e+134
-4.62566e+134
-3.44856e+134
-2.27924e+134
2.32626e+139
1.56896e+138
8.27702e+136
-5.84233e+135
-1.6534e+136
-1.29713e+136
-8.30855e+135
-5.11071e+135
-3.10955e+135
-1.86817e+135
-1.15868e+135
-8.84864e+134
-5.18763e+134
-2.84396e+134
-1.41469e+134
-5.34452e+137
-1.4239e+137
-8.32785e+136
-4.21055e+136
-2.06408e+136
-1.06549e+136
-5.74561e+135
-3.19787e+135
-1.80996e+135
-1.14168e+135
-8.86906e+134
-9.7682e+134
1.66512e+133
3.3854e+133
1.55622e+133
-9.22888e+136
-2.49915e+136
-6.15586e+135
-1.91029e+135
-5.39805e+134
-3.66358e+133
1.32055e+134
1.91469e+134
3.44315e+134
4.24698e+134
-4.02913e+133
-6.01009e+133
-1.39835e+133
-2.01569e+132
-9.60052e+131
7.37024e+135
2.30329e+135
1.35196e+135
9.0154e+134
6.0641e+134
4.21152e+134
3.1046e+134
2.45494e+134
3.91361e+134
5.64182e+134
1.94136e+134
3.06255e+134
7.44582e+133
3.43405e+133
1.66057e+133
7.56724e+134
3.05904e+134
9.3531e+133
2.57754e+133
-5.79475e+131
-8.67313e+132
1.72536e+133
3.88687e+133
1.41616e+133
4.03893e+134
2.0845e+134
1.58854e+134
1.02809e+134
6.66623e+133
4.06107e+133
-1.59573e+134
-5.94782e+133
-2.67798e+133
-1.57797e+133
-1.09031e+133
-7.02881e+132
-3.0773e+132
-1.02415e+131
2.09892e+132
1.33058e+133
4.81715e+133
4.60691e+133
2.82399e+133
1.6884e+133
1.1153e+133
7.92096e+132
2.74483e+132
1.6994e+132
1.28204e+132
1.0569e+132
8.02941e+131
2.77628e+131
-1.47774e+131
-2.82998e+131
-1.26795e+132
3.5894e+132
6.39796e+132
6.06449e+132
5.1078e+132
4.34427e+132
7.52776e+131
2.95625e+131
1.08828e+131
5.7543e+130
3.42379e+130
1.90711e+130
2.18838e+130
2.11415e+130
1.03749e+130
-5.02099e+130
-4.99983e+131
-5.66333e+131
-4.40745e+131
-3.36931e+131
-2.68686e+131
-9.22022e+130
-2.66096e+130
-2.23018e+130
-2.12982e+130
-1.9908e+130
-1.63844e+130
-8.73993e+129
-1.16593e+129
7.19838e+129
1.78665e+130
-8.96179e+129
-3.35042e+130
-3.62466e+130
-3.15849e+130
-2.55167e+130
-2.65511e+130
-1.12074e+130
-3.93107e+129
-1.41392e+129
-4.22837e+128
-1.14234e+128
-5.69031e+128
-9.6144e+128
-5.88694e+128
1.60136e+129
9.10394e+129
1.08098e+130
9.0702e+129
7.07647e+129
5.37355e+129
5.18388e+129
2.0065e+129
9.22684e+128
5.43075e+128
3.68074e+128
2.29855e+128
8.15371e+127
-9.20029e+127
-3.70766e+128
-7.44914e+128
-8.81851e+128
-6.04535e+128
-3.86634e+128
-2.75104e+128
-2.22471e+128
-3.04939e+128
-1.11264e+128
-6.43749e+127
-4.62016e+127
-3.49878e+127
-2.07311e+127
-1.21694e+126
1.07272e+127
-7.46682e+125
-6.43788e+127
-1.86941e+128
-2.13555e+128
-1.84874e+128
-1.53179e+128
-1.3232e+128
-1.72579e+127
-6.48094e+126
-1.78545e+126
-6.15051e+125
-2.38337e+125
-2.04794e+125
-1.72886e+125
1.2125e+126
5.20754e+126
1.14069e+127
1.59994e+127
1.20313e+127
4.84628e+126
-4.16817e+126
-1.69127e+127
3.38929e+126
1.13859e+126
8.08994e+125
6.92923e+125
5.88261e+125
3.99894e+125
1.08133e+125
-2.00192e+125
-4.29662e+125
-4.3513e+125
-5.23756e+125
-1.91511e+126
-4.98005e+126
-1.02664e+127
-1.91526e+127
6.09325e+125
2.51141e+125
7.59237e+124
1.8508e+124
6.15187e+122
4.90734e+123
2.34511e+124
1.77327e+124
-9.16665e+124
-5.51228e+125
-1.50406e+126
-2.89346e+126
-5.22901e+126
-9.31531e+126
-1.61318e+127
-1.38064e+125
-5.35939e+124
-2.34196e+124
-1.30958e+124
-8.30952e+123
-4.42879e+123
-7.88369e+121
3.62162e+123
-1.05135e+124
-2.19272e+125
-8.49342e+125
-1.95072e+126
-3.8202e+126
-7.13163e+126
-1.24783e+127
1.05906e+124
4.01074e+123
2.18496e+123
1.49798e+123
1.10161e+123
7.05108e+122
2.53073e+121
-3.56828e+123
-3.03732e+124
-2.63572e+125
-7.08485e+125
-1.36082e+126
-2.56094e+126
-4.96191e+126
-8.98318e+126
2.16592e+122
9.18391e+121
3.91171e+120
-1.78619e+121
-1.69614e+121
4.35289e+121
-9.95589e+121
-3.90589e+123
-3.78885e+124
-3.42473e+125
-8.5758e+125
-1.48187e+126
-2.21715e+126
-3.16609e+126
-4.53652e+126
-9.60151e+121
-3.61093e+121
-2.15778e+121
-1.66028e+121
-9.82899e+120
4.72474e+121
-9.99903e+121
-4.48371e+123
-4.74834e+124
-4.52843e+125
-1.09693e+126
-1.84516e+126
-2.69438e+126
-3.63595e+126
-4.62566e+126
-6.37116e+120
-3.09335e+120
-9.12119e+119
-4.09857e+119
3.39237e+120
5.93334e+121
-9.02634e+121
-5.09266e+123
-5.77928e+124
-5.75622e+125
-1.36204e+126
-2.25973e+126
-3.30228e+126
-4.4834e+126
-5.7193e+126
2.15751e+120
8.2608e+119
2.18348e+119
-2.93357e+119
3.14709e+120
6.21804e+121
-8.22433e+121
-5.79373e+123
-6.84599e+124
-6.90723e+125
-1.60908e+126
-2.67781e+126
-3.95412e+126
-5.42914e+126
-7.00226e+126
-2.34634e+119
-1.86083e+119
-2.72115e+119
-6.11751e+119
2.7723e+120
6.49156e+121
-6.95795e+121
-6.70461e+123
-7.89044e+124
-7.41477e+125
-1.71399e+126
-2.94677e+126
-4.4687e+126
-6.27617e+126
-8.2735e+126
-6.59145e+118
-1.36153e+119
-2.67365e+119
-6.46348e+119
2.46037e+120
6.84461e+121
-4.85146e+121
-7.84301e+123
-9.1939e+124
-6.69127e+125
-1.54565e+126
-2.7566e+126
-4.34809e+126
-6.33059e+126
-8.65537e+126
-6.76207e+118
-1.5851e+119
-3.15374e+119
-7.2028e+119
1.84206e+120
6.9354e+121
1.93549e+120
-9.20703e+123
-6.61679e+124
-4.94524e+125
-1.20833e+126
-2.22104e+126
-3.57051e+126
-5.31203e+126
-7.47123e+126
-8.20743e+118
-1.90039e+119
-3.7366e+119
-7.982e+119
1.21336e+120
6.67508e+121
8.20981e+121
-1.09054e+124
-5.7314e+124
-3.14881e+125
-7.87407e+125
-1.47079e+126
-2.38011e+126
-3.57157e+126
-5.10002e+126
-9.50405e+118
-2.21762e+119
-4.33287e+119
-8.72893e+119
7.53541e+119
6.21199e+121
1.73582e+122
-1.28067e+124
-5.60987e+124
-1.72346e+125
-3.87848e+125
-7.35636e+125
-1.22811e+126
-1.88476e+126
-2.74353e+126
-1.08958e+119
-2.56059e+119
-4.96209e+119
-9.45171e+119
4.41732e+119
5.83237e+121
2.47736e+122
-1.53347e+124
-4.65271e+124
-9.3181e+124
-1.73883e+125
-3.09831e+125
-5.15474e+125
-8.03952e+125
-1.20008e+126
-1.27271e+119
-3.01658e+119
-5.79829e+119
-1.03316e+120
1.09601e+119
5.59873e+121
2.91869e+122
-1.04261e+124
-3.05865e+124
-5.0881e+124
-7.91351e+124
-1.21845e+125
-1.86363e+125
-2.81047e+125
-4.15742e+125
-1.50654e+119
-3.61179e+119
-6.9136e+119
-1.1468e+120
-2.65944e+119
5.06169e+121
3.29976e+122
-4.83618e+123
-1.62024e+124
-2.56124e+124
-3.55662e+124
-4.76016e+124
-6.3797e+124
-8.66645e+124
-1.18861e+125
-1.75436e+119
-4.253e+119
-8.12938e+119
-1.26823e+120
-4.81241e+119
4.0439e+121
3.89585e+122
-1.30409e+123
-6.09743e+123
-1.04443e+124
-1.4389e+124
-1.82272e+124
-2.24414e+124
-2.74672e+124
-3.36927e+124
-2.00922e+119
-4.91398e+119
-9.3708e+119
-1.38906e+120
-4.19403e+119
2.94296e+121
5.68857e+122
8.62307e+122
-6.94142e+122
-2.37747e+123
-3.95072e+123
-5.45944e+123
-6.97742e+123
-8.51599e+123
-1.00801e+124
-2.2964e+119
-5.66356e+119
-1.07683e+120
-1.51725e+120
-7.85594e+118
2.18601e+121
4.21826e+122
1.25376e+123
9.79906e+122
5.22535e+122
3.93353e+121
-4.51332e+122
-9.61323e+122
-1.48791e+123
-2.02699e+123
-2.61626e+119
-6.51777e+119
-1.24015e+120
-1.66937e+120
5.28045e+119
2.1668e+121
2.68057e+122
6.82511e+122
7.89957e+122
7.63047e+122
6.9053e+122
6.07381e+122
5.13669e+122
4.05132e+122
2.78708e+122
-2.95319e+119
-7.4241e+119
-1.41682e+120
-1.86023e+120
8.31935e+119
2.44623e+121
1.09821e+122
2.27284e+122
3.01052e+122
3.38723e+122
3.57794e+122
3.70425e+122
3.77894e+122
3.78772e+122
3.71951e+122
-3.2338e+119
-8.4022e+119
-1.67638e+120
-2.43431e+120
-1.34689e+120
5.14937e+120
1.92689e+121
3.94279e+121
5.95568e+121
7.58814e+121
8.88139e+121
9.98138e+121
1.09249e+122
1.1698e+122
1.22827e+122
-2.69957e+119
-7.20268e+119
-1.52128e+120
-2.65033e+120
-3.83698e+120
-4.4863e+120
-3.81172e+120
-1.62145e+120
1.34573e+120
4.43407e+120
7.41431e+120
1.02522e+121
1.29264e+121
1.53853e+121
1.75887e+121
-1.4926e+119
-3.93635e+119
-8.14293e+119
-1.39285e+120
-2.02628e+120
-2.5769e+120
-2.88693e+120
-2.88874e+120
-2.68053e+120
-2.38467e+120
-2.04701e+120
-1.67984e+120
-1.29074e+120
-8.8878e+119
-4.84976e+119
-4.37598e+118
-1.121e+119
-2.1989e+119
-3.52895e+119
-4.84492e+119
-5.98219e+119
-6.81334e+119
-7.27868e+119
-7.45324e+119
-7.4655e+119
-7.38486e+119
-7.22252e+119
-6.97545e+119
-6.64887e+119
-6.25683e+119
-5.56292e+117
-1.3842e+118
-2.55503e+118
-3.89649e+118
-5.1902e+118
-6.33475e+118
-7.27892e+118
-7.99687e+118
-8.51841e+118
-8.91217e+118
-9.21935e+118
-9.43913e+118
-9.55893e+118
-9.57248e+118
-9.484e+118
1.39885e+116
6.23158e+115
-1.701e+116
-5.09328e+116
-9.01972e+116
-1.31213e+117
-1.71413e+117
-2.09288e+117
-2.44878e+117
-2.78646e+117
-3.10421e+117
-3.39525e+117
-3.65189e+117
-3.86781e+117
-4.0395e+117
5.57378e+115
9.64198e+115
1.31199e+116
1.58912e+116
1.78627e+116
1.91489e+116
1.98202e+116
2.00154e+116
1.99757e+116
1.98452e+116
1.96067e+116
1.92177e+116
1.86678e+116
1.79682e+116
1.71426e+116
6.45776e+113
1.3511e+114
1.9835e+114
2.51296e+114
2.9266e+114
3.23454e+114
3.44044e+114
3.55503e+114
3.63043e+114
3.70569e+114
3.76755e+114
3.80164e+114
3.80467e+114
3.77743e+114
3.72221e+114
-9.66354e+112
-9.39672e+112
-7.83952e+112
-6.42119e+112
-5.21406e+112
-4.23341e+112
-3.44803e+112
-2.82055e+112
-2.33781e+112
-1.97407e+112
-1.68605e+112
-1.44702e+112
-1.24461e+112
-1.0716e+112
-9.25296e+111
-1.52024e+112
-1.55711e+112
-1.34516e+112
-1.1288e+112
-9.31593e+111
-7.63251e+111
-6.23665e+111
-5.12895e+111
-4.28882e+111
-3.64138e+111
-3.11192e+111
-2.66211e+111
-2.27532e+111
-1.94204e+111
-1.65722e+111
-1.28599e+111
-1.42337e+111
-1.2906e+111
-1.12084e+111
-9.50413e+110
-7.97686e+110
-6.67008e+110
-5.62153e+110
-4.81582e+110
-4.16952e+110
-3.61589e+110
-3.12788e+110
-2.69578e+110
-2.31506e+110
-1.98302e+110
9.6099e+108
-1.96258e+109
-3.0146e+109
-3.23953e+109
-3.10258e+109
-2.83736e+109
-2.54196e+109
-2.27672e+109
-2.05397e+109
-1.85294e+109
-1.66129e+109
-1.478e+109
-1.30499e+109
-1.14476e+109
-9.98129e+108
2.48728e+109
1.64911e+109
1.0269e+109
6.73306e+108
4.61221e+108
3.27198e+108
2.39456e+108
1.81271e+108
1.41429e+108
1.12568e+108
9.05436e+107
7.31687e+107
5.92301e+107
4.79342e+107
3.8993e+107
5.99621e+108
4.2219e+108
2.66768e+108
1.74405e+108
1.18117e+108
8.28543e+107
6.01987e+107
4.54213e+107
3.53744e+107
2.80897e+107
2.25405e+107
1.81961e+107
1.47447e+107
1.19778e+107
9.78334e+106
8.9611e+107
6.713e+107
4.41874e+107
2.95736e+107
2.02606e+107
1.42989e+107
1.04508e+107
7.92418e+106
6.1616e+106
4.85349e+106
3.84726e+106
3.06048e+106
2.44021e+106
1.94918e+106
1.56294e+106
8.24964e+106
6.37674e+106
4.31411e+106
2.96842e+106
2.07749e+106
1.49689e+106
1.12208e+106
8.71254e+105
6.89374e+105
5.49537e+105
4.39348e+105
3.51703e+105
2.81703e+105
2.25782e+105
1.81271e+105
2.49733e+105
2.49704e+105
1.77008e+105
1.27243e+105
9.24779e+104
6.92694e+104
5.39957e+104
4.32574e+104
3.49614e+104
2.82728e+104
2.28448e+104
1.84427e+104
1.48752e+104
1.1997e+104
9.66831e+103
-1.21355e+105
-5.77499e+104
-2.71962e+104
-1.39376e+104
-7.71999e+103
-4.54662e+103
-2.82997e+103
-1.86057e+103
-1.28367e+103
-9.16778e+102
-6.69302e+102
-4.95645e+102
-3.70759e+102
-2.78863e+102
-2.14639e+102
-3.46684e+104
-1.95217e+104
-1.00339e+104
-5.58437e+103
-3.33036e+103
-2.11417e+103
-1.41997e+103
-9.97102e+102
-7.21034e+102
-5.30626e+102
-3.94888e+102
-2.9629e+102
-2.23771e+102
-1.69969e+102
-1.30389e+102
-4.27082e+103
-2.7594e+103
-1.54802e+103
-9.23332e+102
-5.83236e+102
-3.89886e+102
-2.73291e+102
-1.97563e+102
-1.45375e+102
-1.07975e+102
-8.05989e+101
-6.03801e+101
-4.53686e+101
-3.42058e+101
-2.593e+101
-1.76329e+102
-1.4161e+102
-9.20661e+101
-6.12665e+101
-4.23052e+101
-3.04266e+101
-2.26167e+101
-1.71547e+101
-1.31105e+101
-1.00263e+101
-7.65906e+100
-5.84076e+100
-4.44448e+100
-3.37964e+100
-2.57254e+100
1.3145e+101
7.93585e+100
4.07044e+100
2.13917e+100
1.16002e+100
6.43573e+99
3.61345e+99
2.02479e+99
1.1048e+99
5.63764e+98
2.47828e+98
6.95077e+97
-2.4799e+97
-7.00315e+97
-8.39676e+97
2.82828e+100
1.6998e+100
9.83028e+99
5.99613e+99
3.89319e+99
2.66572e+99
1.90439e+99
1.40213e+99
1.04827e+99
7.87609e+98
5.91892e+98
4.44197e+98
3.32956e+98
2.49604e+98
1.88327e+98
6.30629e+99
2.98459e+99
1.39548e+99
7.37068e+98
4.32376e+98
2.75224e+98
1.86826e+98
1.32874e+98
9.71334e+97
7.19486e+97
5.35871e+97
4.00027e+97
2.99121e+97
2.24264e+97
1.69819e+97
1.00213e+99
5.25512e+98
2.47062e+98
1.30437e+98
7.5391e+97
4.67319e+97
3.05934e+97
2.08291e+97
1.45086e+97
1.02257e+97
7.25597e+96
5.17633e+96
3.71345e+96
2.68326e+96
1.96461e+96
3.2553e+97
2.90117e+97
1.75516e+97
1.11412e+97
7.35975e+96