/*--------------------------------*- C++ -*----------------------------------*\
  =========                 |
  \\      /  F ield         | OpenFOAM: The Open Source CFD Toolbox
   \\    /   O peration     | Website:  https://openfoam.org
    \\  /    A nd           | Version:  7
     \\/     M anipulation  |
\*---------------------------------------------------------------------------*/
FoamFile
{
    version     2.0;
    format      ascii;
    class       volScalarField;
    location    "4.4";
    object      T;
}
// * * * * * * * * * * * * * * * * * * * * * * * * * * * * * * * * * * * * * //

dimensions      [0 0 0 1 0 0 0];

internalField   nonuniform List<scalar> 
32100
(
7.32177e+129
1.37655e+129
-1.90014e+128
8.88141e+126
1.81569e+126
-2.42975e+125
-9.60618e+123
2.19232e+123
-1.173e+122
-2.93907e+121
2.50453e+120
3.26839e+118
-1.4325e+116
-4.3112e+116
-1.12844e+116
1.58116e+129
-2.06551e+128
8.94473e+126
1.92648e+126
-2.49619e+125
-1.00803e+124
2.25397e+123
-1.16733e+122
-2.85482e+121
4.85798e+120
1.07306e+120
5.36358e+118
-3.73066e+117
-4.41725e+116
-1.11551e+116
-2.26307e+128
9.06997e+126
2.08357e+126
-2.59184e+125
-1.05995e+124
2.35959e+123
-1.19377e+122
-3.03625e+121
4.58896e+120
5.77381e+119
2.7912e+119
3.06817e+118
-5.99771e+117
-2.46801e+116
-9.06589e+115
9.14553e+126
2.40798e+126
-2.66106e+125
-1.24821e+124
2.54201e+123
-8.79879e+121
-3.39228e+121
3.74581e+120
2.79601e+119
-1.12167e+118
6.76622e+118
6.35354e+117
-5.55249e+117
-5.35086e+115
-6.12776e+115
3.13998e+126
-1.90049e+125
-8.82354e+123
1.60701e+123
-9.87626e+120
-3.497e+120
1.84312e+120
-4.18544e+119
-7.75332e+118
7.23554e+117
3.00748e+117
-3.30179e+117
-3.60523e+117
7.75319e+115
-2.92226e+115
1.91041e+125
7.90224e+124
6.9677e+123
-1.0213e+123
5.78328e+121
3.38662e+121
-1.99492e+120
-7.54844e+119
-6.91736e+117
-4.3305e+117
-4.99839e+117
-3.56144e+117
-1.68984e+117
1.35793e+116
-5.04041e+114
4.43899e+125
9.35308e+124
4.58082e+123
-9.043e+122
8.13112e+121
2.98105e+121
-1.93887e+120
-6.76286e+119
-1.4528e+118
-1.82502e+117
-2.72542e+117
-1.60251e+117
-4.9824e+116
1.32646e+116
5.75997e+114
4.30701e+125
8.73379e+124
5.0606e+123
-8.15679e+122
6.11608e+121
2.94053e+121
-1.43265e+120
-6.76831e+119
-1.89434e+118
1.66309e+116
-1.11354e+117
-2.92542e+116
-9.17882e+114
9.39758e+115
6.27217e+114
3.93867e+125
8.39388e+124
5.48947e+123
-7.63716e+122
4.48362e+121
2.91828e+121
-1.00106e+120
-6.65899e+119
-2.38276e+118
7.35785e+116
-6.33797e+116
6.66444e+115
8.52662e+115
4.97441e+115
2.97173e+114
3.61492e+125
8.03652e+124
5.84361e+123
-6.99902e+122
2.92392e+121
2.86089e+121
-5.63817e+119
-6.47508e+119
-2.89986e+118
8.184e+116
-5.88403e+116
3.99037e+115
5.81368e+115
1.90064e+115
2.85424e+113
3.31474e+125
7.68227e+124
6.17701e+123
-6.29517e+122
1.41521e+121
2.77847e+121
-1.35874e+119
-6.22494e+119
-3.38092e+118
8.15496e+116
-5.47516e+116
-5.18062e+114
2.68528e+115
4.59213e+114
-6.80386e+113
3.03781e+125
7.36654e+124
6.42519e+123
-5.53597e+122
7.18111e+118
2.67212e+121
2.7312e+119
-5.91524e+119
-3.80617e+118
7.49906e+116
-4.68096e+116
-2.3003e+115
1.35312e+115
6.97439e+113
-5.57512e+113
2.79108e+125
7.00402e+124
6.34653e+123
-4.69315e+122
-1.06662e+121
2.54438e+121
6.50756e+119
-5.5563e+119
-4.15902e+118
6.03876e+116
-3.85262e+116
-2.55763e+115
9.63033e+114
4.21208e+113
-1.93628e+113
2.50249e+125
5.83372e+124
5.41196e+123
-3.34537e+122
-1.66636e+121
2.37375e+121
9.4036e+119
-5.14911e+119
-4.41597e+118
3.91319e+116
-3.2982e+116
-2.91222e+115
6.62781e+114
3.70987e+113
-8.08536e+112
1.76292e+125
4.37307e+124
4.5894e+123
-2.25216e+122
-1.98941e+121
1.95285e+121
1.08131e+120
-4.45846e+119
-4.5583e+118
1.59569e+116
-2.98825e+116
-3.68568e+115
6.70248e+114
5.00737e+113
-4.37829e+112
1.25706e+125
3.56721e+124
4.20457e+123
-1.63524e+122
-2.3637e+121
1.59649e+121
1.22919e+120
-3.80519e+119
-4.77449e+118
-1.05158e+116
-2.65723e+116
-4.56071e+115
7.89827e+114
7.58868e+113
-2.98793e+112
1.06761e+125
3.21231e+124
4.03359e+123
-1.20738e+122
-2.77172e+121
1.4313e+121
1.43676e+120
-3.36489e+119
-5.08438e+118
-4.41236e+116
-2.22749e+116
-5.19937e+115
7.82216e+114
1.01618e+114
-2.33439e+112
9.40538e+124
3.0061e+124
4.02752e+123
-8.12078e+121
-3.14281e+121
1.30859e+121
1.64211e+120
-2.96882e+119
-5.41841e+118
-8.72367e+116
-1.7675e+116
-5.66081e+115
6.83229e+114
1.20823e+114
-1.54928e+112
8.36028e+124
2.82085e+124
4.01936e+123
-3.84014e+121
-3.4367e+121
1.18381e+121
1.84407e+120
-2.55558e+119
-5.74505e+118
-1.39701e+117
-1.31892e+116
-5.94215e+115
5.36306e+114
1.32951e+114
-3.87528e+111
7.46373e+124
2.64064e+124
3.99625e+123
7.41894e+120
-3.66991e+121
1.04855e+121
2.03536e+120
-2.09576e+119
-6.03419e+118
-2.01104e+117
-9.19516e+115
-6.14708e+115
3.83405e+114
1.43068e+114
1.14724e+112
6.63756e+124
2.45373e+124
3.94538e+123
5.46782e+121
-3.8263e+121
9.01687e+120
2.20826e+120
-1.58169e+119
-6.27156e+118
-2.71778e+117
-5.80183e+115
-6.1557e+115
2.16083e+114
1.48509e+114
2.95965e+112
5.84531e+124
2.25475e+124
3.87465e+123
1.02643e+122
-3.88766e+121
7.44424e+120
2.35406e+120
-1.01513e+119
-6.45669e+118
-3.53239e+117
-3.25405e+115
-5.94713e+115
4.40031e+113
1.45635e+114
4.78239e+112
5.09568e+124
2.05288e+124
3.79097e+123
1.50833e+122
-3.84029e+121
5.79085e+120
2.46451e+120
-3.95345e+118
-6.58451e+118
-4.48191e+117
-1.88129e+115
-5.65279e+115
-1.1404e+114
1.39457e+114
6.45731e+112
4.39994e+124
1.85469e+124
3.69223e+123
1.98717e+122
-3.66799e+121
4.06527e+120
2.53386e+120
2.78971e+118
-6.63567e+118
-5.58857e+117
-2.00658e+115
-5.30787e+115
-2.63771e+114
1.33014e+114
8.01658e+112
3.77079e+124
1.66906e+124
3.58415e+123
2.46115e+122
-3.36244e+121
2.30505e+120
2.5563e+120
1.00851e+119
-6.57828e+118
-6.84941e+117
-4.08588e+115
-4.8995e+115
-4.15269e+114
1.26693e+114
9.62535e+112
3.20863e+124
1.49623e+124
3.45983e+123
2.92365e+122
-2.91442e+121
5.65318e+119
2.52412e+120
1.78887e+119
-6.37043e+118
-8.26965e+117
-8.78167e+115
-4.43313e+115
-5.79284e+114
1.20512e+114
1.15691e+113
2.72037e+124
1.33527e+124
3.32154e+123
3.37294e+122
-2.31452e+121
-1.10189e+120
2.43138e+120
2.6125e+119
-5.96016e+118
-9.84552e+117
-1.69223e+116
-3.82654e+115
-7.54406e+114
1.11427e+114
1.38437e+113
2.30641e+124
1.19216e+124
3.18855e+123
3.81752e+122
-1.55201e+121
-2.63924e+120
2.27079e+120
3.46697e+119
-5.27822e+118
-1.16354e+118
-2.95394e+116
-3.02373e+115
-9.14677e+114
9.57253e+113
1.59587e+113
1.95114e+124
1.06866e+124
3.07116e+123
4.26058e+122
-6.13786e+120
-3.98109e+120
2.0381e+120
4.3381e+119
-4.25621e+118
-1.35657e+118
-4.79978e+116
-2.13261e+115
-1.05851e+115
7.48818e+113
1.78519e+113
1.63725e+124
9.5605e+123
2.95393e+123
4.68373e+122
5.06649e+120
-5.04391e+120
1.72705e+120
5.20308e+119
-2.82861e+118
-1.55272e+118
-7.37902e+116
-1.25202e+115
-1.18473e+115
4.86659e+113
1.95236e+113
1.35479e+124
8.41103e+123
2.79817e+123
5.05425e+122
1.80346e+121
-5.72458e+120
1.33137e+120
6.02889e+119
-8.96573e+117
-1.74784e+118
-1.09269e+117
-4.91069e+114
-1.2427e+115
1.63715e+113
2.05064e+113
1.10694e+124
7.22684e+123
2.58247e+123
5.36196e+122
3.26676e+121
-5.90128e+120
8.48674e+119
6.75485e+119
1.6583e+118
-1.92085e+118
-1.58141e+117
-1.14936e+114
-1.22935e+115
-1.86119e+113
2.1157e+113
9.04202e+123
6.17213e+123
2.36904e+123
5.60271e+122
4.88062e+121
-5.43049e+120
2.83057e+119
7.27734e+119
4.93851e+118
-2.04023e+118
-2.25878e+117
-5.451e+114
-1.21609e+115
-5.97366e+113
2.25012e+113
7.40569e+123
5.37158e+123
2.21759e+123
5.79774e+122
6.64603e+121
-4.15472e+120
-3.44673e+119
7.46945e+119
8.9536e+118
-2.04643e+118
-3.181e+117
-2.68912e+115
-1.19691e+115
-1.1951e+114
2.48664e+113
6.03319e+123
4.73025e+123
2.09788e+123
5.96706e+122
8.57955e+121
-1.875e+120
-9.86089e+119
7.17927e+119
1.35887e+119
-1.85657e+118
-4.4002e+117
-8.06784e+115
-1.0697e+115
-2.07321e+114
2.73321e+113
4.87593e+123
4.10039e+123
1.95495e+123
6.11443e+122
1.06874e+122
1.64918e+120
-1.55532e+120
6.2721e+119
1.8581e+119
-1.35696e+118
-5.91356e+117
-1.97002e+116
-7.60337e+114
-3.29822e+114
2.74425e+113
3.90783e+123
3.50475e+123
1.8018e+123
6.2522e+122
1.29835e+122
6.61359e+120
-1.9589e+120
4.70418e+119
2.34991e+119
-4.31807e+117
-7.56996e+117
-4.30824e+116
-2.59524e+114
-4.82993e+114
1.96626e+113
3.09379e+123
2.99023e+123
1.6653e+123
6.37439e+122
1.54335e+122
1.30867e+121
-2.10205e+120
2.49271e+119
2.76632e+119
1.00128e+118
-9.0073e+117
-8.19078e+116
1.56176e+114
-6.21371e+114
-4.35525e+112
2.41159e+123
2.54699e+123
1.54128e+123
6.44387e+122
1.78423e+122
2.08653e+121
-1.86657e+120
-2.69167e+118
3.00796e+119
2.93815e+118
-9.68493e+117
-1.38672e+117
-2.66856e+114
-6.73429e+114
-5.29424e+113
1.84273e+123
2.16015e+123
1.42541e+123
6.44759e+122
1.97957e+122
2.95796e+121
-1.13335e+120
-3.32367e+119
2.97006e+119
5.20916e+118
-9.01743e+117
-2.12848e+117
-3.02629e+115
-5.48058e+114
-1.33323e+114
1.37247e+123
1.80409e+123
1.30348e+123
6.33148e+122
2.11681e+122
3.87433e+121
1.71051e+119
-6.19663e+119
2.58875e+119
7.52642e+118
-6.59511e+117
-2.98988e+117
-1.09712e+116
-1.14442e+114
-2.39524e+114
9.94127e+122
1.46402e+123
1.16586e+123
6.04875e+122
2.21717e+122
4.78808e+121
2.03575e+120
-8.35036e+119
1.88084e+119
9.61942e+118
-2.37986e+117
-3.75876e+117
-2.36964e+116
5.00111e+114
-3.11626e+114
7.07741e+122
1.15369e+123
1.01274e+123
5.65955e+122
2.2872e+122
5.66056e+121
4.3703e+120
-9.13769e+119
9.3383e+118
1.11784e+119
3.1297e+117
-4.05423e+117
-3.89629e+116
9.99048e+114
-3.00672e+114
5.01035e+122
8.9565e+122
8.61462e+122
5.26167e+122
2.32855e+122
6.46657e+121
7.03947e+120
-8.45082e+119
-1.69865e+118
1.19042e+119
9.1921e+117
-3.98837e+117
-5.5873e+116
1.16357e+115
-2.20249e+114
3.55515e+122
6.95717e+122
7.32216e+122
4.89301e+122
2.34905e+122
7.20801e+121
9.92617e+120
-6.31814e+119
-1.22453e+119
1.12014e+119
1.53417e+118
-3.62563e+117
-6.54841e+116
9.3501e+114
3.43157e+113
2.53519e+122
5.4471e+122
6.26016e+122
4.54633e+122
2.35828e+122
7.90799e+121
1.29971e+121
-3.01106e+119
-2.12433e+119
9.63891e+118
1.88179e+118
-2.82099e+117
-6.18063e+116
-8.5664e+113
1.27372e+114
1.80541e+122
4.28782e+122
5.39756e+122
4.23827e+122
2.36089e+122
8.59374e+121
1.62931e+121
1.27488e+119
-2.82325e+119
8.06071e+118
2.05159e+118
-2.06164e+117
-5.46919e+116
-5.29375e+114
6.68658e+113
1.27864e+122
3.37195e+122
4.66945e+122
3.96346e+122
2.3535e+122
9.2336e+121
1.97942e+121
6.67565e+119
-3.43546e+119
6.62976e+118
2.27588e+118
-1.55823e+117
-5.1921e+116
-7.33952e+114
6.81017e+113
8.89575e+121
2.62346e+122
4.00265e+122
3.68453e+122
2.32306e+122
9.75043e+121
2.3264e+121
1.3315e+120
-3.93072e+119
5.15804e+118
2.49836e+118
-1.17974e+117
-5.29722e+116
-9.83704e+114
7.66067e+113
6.07995e+121
2.01315e+122
3.39572e+122
3.40355e+122
2.27288e+122
1.01656e+122
2.66411e+121
2.11863e+120
-4.22828e+119
3.45428e+118
2.71306e+118
-8.30319e+116
-5.53269e+116
-1.32861e+115
7.9657e+113
4.06504e+121
1.52681e+122
2.87424e+122
3.14119e+122
2.21774e+122
1.05724e+122
3.02951e+121
3.04659e+120
-4.32179e+119
1.45961e+118
2.89263e+118
-4.73541e+116
-5.65727e+116
-1.72178e+115
5.06181e+113
2.64291e+121
1.14049e+122
2.4184e+122
2.86679e+122
2.16029e+122
1.09822e+122
3.44091e+121
4.17875e+120
-4.15981e+119
-8.43036e+117
2.98924e+118
-1.06563e+116
-5.46531e+116
-2.04293e+115
-3.58852e+113
1.68374e+121
8.31605e+121
1.98384e+122
2.57443e+122
2.09628e+122
1.13984e+122
3.88276e+121
5.55898e+120
-3.6359e+119
-3.37167e+118
2.98451e+118
2.25075e+116
-4.94704e+116
-2.21397e+115
-1.72162e+114
1.04714e+121
5.9187e+121
1.58471e+122
2.28945e+122
2.03863e+122
1.18369e+122
4.3592e+121
7.20692e+120
-2.62709e+119
-5.98885e+118
2.88423e+118
4.67608e+116
-4.18114e+116
-2.25194e+115
-3.84901e+114
6.20133e+120
4.11978e+121
1.24986e+122
2.02573e+122
1.97978e+122
1.22517e+122
4.86815e+121
9.14096e+120
-1.01088e+119
-8.50825e+118
2.67752e+118
5.67266e+116
-3.21285e+116
-2.19011e+115
-7.19898e+114
3.4066e+120
2.76123e+121
9.63613e+121
1.76927e+122
1.89593e+122
1.26036e+122
5.41188e+121
1.13814e+121
1.33786e+119
-1.05793e+119
2.34426e+118
4.6984e+116
-2.08936e+116
-1.57009e+115
-8.56238e+114
1.66766e+120
1.74344e+121
7.16582e+121
1.50552e+122
1.78579e+122
1.28755e+122
6.00373e+121
1.40403e+121
4.5248e+119
-1.14667e+119
1.83577e+118
1.891e+116
-7.68297e+115
-5.69856e+114
-8.10885e+114
6.92979e+119
1.01815e+121
5.08708e+121
1.24303e+122
1.64813e+122
1.30074e+122
6.60191e+121
1.71253e+121
8.60208e+119
-1.10002e+119
1.25388e+118
-1.00237e+116
7.36821e+114
9.4307e+112
-7.62603e+114
2.2621e+119
5.33503e+120
3.38888e+121
9.87345e+121
1.47977e+122
1.29455e+122
7.18698e+121
2.04212e+121
1.3693e+120
-1.05009e+119
7.74401e+117
-1.66272e+116
1.1418e+115
1.22842e+115
-7.13847e+114
4.84263e+118
2.38698e+120
2.06299e+121
7.45498e+121
1.2879e+122
1.26834e+122
7.76525e+121
2.34796e+121
2.02856e+120
-1.41115e+119
5.14795e+117
-2.81392e+116
-1.59361e+115
-3.4265e+115
-3.79572e+115
1.16694e+118
8.05625e+119
1.0844e+121
5.2504e+121
1.08245e+122
1.22232e+122
8.32344e+121
2.57308e+121
2.86393e+120
-1.96459e+119
1.95906e+118
9.8911e+116
8.18078e+116
4.34738e+116
9.59045e+115
2.80391e+118
1.67251e+119
4.31377e+120
3.30685e+121
8.6992e+121
1.15553e+122
8.84607e+121
2.72447e+121
3.71204e+120
-7.78358e+117
2.26955e+118
4.10769e+117
9.24384e+116
1.2e+117
5.90605e+116
3.95567e+118
8.43069e+118
7.86875e+119
1.67554e+121
6.52189e+121
1.06395e+122
9.3152e+121
2.96082e+121
4.97416e+120
6.78464e+119
-2.37019e+118
-9.81807e+117
-1.70695e+118
-1.24967e+118
-4.26362e+117
4.40466e+118
1.23829e+119
-2.6428e+119
4.5204e+120
4.31674e+121
9.43323e+121
9.66992e+121
3.25312e+121
6.16751e+120
1.94792e+120
7.93276e+119
7.0325e+119
9.79057e+119
1.24307e+120
7.33634e+119
8.92289e+118
1.87049e+119
-2.32526e+119
-1.91738e+120
2.20658e+121
7.94643e+121
9.81713e+121
3.45256e+121
6.14491e+120
2.02636e+120
2.64986e+120
2.42643e+120
3.09439e+120
2.48815e+120
1.37325e+120
5.21212e+119
1.6306e+119
-7.03964e+119
-2.35273e+120
6.58493e+120
6.25919e+121
9.56692e+121
3.57406e+121
5.77656e+120
2.26032e+119
5.7698e+119
1.19601e+120
1.14813e+120
9.86984e+119
1.31079e+120
-1.24543e+121
-5.7642e+120
-2.81848e+120
-1.94968e+120
6.24581e+120
4.4344e+121
8.73054e+121
3.62348e+121
6.37696e+120
-8.45373e+117
2.56747e+118
1.14552e+119
1.84936e+119
3.22565e+119
1.12241e+120
4.94078e+121
2.38089e+121
5.757e+120
2.00525e+119
1.79968e+121
5.15861e+121
7.50991e+121
3.5293e+121
8.57612e+120
3.51393e+120
1.41258e+120
6.89001e+119
4.47125e+119
3.35244e+119
9.11199e+119
1.42382e+123
4.47121e+122
2.18413e+122
1.40655e+122
9.26398e+121
8.75511e+121
9.1733e+121
3.19668e+121
1.2329e+121
5.65279e+120
2.50322e+120
1.1852e+120
6.48897e+119
3.71298e+119
7.75415e+119
-1.95874e+123
-1.6962e+122
8.00323e+122
6.8705e+122
5.12742e+122
3.44115e+122
1.94306e+122
9.85022e+121
3.83437e+121
1.4438e+121
5.58612e+120
2.33514e+120
1.08091e+120
5.19357e+119
6.472e+119
-2.70482e+125
-5.3463e+124
-1.51963e+124
-5.02491e+123
-1.61453e+123
-4.05909e+122
4.42583e+121
1.01907e+122
5.85183e+121
2.48058e+121
9.83676e+120
3.99037e+120
1.71565e+120
7.94838e+119
1.07668e+120
3.09811e+126
2.26306e+125
-5.27149e+124
-3.26168e+124
-1.51622e+124
-5.01047e+123
-8.4077e+122
-3.44087e+121
3.58541e+121
1.86834e+121
5.96114e+120
8.52898e+119
-5.61874e+119
-5.76208e+119
-7.42787e+119
-4.89991e+126
2.29326e+126
6.52755e+125
8.55386e+124
-5.96205e+123
-6.39076e+123
-1.30242e+123
-9.11485e+121
2.58094e+121
2.57863e+121
1.80851e+121
1.17548e+121
6.67738e+120
2.87796e+120
3.05494e+119
-2.4537e+128
-1.27602e+127
2.58249e+126
2.01875e+125
1.89653e+124
6.82721e+121
-1.08964e+123
-1.00465e+122
2.32642e+121
-2.52708e+121
-4.15716e+121
-3.78237e+121
-2.46073e+121
-1.15805e+121
-4.94457e+120
-5.26776e+128
-2.59564e+128
-1.34522e+127
3.6754e+126
-4.77813e+125
-8.67854e+123
-9.10221e+123
-1.26164e+124
-1.10556e+124
-9.20243e+123
-7.27608e+123
-5.25385e+123
-3.2712e+123
-1.62068e+123
-6.10368e+122
2.73326e+130
-6.73583e+128
-2.58358e+128
9.45532e+125
2.88758e+126
-6.38886e+125
-1.17063e+125
-8.87501e+124
-6.81427e+124
-4.76283e+124
-3.23505e+124
-2.15212e+124
-1.35404e+124
-7.63065e+123
-2.92821e+123
-2.72046e+131
2.49597e+130
-7.32867e+128
-2.35703e+128
7.21292e+125
2.67641e+126
-5.30619e+125
3.30413e+124
7.87345e+124
9.16352e+124
8.97881e+124
7.21422e+124
4.49824e+124
1.86627e+124
5.52381e+123
7.36743e+131
-2.39484e+131
2.31371e+130
-7.33674e+128
-2.28467e+128
8.37918e+125
1.77087e+126
-1.90105e+126
-1.67064e+126
-1.69874e+126
-1.53799e+126
-1.20977e+126
-7.911e+125
-4.012e+125
-1.51594e+125
1.0315e+133
5.62087e+131
-2.16343e+131
2.19098e+130
-7.61758e+128
-2.46841e+128
-1.36764e+127
-6.37063e+126
-4.82476e+126
-8.76476e+125
1.14106e+126
1.73068e+126
1.39744e+126
6.67113e+125
2.44661e+125
9.23397e+131
9.84825e+132
4.52304e+131
-2.01531e+131
2.13465e+130
-2.93864e+128
2.18488e+128
4.42741e+128
4.24671e+128
3.79269e+128
3.22448e+128
2.56465e+128
1.83531e+128
1.13677e+128
5.58954e+127
-2.43721e+135
-2.37185e+132
2.70308e+133
1.58254e+132
-5.87331e+131
7.85428e+130
1.16774e+130
9.53613e+129
7.75926e+129
5.62082e+129
3.81797e+129
2.60756e+129
1.76412e+129
1.1911e+129
9.12183e+128
3.65869e+136
-2.27247e+135
-1.11701e+133
2.60386e+133
1.93975e+132
-5.81758e+131
8.54318e+130
1.53308e+130
9.57595e+129
7.48999e+129
5.27336e+129
3.1809e+129
1.87817e+129
1.3738e+129
8.86792e+128
-1.54314e+137
3.2685e+136
-2.1603e+135
-1.10486e+133
2.6715e+133
2.17243e+132
-6.58789e+131
-9.26627e+129
-4.6157e+130
-3.61572e+130
-2.42121e+130
-1.44113e+130
-7.1987e+129
-3.11384e+129
-1.67718e+129
-8.69374e+137
-1.24521e+137
3.05421e+136
-1.77736e+135
-1.27421e+134
2.6829e+133
4.41458e+132
-1.61699e+132
-8.49439e+131
-4.49633e+131
-2.81366e+131
-1.53729e+131
-7.26338e+130
-2.82092e+130
-1.34349e+130
3.04254e+138
-9.0375e+137
-1.08208e+137
2.73803e+136
-1.84423e+135
-1.32376e+133
1.40221e+133
-7.58609e+131
-1.38406e+132
-6.56061e+131
-4.55923e+131
-3.11021e+131
-1.97336e+131
-1.04473e+131
-5.56398e+130
-9.29926e+137
-1.19278e+137
3.05188e+136
-2.18485e+135
-3.94159e+133
1.69106e+133
-1.32133e+132
-2.54301e+132
-1.14096e+132
-6.80797e+131
-4.0617e+131
-2.91618e+131
-2.42225e+131
-1.68836e+131
-1.05614e+131
-1.61432e+137
3.57905e+136
-1.46298e+135
-1.08367e+134
-3.91501e+131
-3.10909e+132
-3.5286e+132
-2.3241e+132
-1.45613e+132
-8.59461e+131
-4.74975e+131
-3.10688e+131
-2.55386e+131
-1.88161e+131
-1.20433e+131
2.5545e+136
1.43835e+135
5.0135e+133
-1.48669e+133
-1.38289e+133
-8.97188e+132
-5.29398e+132
-3.10855e+132
-1.83438e+132
-1.07288e+132
-6.46209e+131
-4.80361e+131
-2.74697e+131
-1.40569e+131
-6.15786e+130
-9.65913e+134
-1.92024e+134
-6.66839e+133
-2.78102e+133
-1.24012e+133
-6.05206e+132
-3.13726e+132
-1.68735e+132
-9.17951e+131
-5.50552e+131
-3.9459e+131
-4.13178e+131
3.93235e+130
3.09651e+130
1.35825e+130
-1.83441e+133
-4.44336e+132
7.63411e+130
4.07743e+131
4.3741e+131
4.11186e+131
3.52829e+131
3.05254e+131
3.89767e+131
5.61653e+131
4.55248e+130
-5.11687e+130
-1.01828e+130
-1.44487e+129
-7.0066e+128
3.00395e+132
8.30166e+131
6.64756e+131
5.24482e+131
3.80151e+131
2.73527e+131
2.05576e+131
1.63427e+131
2.74295e+131
5.49724e+131
3.37304e+131
2.45571e+131
5.33621e+130
2.42185e+130
1.16331e+130
7.64534e+131
3.06874e+131
1.00721e+131
3.25981e+130
5.91566e+129
-3.758e+129
1.42696e+130
3.03588e+130
1.41585e+130
3.4032e+131
3.05904e+131
2.15214e+131
1.32224e+131
8.14124e+130
4.82527e+130
-1.45334e+131
-5.51543e+130
-2.39115e+130
-1.32975e+130
-8.70796e+129
-5.31643e+129
-2.27905e+129
-7.04275e+127
1.48539e+129
9.15252e+129
4.59997e+130
5.36077e+130
4.01985e+130
2.79629e+130
1.98662e+130
1.01994e+130
3.76357e+129
1.98505e+129
1.33326e+129
1.019e+129
7.31267e+128
2.78811e+128
-8.4996e+127
-2.13302e+128
-9.20048e+128
2.41698e+129
4.4163e+129
4.22789e+129
3.5785e+129
3.05016e+129
1.2495e+128
6.35537e+127
-3.36343e+126
-1.81045e+127
-2.36515e+127
-2.28229e+127
-3.43237e+126
1.15695e+127
1.32717e+127
-1.54875e+127
-3.45563e+128
-4.13254e+128
-3.30167e+128
-2.5531e+128
-2.04629e+128
-8.50385e+127
-2.91061e+127
-1.77347e+127
-1.40101e+127
-1.19521e+127
-9.45505e+126
-5.57782e+126
-1.66543e+126
3.80421e+126
1.19886e+127
-8.35762e+124
-1.57989e+127
-1.91719e+127
-1.73507e+127
-1.4215e+127
-8.83426e+126
-3.95364e+126
-1.14235e+126
-1.64155e+125
1.90233e+125
1.98357e+125
-2.52228e+125
-6.72175e+125
-7.04485e+125
3.69882e+125
5.62683e+126
7.36601e+126
6.43254e+126
5.1142e+126
3.92098e+126
2.55099e+126
9.99051e+125
4.31056e+125
2.36512e+125
1.49906e+125
8.88223e+124
3.09301e+124
-5.10717e+124
-2.25192e+125
-5.4496e+125
-8.59923e+125
-7.49742e+125
-5.59163e+125
-4.16446e+125
-3.14706e+125
-2.23118e+125
-8.22601e+124
-4.53535e+124
-3.16343e+124
-2.38678e+124
-1.50749e+124
-3.70918e+123
4.57538e+123
2.85839e+123
-2.52201e+124
-8.54692e+124
-1.00891e+125
-8.67109e+124
-6.8593e+124
-5.30581e+124
-7.24668e+123
-2.86231e+123
-4.48932e+122
1.43901e+122
2.58793e+122
4.37381e+121
-3.59728e+122
-4.18393e+121
1.90188e+123
5.85391e+123
1.02604e+124
9.77704e+123
7.52548e+123
5.27524e+123
3.13706e+123
2.37474e+123
8.40819e+122
5.00719e+122
3.85247e+122
3.10305e+122
2.04036e+122
4.17879e+121
-1.64212e+122
-3.7667e+122
-3.9617e+122
-1.40223e+122
2.24605e+121
-6.40298e+121
-3.81685e+122
-9.99241e+122
1.92779e+122
8.35959e+121
1.82146e+121
-2.94254e+120
-8.045e+120
-2.35769e+120
1.10309e+121
1.37956e+121
-1.86021e+121
-1.04224e+122
-1.99007e+122
-2.29619e+122
-2.90145e+122
-4.90356e+122
-9.40371e+122
-6.46465e+121
-2.51838e+121
-1.03881e+121
-5.45889e+120
-3.27248e+120
-1.69083e+120
1.19182e+119
3.42393e+120
9.58034e+120
1.6947e+121
1.72313e+121
-4.82859e+120
-6.82474e+121
-2.37297e+122
-6.02583e+122
6.34528e+120
2.3914e+120
1.30505e+120
9.06085e+119
6.78318e+119
4.28716e+119
1.26938e+119
-9.08594e+118
2.32647e+118
8.92266e+119
2.19566e+120
1.26477e+120
-1.44529e+121
-9.9981e+121
-3.32706e+122
1.48398e+119
6.79856e+118
4.01102e+117
-1.44549e+118
-1.74411e+118
-9.402e+117
4.85869e+117
1.75172e+117
-4.95465e+118
-1.5655e+119
-2.57407e+119
-2.74918e+119
-1.04783e+120
-7.26457e+120
-2.90735e+121
-7.43952e+118
-2.95597e+118
-1.50655e+118
-9.7098e+117
-7.05949e+117
-4.79108e+117
-2.15542e+117
-8.67449e+116
-5.66429e+117
-1.20802e+118
8.95868e+117
4.95055e+118
1.0278e+119
-4.58227e+118
-1.1211e+120
1.54205e+117
5.10769e+116
4.91626e+116
4.5569e+116
3.72716e+116
1.72336e+116
-5.01367e+116
-4.24644e+117
-1.63314e+118
-2.85919e+118
7.96383e+116
4.67629e+118
1.12325e+119
2.04894e+119
3.12251e+119
5.25351e+116
2.19578e+116
9.34094e+115
4.96538e+115
3.01361e+115
-4.09152e+114
-4.34347e+116
-4.46966e+117
-1.84459e+118
-3.59616e+118
-3.68355e+117
4.83723e+118
1.17821e+119
2.05616e+119
3.10371e+119
-5.38616e+115
-2.06705e+115
-1.32005e+115
-1.02271e+115
-8.75211e+114
-2.8821e+115
-4.68689e+116
-5.05229e+117
-2.04996e+118
-4.33661e+118
-1.08375e+118
4.52139e+118
1.21577e+119
2.14735e+119
3.16601e+119
-5.0249e+114
-2.32773e+114
-7.13499e+113
-8.94138e+112
-2.72046e+113
-2.25986e+115
-5.00765e+116
-5.8347e+117
-2.46499e+118
-5.12589e+118
-2.61749e+118
2.28054e+118
9.5843e+118
1.90974e+119
3.03192e+119
1.22106e+114
5.40535e+113
3.47047e+113
3.31493e+113
4.05268e+111
-2.10917e+115
-5.24462e+116
-6.78251e+117
-2.51558e+118
-5.81758e+118
-4.44359e+118
-9.01405e+117
4.88571e+118
1.32621e+119
2.48319e+119
2.68674e+112
5.03358e+112
7.71048e+112
1.54237e+113
-2.42479e+112
-1.86495e+115
-5.18886e+116
-8.00362e+117
-2.5065e+118
-5.73512e+118
-5.8213e+118
-4.07963e+118
-6.74018e+117
4.7076e+118
1.28588e+119
6.6743e+111
4.12824e+112
8.84673e+112
1.80894e+113
8.52359e+112
-1.59419e+115
-4.79264e+116
-9.27709e+117
-2.60523e+118
-4.77449e+118
-5.77615e+118
-5.73687e+118
-4.65507e+118
-2.43419e+118
1.32633e+118
2.93397e+112
5.7874e+112
1.06586e+113
2.05579e+113
1.66363e+113
-1.40124e+115
-4.34157e+116
-1.11519e+118
-2.44925e+118
-3.63257e+118
-4.61552e+118
-5.29732e+118
-5.54161e+118
-5.27124e+118
-4.33023e+118
3.17484e+112
6.69048e+112
1.24411e+113
2.34112e+113
2.56289e+113
-1.26561e+115
-4.50174e+116
-9.32045e+117
-1.96959e+118
-2.7297e+118
-3.42562e+118
-4.07184e+118
-4.63989e+118
-5.09965e+118
-5.37221e+118
3.75342e+112
7.99508e+112
1.49015e+113
2.72739e+113
3.67492e+113
-1.03325e+115
-4.78194e+116
-6.38966e+117
-1.32046e+118
-1.81624e+118
-2.27681e+118
-2.7216e+118
-3.17129e+118
-3.63567e+118
-4.08284e+118
4.37411e+112
9.4111e+112
1.76041e+113
3.14845e+113
4.64968e+113
-6.73074e+114
-5.35004e+116
-4.07866e+117
-7.27378e+117
-9.89768e+117
-1.23905e+118
-1.48691e+118
-1.75003e+118
-2.03604e+118
-2.33426e+118
5.00864e+112
1.08685e+113
2.03821e+113
3.57565e+113
5.27681e+113
-3.19537e+114
-3.90053e+116
-1.97969e+117
-3.23097e+117
-4.32529e+117
-5.37078e+117
-6.46492e+117
-7.67773e+117
-9.01575e+117
-1.04415e+118
5.72175e+112
1.25165e+113
2.35298e+113
4.05405e+113
5.64223e+113
-1.37166e+114
-1.17233e+116
-7.11231e+116
-1.15325e+117
-1.51843e+117
-1.8643e+117
-2.23718e+117
-2.66506e+117
-3.14438e+117
-3.66057e+117
6.51696e+112
1.4397e+113
2.7235e+113
4.63769e+113
5.90841e+113
-1.17745e+114
-5.07489e+115
-1.83897e+116
-3.02252e+116
-3.9948e+116
-4.89283e+116
-5.89525e+116
-7.03997e+116
-8.30191e+116
-9.65658e+116
7.35402e+112
1.63738e+113
3.11462e+113
5.28075e+113
6.64865e+113
-1.26042e+114
-1.18261e+115
-3.13607e+115
-5.07161e+115
-6.83333e+115
-8.5379e+115
-1.03926e+116
-1.24513e+116
-1.4687e+116
-1.70755e+116
8.10784e+112
1.8538e+113
3.64076e+113
6.39136e+113
9.5812e+113
1.05525e+114
5.62431e+113
-7.74591e+113
-2.58537e+114
-4.48216e+114
-6.41153e+114
-8.45423e+114
-1.06524e+115
-1.30072e+115
-1.55187e+115
7.20723e+112
1.64624e+113
3.20217e+113
5.54504e+113
8.63199e+113
1.19863e+114
1.44005e+114
1.49968e+114
1.44386e+114
1.35228e+114
1.24798e+114
1.14013e+114
1.02826e+114
9.09198e+113
7.80962e+113
4.67988e+112
1.02566e+113
1.86225e+113
2.93969e+113
4.10043e+113
5.16723e+113
5.92106e+113
6.25001e+113
6.2972e+113
6.26226e+113
6.21383e+113
6.15556e+113
6.08186e+113
5.98712e+113
5.87372e+113
1.93386e+112
4.02415e+112
6.71331e+112
9.60963e+112
1.21539e+113
1.4139e+113
1.5429e+113
1.60075e+113
1.60988e+113
1.59872e+113
1.58116e+113
1.55843e+113
1.52837e+113
1.49025e+113
1.44528e+113
4.60819e+111
9.52403e+111
1.46444e+112
1.92878e+112
2.28146e+112
2.5237e+112
2.66842e+112
2.73111e+112
2.73834e+112
2.71933e+112
2.68845e+112
2.64586e+112
2.58857e+112
2.51567e+112
2.42899e+112
-2.33636e+109
7.25188e+110
1.42628e+111
1.95728e+111
2.3062e+111
2.5229e+111
2.64156e+111
2.69164e+111
2.70462e+111
2.69937e+111
2.67938e+111
2.6428e+111
2.58843e+111
2.51714e+111
2.43039e+111
-4.3048e+110
-3.45312e+110
-2.29885e+110
-1.40615e+110
-7.41283e+109
-2.58654e+109
8.39444e+108
3.24645e+109
4.95806e+109
6.18976e+109
7.05773e+109
7.63876e+109
7.99199e+109
8.16786e+109
8.172e+109
-1.74699e+110
-1.69583e+110
-1.41445e+110
-1.15644e+110
-9.36839e+109
-7.59065e+109
-6.16966e+109
-5.03073e+109
-4.14799e+109
-3.4842e+109
-2.968e+109
-2.54764e+109
-2.19596e+109
-1.89722e+109
-1.64758e+109
-3.74954e+109
-3.92588e+109
-3.44493e+109
-2.92302e+109
-2.43591e+109
-2.01746e+109
-1.6687e+109
-1.38182e+109
-1.15709e+109
-9.85313e+108
-8.46927e+108
-7.30249e+108
-6.30214e+108
-5.43963e+108
-4.70179e+108
-4.08221e+108
-4.7283e+108
-4.44053e+108
-3.94963e+108
-3.40488e+108
-2.88727e+108
-2.42695e+108
-2.04568e+108
-1.74897e+108
-1.51442e+108
-1.31662e+108
-1.14357e+108
-9.90875e+107
-8.56318e+107
-7.3851e+107
-5.26319e+106
-1.37795e+107
-1.75188e+107
-1.8323e+107
-1.75077e+107
-1.59921e+107
-1.42656e+107
-1.26786e+107
-1.13608e+107
-1.02146e+107
-9.14552e+106
-8.13293e+106
-7.18234e+106
-6.3039e+106
-5.50199e+106
5.08585e+106
4.12581e+106
3.03644e+106
2.22411e+106
1.63504e+106
1.21248e+106
9.07307e+105
6.88824e+105
5.32309e+105
4.16223e+105
3.26735e+105
2.56271e+105
2.00438e+105
1.56149e+105
1.21917e+105
1.20796e+106
8.80734e+105
6.18756e+105
4.55673e+105
3.45969e+105
2.6844e+105
2.12832e+105
1.73467e+105
1.44652e+105
1.22037e+105
1.03334e+105
8.74787e+104
7.39237e+104
6.23222e+104
5.25388e+104
2.45128e+105
1.70026e+105
1.05996e+105
6.94359e+104
4.75503e+104
3.39076e+104
2.51267e+104
1.93751e+104
1.54322e+104
1.25281e+104
1.0269e+104
8.45934e+103
6.98735e+103
5.78037e+103
4.7987e+103
2.78763e+104
2.33517e+104
1.58495e+104
1.07391e+104
7.38589e+103
5.21708e+103
3.81328e+103
2.89091e+103
2.24614e+103
1.76673e+103
1.3981e+103
1.11058e+103
8.84614e+102
7.06429e+102
5.66175e+102
-9.47058e+102
2.24855e+102
5.51297e+102
5.5292e+102
4.66112e+102
3.76532e+102
3.05597e+102
2.50978e+102
2.06223e+102
1.68582e+102
1.37148e+102
1.11174e+102
8.98744e+101
7.2551e+101
5.8454e+101
-7.37925e+102
-4.43814e+102
-2.36571e+102
-1.31851e+102
-7.6592e+101
-4.63813e+101
-2.92984e+101
-1.91661e+101
-1.28103e+101
-8.64495e+100
-5.8466e+100
-3.9462e+100
-2.65081e+100
-1.76658e+100
-1.18268e+100
-9.8682e+101
-6.65784e+101
-3.98287e+101
-2.50212e+101
-1.64293e+101
-1.13095e+101
-8.1593e+100
-6.09746e+100
-4.63976e+100
-3.55814e+100
-2.73957e+100
-2.11484e+100
-1.63592e+100
-1.26825e+100
-9.8699e+99
-6.15288e+100
-4.38354e+100
-2.65657e+100
-1.70066e+100
-1.14229e+100
-8.069e+99
-5.96374e+99
-4.54062e+99
-3.50555e+99
-2.72155e+99
-2.11867e+99
-1.65222e+99
-1.29009e+99
-1.00903e+99
-7.9077e+98
2.23872e+99
4.8229e+98
-1.34437e+97
-1.38175e+98
-1.52951e+98
-1.40571e+98
-1.21236e+98
-1.00048e+98
-8.00041e+97
-6.26735e+97
-4.84627e+97
-3.71781e+97
-2.83734e+97
-2.16309e+97
-1.63364e+97
1.42353e+99
8.06267e+98
4.14903e+98
2.28946e+98
1.3491e+98
8.42128e+97
5.53008e+97
3.78556e+97
2.66465e+97
1.90648e+97
1.37793e+97
1.00316e+97
7.34475e+96
5.40488e+96
4.03205e+96
2.39564e+98
1.44257e+98
7.97454e+97
4.71001e+97
2.96978e+97
1.98191e+97
1.38536e+97
1.0011e+97
7.36796e+96
5.46567e+96
4.06725e+96
3.03012e+96
2.25875e+96
1.68588e+96
1.26631e+96
3.32226e+97
1.77518e+97
9.17516e+96
5.26157e+96
3.28887e+96
2.1965e+96
1.54395e+96
1.1248e+96
8.34941e+95
6.24251e+95
4.67616e+95
3.50279e+95
2.6234e+95
1.96692e+95
1.48455e+95
3.98735e+96
2.10912e+96
1.01055e+96
5.4994e+95
3.2875e+95
2.11022e+95
1.43094e+95
1.00794e+95
7.25028e+94
5.26692e+94
3.84435e+94
2.81442e+94
2.06667e+94
1.5247e+94
1.1361e+94
2.22017e+94
7.45432e+94
5.17441e+94
3.55993e+94
2.45558e+94
1.72452e+94
1.23274e+94
8.90985e+93
6.45338e+93
4.6652e+93
3.36537e+93
2.42589e+93
1.75118e+93
1.27085e+93
9.30323e+92
-8.86364e+94
-3.82966e+94
-1.53262e+94
-6.76594e+93
-3.23922e+93
-1.64757e+93
-8.80259e+92
-4.89244e+92
-2.79516e+92
-1.62256e+92
-9.50597e+91
-5.6079e+91
-3.32165e+91
-1.95118e+91
-1.16735e+91
-1.20461e+94
-6.68733e+93