/*--------------------------------*- C++ -*----------------------------------*\
  =========                 |
  \\      /  F ield         | OpenFOAM: The Open Source CFD Toolbox
   \\    /   O peration     | Website:  https://openfoam.org
    \\  /    A nd           | Version:  7
     \\/     M anipulation  |
\*---------------------------------------------------------------------------*/
FoamFile
{
    version     2.0;
    format      ascii;
    class       volScalarField;
    location    "2.6";
    object      T;
}
// * * * * * * * * * * * * * * * * * * * * * * * * * * * * * * * * * * * * * //

dimensions      [0 0 0 1 0 0 0];

internalField   nonuniform List<scalar> 
32100
(
1.9438e+70
-2.83946e+69
6.11771e+67
3.04858e+67
-3.45279e+66
-2.50636e+65
5.98262e+64
-3.40977e+63
-5.1547e+62
6.66753e+61
3.01756e+60
-2.39724e+59
1.47063e+57
1.12576e+57
4.27559e+56
-3.08494e+69
5.57383e+67
3.27871e+67
-3.54809e+66
-2.66483e+65
6.18093e+64
-3.44753e+63
-5.29989e+62
7.05602e+61
6.67796e+60
4.07058e+59
-3.15704e+59
7.13563e+57
8.98876e+56
3.03988e+56
4.34408e+67
3.62024e+67
-3.69075e+66
-2.86281e+65
6.46106e+64
-3.52611e+63
-5.57403e+62
7.05802e+61
4.50433e+60
-1.74183e+60
-1.54331e+59
-1.9194e+59
9.57953e+57
9.47823e+56
2.52407e+56
4.09508e+67
-3.90999e+66
-3.32795e+65
6.88133e+64
-3.23385e+63
-6.19984e+62
6.37928e+61
5.40524e+60
-1.62751e+60
-6.80924e+58
-1.48678e+59
-8.13399e+58
9.27634e+57
1.08785e+57
1.87355e+56
-3.83706e+66
-4.19365e+65
5.57192e+64
-2.38654e+63
-3.08205e+62
2.8825e+61
-2.74402e+60
-1.15391e+60
9.62381e+58
-4.74981e+58
-4.80208e+58
-2.19849e+58
7.37706e+57
1.03879e+57
1.10765e+56
-2.97116e+65
2.51154e+64
-1.96521e+64
3.81808e+62
3.73561e+62
-3.43014e+61
-9.8871e+60
4.36883e+59
3.18055e+58
-1.95709e+58
-2.56327e+57
-6.26966e+56
4.92734e+57
7.74524e+56
4.61448e+55
2.03601e+65
-5.1551e+64
-1.65577e+64
9.198e+62
3.09526e+62
-3.68227e+61
-8.37332e+60
2.55369e+59
2.63286e+58
-1.24552e+58
3.46585e+57
3.43329e+57
2.70912e+57
4.39548e+56
5.29099e+54
1.02981e+65
-4.34316e+64
-1.55254e+64
6.65722e+62
3.03792e+62
-2.99497e+61
-8.57917e+60
1.53589e+59
3.34839e+58
-1.32575e+58
1.9994e+57
2.23668e+57
1.16556e+57
1.78096e+56
-1.21857e+55
9.50754e+64
-3.74587e+64
-1.52458e+64
4.68296e+62
3.05036e+62
-2.47168e+61
-8.61711e+60
6.55689e+58
3.85047e+58
-1.37474e+58
2.07234e+56
8.2649e+56
3.59331e+56
3.94586e+55
-1.39915e+55
8.62078e+64
-3.2588e+64
-1.48333e+64
2.79683e+62
3.01745e+62
-1.93197e+61
-8.55633e+60
-2.58773e+58
4.29598e+58
-1.28832e+58
-5.28108e+56
3.23096e+56
6.23639e+55
-7.06978e+54
-9.30517e+54
7.72481e+64
-2.8004e+64
-1.43765e+64
9.12626e+61
2.96116e+62
-1.39513e+61
-8.41552e+60
-1.16927e+59
4.60343e+58
-1.14285e+58
-7.68625e+56
2.09329e+56
-1.82915e+54
-1.11285e+55
-4.29805e+54
6.89753e+64
-2.4128e+64
-1.3822e+64
-8.86269e+61
2.88529e+62
-8.74159e+60
-8.20031e+60
-2.04925e+59
4.72907e+58
-9.81922e+57
-8.49388e+56
1.70564e+56
1.60346e+54
-5.30998e+54
-1.24376e+54
5.94507e+64
-2.16578e+64
-1.2749e+64
-2.281e+62
2.77572e+62
-3.83716e+60
-7.92378e+60
-2.86875e+59
4.66327e+58
-8.2512e+57
-8.76857e+56
1.35816e+56
6.20362e+54
-1.69916e+54
-1.27447e+53
4.13292e+64
-1.76544e+64
-1.01052e+64
-2.99994e+62
2.39816e+62
1.85138e+59
-7.50418e+60
-3.57878e+59
4.39449e+58
-6.79022e+57
-9.24645e+56
1.12424e+56
6.3199e+54
-8.37468e+53
4.25814e+52
2.04037e+64
-1.20275e+64
-7.94765e+63
-3.34365e+62
1.90668e+62
2.90418e+60
-6.45451e+60
-3.99851e+59
3.973e+58
-5.52288e+57
-1.02527e+57
1.10908e+56
8.06309e+54
-6.89066e+53
8.65399e+52
1.8731e+64
-7.70791e+63
-6.79966e+63
-3.76596e+62
1.59411e+62
5.38885e+60
-5.51299e+60
-4.40526e+59
3.61079e+58
-4.35242e+57
-1.14426e+57
1.08105e+56
1.1865e+55
-8.00964e+53
1.09567e+53
1.94727e+64
-5.62066e+63
-6.14101e+63
-4.22331e+62
1.43837e+62
8.05557e+60
-5.01962e+60
-4.95877e+59
3.26142e+58
-3.18364e+57
-1.23397e+57
9.09185e+55
1.50831e+55
-8.79507e+53
1.13862e+53
1.68244e+64
-4.46056e+63
-5.77224e+63
-4.74987e+62
1.3326e+62
1.04274e+61
-4.63435e+60
-5.56797e+59
2.78695e+58
-1.98838e+57
-1.29362e+57
6.71152e+55
1.73724e+55
-8.18972e+53
9.7995e+52
1.45252e+64
-3.53602e+63
-5.40351e+63
-5.2582e+62
1.21566e+62
1.27212e+61
-4.24061e+60
-6.21065e+59
2.16391e+58
-7.88109e+56
-1.32454e+57
3.99849e+55
1.88633e+55
-6.45611e+53
6.80756e+52
1.23784e+64
-2.71275e+63
-5.00965e+63
-5.72827e+62
1.08405e+62
1.49347e+61
-3.79659e+60
-6.83469e+59
1.37726e+58
3.74861e+56
-1.32725e+57
1.1781e+55
2.02846e+55
-4.13257e+53
3.06103e+52
1.02761e+64
-1.99985e+63
-4.58991e+63
-6.14654e+62
9.39437e+61
1.70046e+61
-3.2902e+60
-7.40795e+59
4.19501e+57
1.47095e+57
-1.29957e+57
-1.78056e+55
2.0991e+55
-1.26834e+53
-1.01706e+52
8.3168e+63
-1.38253e+63
-4.16354e+63
-6.51671e+62
7.8238e+61
1.88766e+61
-2.71776e+60
-7.92208e+59
-7.18115e+57
2.4765e+57
-1.24376e+57
-4.73162e+55
2.04692e+55
1.90986e+53
-4.60626e+52
6.59516e+63
-8.57328e+62
-3.74619e+63
-6.82456e+62
6.13625e+61
2.04751e+61
-2.08041e+60
-8.36476e+59
-2.05686e+58
3.36807e+57
-1.16468e+57
-7.61942e+55
1.96341e+55
5.12902e+53
-7.20758e+52
5.1214e+63
-4.18426e+62
-3.33912e+63
-7.05624e+62
4.33241e+61
2.16396e+61
-1.38246e+60
-8.71956e+59
-3.62488e+58
4.10083e+57
-1.06272e+57
-1.05289e+56
1.87381e+55
8.44807e+53
-8.88496e+52
3.8869e+63
-6.4046e+61
-2.95074e+63
-7.21724e+62
2.4287e+61
2.23056e+61
-6.28065e+59
-8.95041e+59
-5.45272e+58
4.594e+57
-9.30659e+56
-1.35603e+56
1.76174e+55
1.20415e+54
-9.89124e+52
2.86948e+63
2.07518e+62
-2.57707e+63
-7.29732e+62
4.46483e+60
2.24414e+61
1.75217e+59
-9.0057e+59
-7.56807e+58
4.75455e+57
-7.61127e+56
-1.68935e+56
1.61158e+55
1.62087e+54
-1.05117e+53
2.05888e+63
4.1838e+62
-2.21928e+63
-7.2997e+62
-1.59977e+61
2.19831e+61
1.01775e+60
-8.84039e+59
-9.98019e+58
4.45717e+57
-5.43989e+56
-2.03681e+56
1.37141e+55
2.09416e+54
-1.05824e+53
1.38875e+63
5.86034e+62
-1.88833e+63
-7.2467e+62
-3.6915e+61
2.08503e+61
1.88693e+60
-8.4e+59
-1.26477e+59
3.55188e+57
-2.74882e+56
-2.3451e+56
9.85575e+54
2.55198e+54
-9.54586e+52
8.02758e+62
6.95124e+62
-1.59054e+63
-7.14233e+62
-5.80373e+61
1.89792e+61
2.76769e+60
-7.63155e+59
-1.55322e+59
1.76456e+57
4.16693e+55
-2.61019e+56
4.64453e+54
2.9923e+54
-7.32667e+52
3.0306e+62
7.22628e+62
-1.32318e+63
-6.95923e+62
-7.89102e+61
1.62872e+61
3.63731e+60
-6.46891e+59
-1.86191e+59
-1.19191e+57
3.94682e+56
-2.81763e+56
-2.09671e+54
3.41997e+54
-3.91196e+52
-7.2839e+61
6.78085e+62
-1.07607e+63
-6.66621e+62
-9.90518e+61
1.26824e+61
4.46462e+60
-4.82558e+59
-2.18301e+59
-5.69212e+57
7.71708e+56
-2.88855e+56
-1.02983e+55
3.71312e+54
7.02679e+51
-3.01121e+62
6.17029e+62
-8.39056e+62
-6.27861e+62
-1.17928e+62
8.08805e+60
5.20041e+60
-2.60186e+59
-2.49708e+59
-1.22167e+58
1.14514e+57
-2.77377e+56
-1.92732e+55
3.86786e+54
6.28022e+52
-4.29594e+62
5.84112e+62
-6.24e+62
-5.8128e+62
-1.34764e+62
2.43047e+60
5.76886e+60
2.91385e+58
-2.7635e+59
-2.13723e+58
1.45352e+57
-2.53531e+56
-3.04973e+55
4.05124e+54
1.37013e+53
-5.40534e+62
5.58571e+62
-4.41897e+62
-5.28379e+62
-1.49415e+62
-4.32893e+60
6.08082e+60
3.85731e+59
-2.91893e+59
-3.37076e+58
1.57203e+57
-2.09526e+56
-4.69927e+55
4.24278e+54
2.56956e+53
-6.36914e+62
4.91686e+62
-2.9342e+62
-4.7095e+62
-1.61914e+62
-1.22092e+61
6.01615e+60
7.968e+59
-2.88338e+59
-4.96234e+58
1.27656e+57
-1.15997e+56
-6.91682e+55
4.06771e+54
4.60923e+53
-6.90109e+62
3.92817e+62
-1.69349e+62
-4.1012e+62
-1.71788e+62
-2.11642e+61
5.39633e+60
1.23724e+60
-2.5658e+59
-6.88385e+58
1.761e+56
5.17773e+55
-9.67125e+55
2.82093e+54
7.98625e+53
-7.08627e+62
3.01554e+62
-6.44347e+61
-3.48076e+62
-1.78524e+62
-3.09153e+61
4.13678e+60
1.67529e+60
-1.88541e+59
-8.98319e+58
-2.26414e+57
3.1322e+56
-1.25715e+56
-8.30723e+53
1.31389e+54
-7.05286e+62
2.17931e+62
1.97159e+61
-2.85583e+62
-1.81242e+62
-4.08829e+61
2.21237e+60
2.06549e+60
-7.81968e+58
-1.09901e+59
-6.59159e+57
6.16099e+56
-1.41072e+56
-8.37596e+54
1.95383e+54
-6.81673e+62
1.32902e+62
8.13085e+61
-2.2188e+62
-1.78042e+62
-5.00277e+61
-4.00047e+59
2.34684e+60
7.51888e+58
-1.24291e+59
-1.30609e+58
8.35751e+56
-1.25288e+56
-2.08182e+55
2.49634e+54
-6.3875e+62
4.62569e+61
1.19153e+62
-1.59469e+62
-1.66234e+62
-5.75267e+61
-3.63885e+60
2.44549e+60
2.61761e+59
-1.26818e+59
-2.14294e+58
7.91459e+56
-5.7067e+55
-3.90748e+55
2.44315e+54
-5.73939e+62
-3.78574e+61
1.31018e+62
-1.01972e+62
-1.47119e+62
-6.28504e+61
-7.30247e+60
2.26992e+60
4.63156e+59
-1.13312e+59
-3.08854e+58
2.72387e+56
9.41968e+55
-6.13461e+55
7.46264e+53
-4.89043e+62
-1.04955e+62
1.19807e+62
-5.27525e+61
-1.24665e+62
-6.57391e+61
-1.10878e+61
1.81599e+60
6.66218e+59
-8.32254e+58
-3.97726e+58
-9.08713e+56
2.79632e+56
-7.31425e+55
-3.08152e+54
-3.9823e+62
-1.43286e+62
9.479e+61
-1.4128e+61
-1.01366e+62
-6.61927e+61
-1.46807e+61
1.07474e+60
8.58229e+59
-3.79325e+58
-4.5192e+58
-2.56128e+57
4.29605e+56
-6.7443e+55
-8.37113e+54
-3.16419e+62
-1.56371e+62
6.8147e+61
1.34323e+61
-7.86422e+61
-6.44653e+61
-1.78673e+61
1.16063e+59
9.43677e+59
1.72095e+58
-4.74707e+58
-4.36449e+57
5.28494e+56
-4.80225e+55
-1.44201e+55
-2.49188e+62
-1.55736e+62
4.47763e+61
3.0959e+61
-5.75139e+61
-6.10884e+61
-2.0537e+61
-9.35004e+59
9.34905e+59
6.9942e+58
-4.79991e+58
-5.95119e+57
5.05457e+56
-2.21485e+55
-2.91753e+55
-1.9637e+62
-1.50118e+62
2.36276e+61
4.07429e+61
-3.86545e+61
-5.66522e+61
-2.27698e+61
-2.00808e+60
8.85299e+59
1.14782e+59
-4.20686e+58
-6.57131e+57
3.68196e+56
1.42785e+55
-1.84414e+55
-1.54537e+62
-1.42597e+62
4.24749e+60
4.49599e+61
-2.23762e+61
-5.16267e+61
-2.47143e+61
-3.1321e+60
8.00588e+59
1.53798e+59
-3.47489e+58
-6.68056e+57
2.41674e+56
2.25192e+55
-9.05621e+54
-1.20702e+62
-1.33193e+62
-1.41738e+61
4.4256e+61
-8.70243e+60
-4.59576e+61
-2.62898e+61
-4.30081e+60
7.08558e+59
1.88466e+59
-2.99059e+58
-6.99229e+57
1.67064e+56
2.72724e+55
-6.38818e+54
-9.27121e+61
-1.21674e+62
-3.04357e+61
3.95065e+61
2.51186e+60
-3.94004e+61
-2.71722e+61
-5.48638e+60
5.9031e+59
2.23811e+59
-2.57203e+58
-7.46912e+57
1.13021e+56
3.21443e+55
-6.25907e+54
-6.99075e+61
-1.08173e+62
-4.29063e+61
3.24571e+61
1.15317e+61
-3.22109e+61
-2.73072e+61
-6.65721e+60
4.26469e+59
2.5784e+59
-2.13397e+58
-7.99632e+57
5.99991e+55
3.7038e+55
-7.2182e+54
-5.1647e+61
-9.41059e+61
-5.22904e+61
2.34405e+61
1.8373e+61
-2.49224e+61
-2.70887e+61
-7.8394e+60
2.1345e+59
2.88555e+59
-1.63938e+58
-8.41512e+57
1.33034e+53
3.89695e+55
-8.36502e+54
-3.71597e+61
-8.00878e+61
-5.94407e+61
1.25525e+61
2.29827e+61
-1.75921e+61
-2.65674e+61
-9.10408e+60
-5.64106e+58
3.14358e+59
-1.06692e+58
-8.49495e+57
-6.44503e+55
3.4832e+55
-9.01528e+54
-2.61196e+61
-6.59604e+61
-6.27451e+61
1.4871e+60
2.55535e+61
-1.01343e+61
-2.54388e+61
-1.04271e+61
-3.92047e+59
3.34495e+59
-4.60255e+57
-8.17435e+57
-1.2296e+56
2.44775e+55
-1.01374e+55
-1.79573e+61
-5.26715e+61
-6.19683e+61
-9.00292e+60
2.61287e+61
-2.70234e+60
-2.35875e+61
-1.17343e+61
-8.00292e+59
3.46332e+59
1.16364e+57
-7.49578e+57
-1.67079e+56
9.57112e+54
-1.41208e+55
-1.18999e+61
-4.10801e+61
-5.89488e+61
-1.91669e+61
2.39381e+61
4.43878e+60
-2.08867e+61
-1.29453e+61
-1.28419e+60
3.47945e+59
5.86007e+57
-6.45113e+57
-1.95048e+56
-7.14994e+54
-2.10821e+55
-7.44687e+60
-3.09531e+61
-5.42531e+61
-2.88222e+61
1.88453e+61
1.09357e+61
-1.7261e+61
-1.39664e+61
-1.8425e+60
3.38374e+59
8.43034e+57
-4.95933e+57
-2.13799e+56
-1.73846e+55
-2.22256e+55
-4.27218e+60
-2.21027e+61
-4.78506e+61
-3.68581e+61
1.13996e+61
1.62491e+61
-1.27415e+61
-1.47961e+61
-2.46764e+60
3.07157e+59
8.121e+57
-2.9445e+57
-2.05794e+56
-1.97332e+55
-2.02683e+55
-2.17624e+60
-1.47138e+61
-4.00796e+61
-4.23612e+61
1.99116e+60
1.97291e+61
-7.26361e+60
-1.53072e+61
-3.14498e+60
2.5675e+59
5.79336e+57
-9.32583e+56
-2.34614e+56
-3.22759e+55
-2.08511e+55
-9.3983e+59
-8.89973e+60
-3.14974e+61
-4.48701e+61
-8.55711e+60
2.08248e+61
-8.42745e+59
-1.52052e+61
-3.88583e+60
1.9638e+59
3.83239e+57
2.6563e+56
-3.37327e+56
-6.87337e+55
-3.11528e+55
-2.97731e+59
-4.68021e+60
-2.27597e+61
-4.41265e+61
-1.92008e+61
1.90032e+61
6.25638e+60
-1.4127e+61
-4.74779e+60
1.78914e+59
8.18982e+57
3.13739e+56
-3.90487e+56
-1.66292e+56
-7.87183e+55
-2.35076e+58
-1.89024e+60
-1.44855e+61
-4.02894e+61
-2.91775e+61
1.36582e+61
1.35289e+61
-1.16172e+61
-5.5674e+60
2.10174e+59
2.75324e+58
-3.45835e+57
-1.44651e+57
-9.82378e+56
-3.92057e+56
3.09879e+58
-3.46969e+59
-7.29151e+60
-3.35378e+61
-3.7736e+61
4.19216e+60
1.99724e+61
-7.42322e+60
-5.83163e+60
-6.75632e+58
8.56713e+58
5.23267e+57
9.6922e+57
5.33864e+57
1.37429e+57
2.99752e+57
1.36319e+59
-1.8992e+60
-2.40668e+61
-4.35763e+61
-9.4506e+60
2.38739e+61
-1.93573e+60
-6.25514e+60
-8.35754e+59
7.155e+58
-2.1257e+58
-2.42728e+58
-1.06697e+58
-5.66147e+56
8.91263e+57
8.96618e+58
7.97887e+59
-1.26203e+61
-4.45677e+61
-2.58647e+61
2.35019e+61
4.68559e+60
-6.18233e+60
-1.80313e+60
-6.77192e+59
-5.51603e+59
-7.20937e+59
-9.25121e+59
-5.71426e+59
9.88734e+58
1.32496e+59
7.96135e+59
-2.52614e+60
-3.82898e+61
-4.19363e+61
1.79506e+61
1.12829e+61
-4.45541e+60
-1.76691e+60
-1.7087e+60
-1.64604e+60
-2.20029e+60
-1.87849e+60
-9.93752e+59
3.36476e+59
1.17626e+59
1.07715e+60
-6.16913e+59
-2.61725e+61
-5.23962e+61
8.25399e+60
1.55759e+61
-1.53315e+60
-5.70722e+59
-4.20235e+59
-9.8151e+59
-1.1488e+60
-8.50591e+59
-9.51365e+59
1.38315e+61
5.46335e+60
3.30437e+60
-4.17746e+60
-2.43808e+61
-4.79773e+61
-6.11128e+59
1.65235e+61
1.30147e+60
1.19979e+59
-1.49026e+59
-1.65487e+59
-1.79193e+59
-2.79386e+59
-8.34511e+59
-2.45925e+62
-9.75793e+61
-4.0866e+61
-2.1089e+61
-3.70169e+61
-4.22811e+61
8.03766e+60
1.59797e+61
4.27548e+60
-2.61279e+59
-5.75753e+59
-4.41477e+59
-3.24038e+59
-2.49977e+59
-6.74535e+59
-2.13553e+62
-4.39075e+61
-1.59368e+62
-1.60745e+62
-1.18348e+62
-9.04969e+60
5.88496e+61
3.13587e+61
6.44934e+60
1.36779e+59
-6.54592e+59
-5.50391e+59
-3.75537e+59
-2.44791e+59
-5.75603e+59
4.52284e+64
1.1568e+64
3.96359e+63
1.74289e+63
8.78835e+62
4.90167e+62
2.21106e+62
6.42348e+61
1.12236e+61
-7.44026e+59
-1.75856e+60
-1.16329e+60
-6.59907e+59
-3.61818e+59
-5.32666e+59
-6.56808e+64
9.41957e+63
2.48227e+64
1.49877e+64
8.44829e+63
4.70683e+63
1.89559e+63
4.82539e+62
1.03646e+62
2.00664e+61
3.67284e+60
8.72264e+59
4.37191e+59
3.06504e+59
8.91268e+59
-5.37829e+66
-7.62558e+65
-1.35987e+65
-1.61886e+64
7.99968e+63
7.66276e+63
3.06731e+63
8.47014e+62
2.08758e+62
5.39182e+61
1.67539e+61
7.06132e+60
3.84385e+60
2.53257e+60
4.37202e+60
6.48039e+67
4.02602e+65
-1.19021e+66
-3.01363e+65
-5.15149e+64
5.75913e+62
2.83667e+63
7.46191e+62
1.31006e+62
-1.24139e+61
-3.9239e+61
-3.53396e+61
-2.37823e+61
-1.20111e+61
-6.02191e+60
-5.03934e+67
6.0706e+67
3.05747e+66
-4.32663e+65
-1.34303e+64
-4.35052e+63
1.93152e+63
1.33962e+63
7.25766e+62
5.93529e+62
4.95108e+62
3.69236e+62
2.28705e+62
1.10917e+62
4.94871e+61
-4.40463e+69
-6.1497e+67
7.00178e+67
-5.3936e+66
5.13726e+64
1.14743e+65
5.95497e+63
5.33282e+63
3.68825e+63
1.97102e+63
1.05554e+63
5.9418e+62
3.76607e+62
2.48269e+62
1.20464e+62
-1.91207e+70
-4.3034e+69
3.41962e+67
6.13392e+67
-7.51869e+66
-3.42007e+64
-1.07674e+65
-2.08078e+65
-1.87578e+65
-1.60348e+65
-1.2876e+65
-9.36907e+64
-5.82851e+64
-2.8761e+64
-1.00408e+64
5.31145e+71
-2.00342e+70
-3.96316e+69
4.05966e+67
5.18515e+67
-9.96382e+66
-2.14734e+66
-1.66639e+66
-1.32017e+66
-9.44985e+65
-6.55671e+65
-4.41455e+65
-2.77719e+65
-1.54512e+65
-5.90503e+64
-4.30051e+72
4.82253e+71
-2.00722e+70
-3.8199e+69
3.64543e+67
4.86226e+67
-8.04762e+66
9.55426e+65
1.98994e+66
2.31298e+66
2.28976e+66
1.88705e+66
1.23501e+66
5.71552e+65
1.97443e+65
6.07481e+72
-3.74048e+72
4.45382e+71
-1.98935e+70
-3.68203e+69
6.34176e+67
5.44639e+67
-1.36189e+67
-1.39609e+67
-1.79735e+67
-1.85649e+67
-1.58231e+67
-1.10566e+67
-5.96098e+66
-2.44293e+66
1.75935e+74
3.73935e+72
-3.34971e+72
4.2075e+71
-1.99926e+70
-4.03817e+69
-2.59307e+68
-1.87551e+68
-1.79984e+68
-1.15064e+68
-7.07886e+67
-4.33563e+67
-2.61162e+67
-1.60207e+67
-8.18884e+66
1.06495e+75
4.82634e+74
1.35513e+73
-1.00527e+73
1.2441e+72
-3.42354e+70
5.94222e+69
1.78597e+70
1.79697e+70
1.6583e+70
1.45437e+70
1.1989e+70
9.02495e+69
6.52671e+69
4.82318e+69
-5.23445e+76
8.98955e+74
4.55563e+74
1.71796e+73
-1.01465e+73
1.41404e+72
1.3363e+71
1.29932e+71
1.22145e+71
1.01261e+71
7.05253e+70
4.68327e+70
3.19361e+70
2.15996e+70
1.28781e+70
5.6564e+77
-4.80612e+76
1.03253e+75
4.63058e+74
2.10157e+73
-8.80636e+72
1.97629e+72
6.59178e+71
4.78569e+71
3.64222e+71
2.62061e+71
1.75016e+71
1.04465e+71
5.56897e+70
3.11268e+70
-1.23155e+78
4.96524e+77
-4.60402e+76
4.89773e+74
5.84051e+74
7.54652e+73
-3.12111e+72
3.62629e+72
3.05386e+72
1.72275e+72
1.08509e+72
6.39913e+71
3.32976e+71
1.50575e+71
7.35145e+70
-2.54778e+79
-8.48401e+77
4.50996e+77
-4.21943e+76
8.86102e+74
3.53579e+74
1.64761e+73
-2.15847e+72
3.06522e+72
1.63746e+72
1.15038e+72
8.15392e+71
5.3753e+71
3.10174e+71
1.80735e+71
-1.12949e+78
4.93203e+77
-4.75764e+76
7.55743e+74
4.39368e+74
2.13266e+73
-7.94558e+72
2.68027e+72
1.45602e+72
1.14405e+72
8.96155e+71
7.63731e+71
5.9178e+71
4.22098e+71
2.94938e+71
5.77124e+77
-5.13922e+76
-7.85874e+74
2.2174e+74
1.8351e+73
-8.38857e+72
-1.54772e+72
3.98591e+71
8.80995e+71
8.29023e+71
6.86094e+71
7.15806e+71
6.09177e+71
4.94164e+71
3.7569e+71
-3.55167e+76
-3.23642e+75
-4.96931e+74
-1.08869e+74
-2.24614e+73
-2.18302e+72
2.39173e+72
2.94698e+72
2.45388e+72
1.81697e+72
1.38916e+72
1.30854e+72
8.44054e+71
5.55402e+71
3.52721e+71
4.35184e+73
6.97319e+73
7.6062e+73
4.10824e+73
2.35793e+73
1.43837e+73
8.93459e+72
5.60563e+72
3.56853e+72
2.5684e+72
2.31823e+72
2.78344e+72
2.48462e+71
4.16077e+70
1.0164e+70
9.65226e+73
2.60227e+73
1.52648e+73
9.66933e+72
5.8328e+72
3.53895e+72
2.2218e+72
1.45906e+72
1.14694e+72
2.23399e+72
5.72319e+71
-6.46599e+70
1.31539e+70
1.78716e+69
4.34213e+68
1.12678e+73
4.32461e+72
1.01983e+72
6.8465e+70
-1.65055e+71
-2.00414e+71
-1.81056e+71
-1.67812e+71
-2.5435e+71
1.23821e+72
1.71575e+72
7.72208e+70
-6.79042e+70
-3.80189e+70
-1.93549e+70
-2.58191e+72
-9.64173e+71
-3.95594e+71
-2.06489e+71
-1.24599e+71
-6.90978e+70
-3.41432e+70
-6.23562e+69
7.18249e+70
2.82615e+71
1.39513e+72
9.34426e+71
5.36838e+71
3.01967e+71
1.69528e+71
2.2583e+71
8.16763e+70
4.05265e+70
2.61553e+70
1.95073e+70
1.33823e+70
4.49886e+69
-1.98544e+69
-4.42404e+69
-2.05799e+70
7.29176e+70
1.72564e+71
1.84478e+71
1.52069e+71
1.15277e+71
-1.43363e+69
-2.74495e+68
-7.56057e+68
-7.53845e+68
-7.32042e+68
-6.18139e+68
-1.35387e+68
2.23527e+68
2.70469e+68
5.92584e+68
-5.64756e+69
-7.84584e+69
-6.7095e+69
-5.39848e+69
-4.5057e+69
-1.39574e+69
-4.77924e+68
-2.88217e+68
-2.26189e+68
-1.92064e+68
-1.53941e+68
-9.86761e+67
-4.581e+67
1.40741e+67
1.95037e+68
2.56426e+68
3.23715e+67
-8.79086e+67
-1.10098e+68
-1.04778e+68
-1.36911e+68
-6.27916e+67
-1.79353e+67
-2.22493e+66
3.77088e+66
4.68208e+66
-2.65591e+66
-9.86463e+66
-1.39026e+67
-1.69147e+67
7.66575e+67
1.19713e+68
1.09202e+68
8.9538e+67
7.07335e+67
4.18212e+67
1.6371e+67
7.25679e+66
4.11445e+66
2.7188e+66
1.72747e+66
8.37878e+65
-2.42253e+65
-2.6631e+66
-8.40475e+66
-1.65706e+67
-1.53991e+67
-1.17316e+67
-8.85268e+66
-6.71833e+66
-3.16768e+66
-1.1408e+66
-6.51651e+65
-4.7458e+65
-3.72729e+65
-2.46526e+65
-5.95197e+64
9.43664e+64
1.27538e+65
-2.11407e+65
-1.26965e+66
-1.61473e+66
-1.41483e+66
-1.1235e+66
-8.58754e+65
-1.7931e+65
-7.44557e+64
-1.62264e+64
6.76232e+62
5.79068e+63
4.0768e+63
-2.63767e+63
4.32148e+62
2.96997e+64
9.79618e+64
1.85844e+65
1.80893e+65
1.42708e+65
1.07693e+65
7.96998e+64
5.48787e+64
2.02864e+64
1.06314e+64
7.28594e+63
5.51294e+63
3.66006e+63
1.26117e+63
-1.6021e+63
-4.59928e+63
-4.53876e+63
6.72895e+62
4.40771e+63
4.64828e+63
3.40664e+63
1.37002e+63
5.90624e+62
3.39759e+62
-1.25222e+62
-2.52196e+62
-2.41325e+62
-9.06023e+61
1.74633e+62
2.85793e+62
-7.77115e+61
-1.23047e+63
-2.7705e+63
-2.96727e+63
-2.59806e+63
-2.42617e+63
-2.83347e+63
-7.70411e+62
-2.95002e+62
-1.24435e+62
-6.87057e+61
-4.37017e+61
-2.4383e+61
1.50974e+60
5.71012e+61
1.67847e+62
2.99055e+62
3.48361e+62
2.53171e+62
7.731e+61
-2.60913e+62
-9.61386e+62
6.6283e+61
2.40331e+61
1.41648e+61
1.05169e+61
8.10195e+60
4.82742e+60
4.47166e+59
-2.63239e+60
-1.07514e+59
1.48891e+61
3.5372e+61
2.37499e+61
-3.70239e+61
-2.25147e+62
-6.99764e+62
4.47798e+60
1.85017e+60
4.58444e+59
4.54562e+58
-7.09633e+58
-2.65832e+58
8.62153e+58
-9.29577e+58
-1.05777e+60
-3.15864e+60
-5.35387e+60
-5.246e+60
-1.15567e+61
-8.30795e+61
-3.4036e+62
-1.16719e+60
-4.46205e+59
-2.36403e+59
-1.62539e+59
-1.23353e+59
-8.38114e+58
-3.10096e+58
3.18535e+58
5.53677e+58
-1.81605e+59
-4.98598e+59
-6.78253e+59
-3.75768e+59
-5.92324e+59
-7.08273e+60
-1.07415e+58
-7.98876e+57
3.02053e+57
6.58962e+57
6.77957e+57
4.16278e+57
-1.34718e+57
-1.29529e+58
-7.82358e+58
-4.17886e+59
-7.28192e+59
-1.00554e+60
-1.18069e+60
-9.75781e+59
-1.97065e+58
1.81137e+58
7.59259e+57
3.25728e+57
1.69144e+57
1.01103e+57
5.90752e+56
-3.0259e+56
-1.01263e+58
-9.23232e+58
-5.50452e+59
-9.64511e+59
-1.33534e+60
-1.70893e+60
-2.04288e+60
-2.19555e+60
-1.95217e+57
-7.81217e+56
-4.34452e+56
-2.97164e+56
-2.21722e+56
-1.70244e+56
-6.04622e+56
-1.06295e+58
-1.02551e+59
-6.55273e+59
-1.13264e+60
-1.57508e+60
-2.06054e+60
-2.59193e+60
-3.10575e+60
-2.93742e+55
-1.46621e+55
-1.93021e+53
3.87256e+54
4.01222e+54
-1.6507e+55
-5.69304e+56
-1.20679e+58
-1.16642e+59
-7.29262e+59
-1.25214e+60
-1.78898e+60
-2.39477e+60
-3.08675e+60
-3.8214e+60
1.64918e+55
6.60478e+54
3.85064e+54
2.93005e+54
2.04734e+54
-1.71798e+55
-6.00646e+56
-1.38208e+58
-1.39039e+59
-7.13163e+59
-1.22434e+60
-1.80104e+60
-2.48736e+60
-3.30071e+60
-4.21605e+60
6.87752e+53
4.40686e+53
1.38824e+53
8.79597e+52
-1.84768e+53
-1.75553e+55
-6.13537e+56
-1.59127e+58
-1.13384e+59
-6.05546e+59
-1.08234e+60
-1.61719e+60
-2.2501e+60
-3.01307e+60
-3.90059e+60
-3.91475e+53
-1.45829e+53
-1.67651e+51
1.3819e+53
4.11734e+52
-1.49917e+55
-5.82867e+56
-1.88061e+58
-1.00986e+59
-4.45279e+59
-8.30684e+59
-1.245e+60
-1.71378e+60
-2.27134e+60
-2.92652e+60
6.84493e+52
7.03762e+52
1.12076e+53
2.19091e+53
1.87283e+53
-1.24583e+55
-5.07898e+56
-2.19699e+58
-9.94114e+58
-2.77798e+59
-5.05517e+59
-7.70092e+59
-1.06932e+60
-1.41141e+60
-1.80559e+60
2.67829e+52
5.87003e+52
1.16076e+53
2.37139e+53
2.66923e+53
-1.07204e+55
-4.2927e+56
-2.5979e+58
-8.20411e+58
-1.62483e+59
-2.7196e+59
-4.10244e+59
-5.72065e+59
-7.56663e+59
-9.7065e+59
3.04671e+52
6.86988e+52
1.36762e+53
2.71392e+53
3.64403e+53
-9.57282e+54
-4.32377e+56
-1.7623e+58
-5.18415e+58
-9.1551e+58
-1.40809e+59
-2.01541e+59
-2.74709e+59
-3.61588e+59
-4.63238e+59
3.64804e+52
8.2509e+52
1.64644e+53
3.17162e+53
4.83427e+53
-7.73439e+54
-4.53283e+56
-9.40791e+57
-2.59789e+58
-4.39361e+58
-6.48419e+58
-8.91089e+58
-1.1785e+59
-1.52266e+59
-1.92675e+59
4.25223e+52
9.73031e+52
1.95109e+53
3.66956e+53
5.87265e+53
-4.9424e+54
-5.05144e+56
-4.82428e+57
-1.0554e+58
-1.68785e+58
-2.40844e+58
-3.2317e+58
-4.20398e+58
-5.36562e+58
-6.72775e+58
4.87228e+52
1.12585e+53
2.26531e+53
4.17628e+53
6.56667e+53
-2.18094e+54
-3.22635e+56
-1.79916e+57
-3.35261e+57
-5.05964e+57
-6.96992e+57
-9.19904e+57
-1.18822e+58
-1.50877e+58
-1.88366e+58
5.57017e+52
1.29929e+53
2.62323e+53
4.74686e+53
7.01723e+53
-7.45799e+53
-8.11965e+55
-5.02153e+56
-8.58863e+56
-1.21117e+57
-1.59338e+57
-2.04459e+57
-2.60016e+57
-3.26992e+57
-4.0538e+57
6.34886e+52
1.4975e+53
3.04534e+53
5.44483e+53
7.41829e+53
-5.69258e+53
-3.34456e+55
-1.14106e+56
-1.77727e+56
-2.31223e+56
-2.84792e+56
-3.49551e+56
-4.29059e+56
-5.23438e+56
-6.32961e+56
7.16449e+52
1.70523e+53
3.49371e+53
6.23166e+53
8.46258e+53
-5.4085e+53
-7.95032e+54
-2.02559e+55
-2.9778e+55
-3.65842e+55
-4.23171e+55
-4.83829e+55
-5.51337e+55
-6.25695e+55
-7.07454e+55
7.86774e+52
1.9199e+53
4.06125e+53
7.49798e+53
1.14958e+54
1.2805e+54
7.47393e+53
-6.12237e+53
-2.19905e+54
-3.52285e+54
-4.57202e+54
-5.43906e+54
-6.15689e+54
-6.73029e+54
-7.16859e+54
6.86394e+52
1.64443e+53
3.42714e+53
6.26612e+53
1.00278e+54
1.39053e+54
1.62154e+54
1.59475e+54
1.40997e+54
1.18129e+54
9.4865e+53
7.2791e+53
5.23728e+53
3.38522e+53
1.73961e+53
4.38868e+52
9.6604e+52
1.84147e+53
3.08114e+53
4.52335e+53
5.92782e+53
6.97842e+53
7.48094e+53
7.57203e+53
7.49124e+53
7.33096e+53
7.10623e+53
6.82139e+53
6.48147e+53
6.09916e+53
1.90305e+52
3.64949e+52
5.96872e+52
8.70532e+52
1.14093e+53
1.38345e+53
1.57471e+53
1.70025e+53
1.77242e+53
1.81643e+53
1.84614e+53
1.86249e+53
1.86267e+53
1.84562e+53
1.81286e+53
5.82664e+51
1.00268e+52
1.36052e+52
1.65732e+52
1.87566e+52
2.03403e+52
2.14514e+52
2.21637e+52
2.26112e+52
2.2961e+52
2.32837e+52
2.35448e+52
2.3685e+52
2.36662e+52
2.34847e+52
6.62988e+50
1.67172e+51
2.35235e+51
2.68378e+51
2.74652e+51
2.66854e+51
2.52288e+51
2.35526e+51
2.19808e+51
2.06385e+51
1.94987e+51
1.84986e+51
1.75896e+51
1.67451e+51
1.59464e+51
-3.78106e+50
-1.83108e+50
7.08454e+48
1.32493e+50
2.04526e+50
2.39276e+50
2.48925e+50
2.43661e+50
2.31751e+50
2.17295e+50
2.0124e+50
1.84118e+50
1.66624e+50
1.49482e+50
1.3279e+50
-2.2822e+50
-2.10782e+50
-1.66861e+50
-1.27851e+50
-9.55428e+49
-7.0156e+49
-5.07411e+49
-3.60614e+49
-2.51875e+49
-1.72777e+49
-1.15016e+49
-7.24161e+48
-4.10112e+48
-1.80586e+48
-2.57945e+47
-5.92617e+49
-5.9204e+49
-5.12703e+49
-4.34842e+49
-3.63657e+49
-3.02263e+49
-2.50557e+49
-2.07525e+49
-1.73416e+49
-1.47048e+49
-1.25628e+49
-1.07474e+49
-9.187e+48
-7.84161e+48
-6.6952e+48
-9.13831e+48
-9.15767e+48
-7.91153e+48
-6.73733e+48
-5.68301e+48
-4.77348e+48
-4.00296e+48
-3.37946e+48
-2.90058e+48
-2.52592e+48
-2.21152e+48
-1.93592e+48
-1.69112e+48
-1.47343e+48
-1.28116e+48
-7.59814e+47
-8.05065e+47
-6.8785e+47
-5.70999e+47
-4.69049e+47
-3.85626e+47
-3.18602e+47
-2.67167e+47
-2.28944e+47
-1.98963e+47
-1.73567e+47
-1.51272e+47
-1.31521e+47
-1.14066e+47
-9.86879e+46
5.47932e+46
2.42986e+46
9.17348e+45
2.94593e+45
3.54703e+44
-7.82746e+44
-1.31807e+45
-1.6321e+45
-1.81406e+45
-1.85849e+45
-1.80096e+45
-1.68817e+45
-1.5495e+45
-1.40506e+45
-1.24498e+45
3.07622e+46
2.33956e+46
1.61555e+46
1.15362e+46
8.48293e+45
6.3925e+45
4.93442e+45
3.92222e+45
3.19783e+45
2.64606e+45
2.20349e+45
1.83852e+45
1.53391e+45
1.27851e+45
1.06753e+45
5.06339e+45
4.06703e+45
2.88268e+45
2.07296e+45
1.51997e+45
1.1411e+45
8.80056e+44
7.00243e+44
5.7102e+44
4.71439e+44
3.91127e+44
3.25058e+44
2.70246e+44
2.24641e+44
1.86978e+44
4.78056e+44
3.85951e+44
2.74391e+44
1.97262e+44
1.43953e+44
1.07468e+44
8.26606e+43
6.56619e+43
5.32197e+43
4.34974e+43
3.56505e+43
2.92433e+43
2.39877e+43
1.96751e+43
1.61527e+43
1.88382e+43
1.75931e+43
1.25839e+43
9.13984e+42
6.71589e+42
5.06862e+42
3.97465e+42
3.21915e+42
2.64484e+42
2.18008e+42
1.7967e+42
1.47922e+42
1.21616e+42
9.99063e+41
8.19739e+41
-6.14756e+42
-2.80825e+42
-1.30292e+42
-6.62993e+41
-3.6801e+41
-2.18348e+41
-1.37407e+41
-9.19039e+40
-6.51288e+40
-4.81902e+40
-3.66147e+40
-2.82381e+40
-2.19646e+40
-1.71186e+40
-1.36177e+40
-2.15888e+42
-1.2108e+42
-6.21403e+41
-3.43414e+41
-2.02677e+41
-1.27034e+41
-8.43287e+40
-5.88106e+40
-4.24483e+40
-3.12986e+40
-2.34011e+40
-1.76756e+40
-1.34597e+40
-1.03172e+40
-8.00256e+39
-3.22434e+41
-2.05631e+41
-1.1522e+41
-6.83568e+40
-4.28043e+40
-2.82979e+40
-1.96575e+40
-1.4157e+40
-1.04104e+40
-7.74057e+39
-5.79477e+39
-4.36015e+39
-3.29453e+39
-2.49957e+39
-1.90901e+39
-2.44193e+40
-1.69524e+40
-1.02565e+40
-6.47946e+39
-4.29139e+39
-2.98937e+39
-2.17158e+39
-1.61775e+39
-1.221e+39
-9.26938e+38
-7.05252e+38
-5.37214e+38
-4.09567e+38
-3.12706e+38
-2.39482e+38
-1.28668e+39
-7.54496e+38
-4.29789e+38
-2.68842e+38
-1.80699e+38
-1.28643e+38
-9.56337e+37
-7.30544e+37
-5.64703e+37
-4.37674e+37
-3.39016e+37
-2.62092e+37
-2.02065e+37
-1.55535e+37
-1.19817e+37
-1.0393e+38
-5.28157e+37
-2.2163e+37
-1.06215e+37
-5.58386e+36
-3.15574e+36
-1.89665e+36
-1.19389e+36
-7.71917e+35
-5.06275e+35
-3.35788e+35
-2.25413e+35
-1.53279e+35
-1.05997e+35
-7.43191e+34
1.05994e+37
2.30408e+36
2.96393e+35
-2.07217e+35
-2.82176e+35
-2.51584e+35
-1.99547e+35
-1.48942e+35
-1.06195e+35
-7.31518e+34
-4.91288e+34
-3.23176e+34
-2.08658e+34
-1.32931e+34
-8.15476e+33
5.52374e+36
2.6791e+36
1.18282e+36
5.78277e+35
3.08244e+35
1.76139e+35
1.06745e+35
6.7801e+34
4.44574e+34
2.97305e+34
2.0152e+34
1.38174e+34
9.57993e+33
6.71387e+33
4.79858e+33
5.7461e+35
3.46586e+35
1.80948e+35
1.03338e+35
6.34719e+34
4.12655e+34
2.79997e+34
1.95495e+34
1.38428e+34
9.85343e+33
7.02702e+33
5.0196e+33
3.59605e+33
2.59075e+33
1.88715e+33
-9.13455e+33
-8.85247e+31
1.81684e+33
2.07958e+33
1.8474e+33
1.52401e+33
1.22018e+33
9.60033e+32
7.43429e+32
5.67372e+32
4.27905e+32
3.20078e+32
2.38485e+32
1.78129e+32
1.33926e+32
-8.331e+33
-4.17168e+33
-2.00365e+33
-1.05589e+33
-6.06063e+32
-3.72417e+32
-2.41361e+32
-1.62597e+32
-1.12142e+32
-7.82908e+31
-5.50165e+31
-3.88534e+31
-2.75873e+31
-1.97247e+31
-1.43167e+31
-1.37099e+33
-6.88852e+32
-3.22913e+32
-1.69119e+32
-9.72143e+31
-6.01565e+31
-3.94065e+31
-2.68779e+31
-1.87815e+31
-1.32931e+31
-9.47837e+30
-6.79727e+30
-4.90428e+30
-3.56759e+30
-2.6329e+30
-1.54975e+32
-8.42916e+31
-4.08303e+31
-2.17245e+31
-1.25541e+31
-7.7538e+30
-5.03989e+30
-3.39452e+30
-2.33511e+30
-1.62541e+30
-1.14017e+30
-8.0518e+29
-5.72779e+29
-4.11251e+29
-2.99495e+29
-1.3716e+31
-7.09768e+30
-3.5084e+30
-1.90699e+30
-1.13279e+30
-7.19181e+29
-4.79334e+29
-3.29946e+29
-2.31144e+29
-1.63355e+29
-1.16064e+29
-8.28579e+28
-5.95111e+28
-4.31108e+28
-3.16029e+28
-1.82907e+30
-7.33424e+29
-2.90539e+29
-1.35895e+29
-7.28178e+28
-4.30455e+28
-2.7366e+28
-1.82834e+28
-1.2582e+28
-8.80646e+27
-6.23208e+27
-4.44886e+27
-3.20324e+27
-2.32932e+27
-1.71516e+27
-1.55662e+29
-7.79288e+28
-3.22939e+28
-1.59667e+28
-8.70812e+27
-5.08443e+27
-3.12645e+27
-1.99119e+27
-1.29538e+27
-8.54861e+26
-5.71107e+26
-3.85984e+26
-2.63803e+26
-1.82515e+26
-1.27771e+26
2.47115e+28
7.04802e+27
1.82793e+27
3.62199e+26
-2.65889e+25
-1.13953e+26
-1.15774e+26
-9.55599e+25
-7.28562e+25
-5.36227e+25
-3.89202e+25
-2.81431e+25
-2.03863e+25
-1.48382e+25
-1.07354e+25
6.16287e+27
2.68399e+27
1.05446e+27
4.78957e+26
2.43224e+26
1.3463e+26
7.96278e+25
4.93563e+25
3.15361e+25
2.05728e+25
1.36343e+25
9.14737e+24
6.20347e+24
4.25487e+24
2.96224e+24
2.2927e+26
1.46902e+26
7.21781e+25
3.9733e+25
2.35269e+25
1.47322e+25
9.61266e+24
6.43909e+24
4.38106e+24
3.01622e+24
2.09639e+24
1.46765e+24
1.03513e+24
7.3637e+23
5.27119e+23
-4.33186e+25
-1.85596e+25
-7.07255e+24
-2.97761e+24
-1.36811e+24
-6.79544e+23
-3.60053e+23
-2.00489e+23
-1.15632e+23
-6.82076e+22
-4.07266e+22
-2.4388e+22