/*--------------------------------*- C++ -*----------------------------------*\
  =========                 |
  \\      /  F ield         | OpenFOAM: The Open Source CFD Toolbox
   \\    /   O peration     | Website:  https://openfoam.org
    \\  /    A nd           | Version:  8
     \\/     M anipulation  |
\*---------------------------------------------------------------------------*/
FoamFile
{
    version     2.0;
    format      ascii;
    class       volScalarField;
    location    "650";
    object      k;
}
// * * * * * * * * * * * * * * * * * * * * * * * * * * * * * * * * * * * * * //

dimensions      [0 2 -2 0 0 0 0];

internalField   nonuniform List<scalar> 
7320
(
6.07652
5.55942
5.24732
5.04165
4.8942
4.78178
4.69211
4.61825
4.55602
4.50265
4.45625
4.41545
4.37924
4.34686
4.31771
4.29132
4.26733
4.24542
4.22534
4.20688
4.18987
4.17415
4.15959
4.14608
4.13352
4.12184
4.11095
4.10079
4.09131
4.08244
4.07415
4.0664
4.05914
4.05234
4.04597
4.04001
4.03442
4.0292
4.0243
4.01972
4.01544
4.01144
4.00771
4.00422
4.00098
3.99796
3.99515
3.99255
3.99013
3.98791
3.98585
3.98396
3.98223
3.98065
3.97921
3.97792
3.97675
3.9757
3.97478
3.97398
3.97328
3.97269
3.97221
3.97182
3.97153
3.97133
3.97122
3.97119
3.97125
3.97138
3.97159
3.97188
3.97224
3.97267
3.97317
3.97374
3.97437
3.97506
3.97581
3.97662
3.97749
3.97841
3.97939
3.98042
3.9815
3.98263
3.98381
3.98504
3.98631
3.98762
3.98898
3.99039
3.99183
3.99331
3.99484
3.9964
3.99799
3.99962
4.00129
4.00299
4.00472
4.00648
4.00827
4.01008
4.01192
4.01379
4.01568
4.01759
4.01951
4.02146
4.02342
4.02539
4.02737
4.02936
4.03136
4.03336
4.03537
4.03737
4.03937
4.04136
4.04329
4.04525
4.84215
5.67924
5.54001
5.36046
5.21715
5.10399
5.01225
4.93597
4.87129
4.81558
4.76697
4.72412
4.68601
4.65186
4.62109
4.59321
4.56782
4.54462
4.52335
4.50378
4.48573
4.46904
4.45358
4.43924
4.4259
4.41348
4.40191
4.39111
4.38103
4.37161
4.36279
4.35455
4.34683
4.3396
4.33284
4.3265
4.32057
4.31502
4.30982
4.30497
4.30043
4.29619
4.29224
4.28855
4.28512
4.28194
4.27898
4.27624
4.2737
4.27137
4.26921
4.26724
4.26543
4.26378
4.26229
4.26094
4.25973
4.25865
4.2577
4.25687
4.25616
4.25555
4.25506
4.25467
4.25438
4.25418
4.25408
4.25406
4.25413
4.25428
4.25452
4.25483
4.25521
4.25567
4.2562
4.2568
4.25746
4.25819
4.25899
4.25984
4.26075
4.26172
4.26275
4.26383
4.26496
4.26615
4.26738
4.26867
4.27
4.27138
4.2728
4.27427
4.27578
4.27732
4.27891
4.28054
4.28221
4.28391
4.28564
4.28741
4.28921
4.29104
4.2929
4.29479
4.2967
4.29864
4.30059
4.30257
4.30457
4.30659
4.30862
4.31066
4.31271
4.31477
4.31684
4.3189
4.32097
4.32304
4.32511
4.32716
4.32917
4.33115
3.59581
5.0514
5.15997
5.06781
4.96411
4.87324
4.79598
4.72999
4.67307
4.62344
4.57977
4.541
4.50635
4.47517
4.44698
4.42135
4.39797
4.37656
4.35689
4.33877
4.32204
4.30655
4.29219
4.27885
4.26644
4.25488
4.2441
4.23404
4.22464
4.21585
4.20763
4.19994
4.19275
4.18601
4.1797
4.1738
4.16827
4.1631
4.15827
4.15376
4.14955
4.14562
4.14196
4.13856
4.1354
4.13246
4.12975
4.12723
4.12492
4.12278
4.12083
4.11903
4.1174
4.11591
4.11457
4.11336
4.11228
4.11132
4.11047
4.10974
4.10911
4.10859
4.10816
4.10783
4.10758
4.10743
4.10735
4.10736
4.10744
4.1076
4.10783
4.10813
4.1085
4.10894
4.10944
4.11
4.11062
4.1113
4.11204
4.11283
4.11368
4.11458
4.11553
4.11653
4.11758
4.11867
4.11981
4.12099
4.12222
4.12349
4.12479
4.12614
4.12753
4.12895
4.13041
4.1319
4.13343
4.13498
4.13657
4.13819
4.13984
4.14151
4.14321
4.14493
4.14668
4.14844
4.15023
4.15203
4.15386
4.15569
4.15754
4.1594
4.16127
4.16314
4.16502
4.1669
4.16878
4.17067
4.17254
4.17441
4.17625
4.17802
2.74725
4.48339
4.83294
4.83938
4.78111
4.71517
4.65355
4.59832
4.54927
4.50567
4.46677
4.43188
4.40045
4.372
4.34614
4.32254
4.30093
4.28108
4.2628
4.24593
4.23032
4.21585
4.20241
4.18991
4.17828
4.16743
4.15731
4.14786
4.13902
4.13076
4.12303
4.1158
4.10903
4.10269
4.09676
4.09121
4.08602
4.08117
4.07664
4.07241
4.06847
4.0648
4.06139
4.05823
4.05529
4.05257
4.05006
4.04775
4.04562
4.04367
4.04188
4.04025
4.03877
4.03742
4.03621
4.03513
4.03416
4.03331
4.03257
4.03193
4.03138
4.03093
4.03057
4.0303
4.03011
4.03
4.02996
4.03
4.0301
4.03028
4.03052
4.03083
4.03119
4.03162
4.03211
4.03265
4.03325
4.03391
4.03462
4.03537
4.03618
4.03703
4.03794
4.03888
4.03987
4.04091
4.04198
4.0431
4.04426
4.04545
4.04668
4.04795
4.04925
4.05059
4.05196
4.05336
4.05479
4.05625
4.05773
4.05925
4.06079
4.06235
4.06394
4.06555
4.06718
4.06883
4.0705
4.07218
4.07388
4.07559
4.07731
4.07904
4.08078
4.08253
4.08428
4.08603
4.08779
4.08954
4.09129
4.09303
4.09475
4.09638
2.10346
3.90602
4.48941
4.61127
4.60898
4.57387
4.53133
4.489
4.44924
4.41265
4.37922
4.34873
4.32092
4.29549
4.27219
4.2508
4.23111
4.21295
4.19616
4.18061
4.16619
4.15279
4.14032
4.12871
4.11788
4.10777
4.09833
4.08951
4.08125
4.07353
4.0663
4.05954
4.05321
4.04728
4.04174
4.03655
4.03171
4.02718
4.02296
4.01903
4.01537
4.01196
4.00881
4.00588
4.00318
4.00069
3.99839
3.99628
3.99434
3.99258
3.99097
3.9895
3.98818
3.98699
3.98592
3.98497
3.98413
3.98339
3.98276
3.98222
3.98177
3.98141
3.98112
3.98092
3.98079
3.98074
3.98075
3.98084
3.98098
3.98119
3.98146
3.98178
3.98217
3.98261
3.9831
3.98365
3.98425
3.9849
3.98559
3.98634
3.98713
3.98796
3.98884
3.98976
3.99072
3.99172
3.99276
3.99383
3.99494
3.99609
3.99728
3.99849
3.99974
4.00102
4.00233
4.00367
4.00504
4.00643
4.00785
4.0093
4.01077
4.01226
4.01377
4.01531
4.01686
4.01843
4.02001
4.02161
4.02323
4.02485
4.02649
4.02814
4.02979
4.03145
4.03311
4.03478
4.03645
4.03811
4.03978
4.04144
4.04309
4.04461
1.61624
3.30894
4.10161
4.35522
4.42201
4.42574
4.40724
4.38106
4.35281
4.32483
4.29808
4.27292
4.24944
4.22762
4.20737
4.18859
4.17115
4.15496
4.13991
4.1259
4.11285
4.10069
4.08934
4.07874
4.06884
4.05958
4.05091
4.0428
4.03521
4.0281
4.02145
4.01521
4.00938
4.00392
3.99881
3.99404
3.98958
3.98542
3.98155
3.97794
3.9746
3.97149
3.96862
3.96597
3.96352
3.96128
3.95922
3.95733
3.95562
3.95406
3.95264
3.95137
3.95022
3.9492
3.9483
3.9475
3.9468
3.9462
3.9457
3.94528
3.94494
3.94468
3.9445
3.94438
3.94434
3.94436
3.94445
3.9446
3.9448
3.94506
3.94538
3.94575
3.94617
3.94664
3.94717
3.94774
3.94836
3.94902
3.94973
3.95048
3.95128
3.95211
3.95299
3.95391
3.95486
3.95585
3.95688
3.95794
3.95904
3.96017
3.96133
3.96252
3.96375
3.965
3.96628
3.96759
3.96892
3.97028
3.97167
3.97307
3.9745
3.97595
3.97742
3.97891
3.98042
3.98194
3.98348
3.98503
3.98659
3.98817
3.98975
3.99135
3.99295
3.99456
3.99617
3.99778
3.99939
4.00101
4.00262
4.00423
4.00584
4.0073
1.26812
2.7064
3.65726
4.05358
4.20386
4.25636
4.26838
4.26267
4.24897
4.23181
4.21339
4.19484
4.17674
4.15936
4.14285
4.12724
4.11255
4.09875
4.0858
4.07365
4.06226
4.05158
4.04157
4.03219
4.02339
4.01514
4.0074
4.00014
3.99333
3.98695
3.98097
3.97537
3.97012
3.96521
3.96062
3.95634
3.95234
3.94861
3.94514
3.94193
3.93895
3.93619
3.93365
3.93132
3.92918
3.92722
3.92544
3.92382
3.92235
3.92103
3.91985
3.9188
3.91786
3.91704
3.91632
3.9157
3.91518
3.91475
3.91439
3.91412
3.91392
3.91379
3.91373
3.91374
3.9138
3.91393
3.91411
3.91435
3.91464
3.91498
3.91537
3.9158
3.91629
3.91682
3.9174
3.91802
3.91868
3.91939
3.92013
3.92092
3.92175
3.92261
3.92351
3.92445
3.92543
3.92643
3.92748
3.92855
3.92966
3.9308
3.93196
3.93316
3.93439
3.93564
3.93692
3.93822
3.93955
3.9409
3.94228
3.94367
3.94509
3.94653
3.94798
3.94946
3.95095
3.95245
3.95397
3.9555
3.95705
3.9586
3.96016
3.96174
3.96331
3.9649
3.96648
3.96807
3.96966
3.97125
3.97284
3.97442
3.97601
3.97744
1.04443
2.13048
3.15609
3.69382
3.94125
4.05401
4.10457
4.12487
4.12967
4.12622
4.11833
4.1081
4.09673
4.0849
4.07304
4.06139
4.0501
4.03924
4.02888
4.01901
4.00966
4.0008
3.99243
3.98452
3.97707
3.97005
3.96343
3.95721
3.95136
3.94586
3.9407
3.93586
3.93133
3.92708
3.92311
3.91941
3.91596
3.91275
3.90978
3.90703
3.90449
3.90215
3.90001
3.89805
3.89627
3.89466
3.8932
3.8919
3.89073
3.8897
3.88879
3.88799
3.88731
3.88673
3.88624
3.88584
3.88553
3.88529
3.88513
3.88503
3.88501
3.88504
3.88514
3.88529
3.8855
3.88576
3.88607
3.88643
3.88683
3.88728
3.88777
3.88831
3.88889
3.8895
3.89016
3.89086
3.8916
3.89238
3.89319
3.89404
3.89492
3.89584
3.8968
3.89779
3.89881
3.89986
3.90094
3.90206
3.9032
3.90437
3.90557
3.9068
3.90805
3.90933
3.91063
3.91196
3.91331
3.91468
3.91608
3.91749
3.91892
3.92037
3.92184
3.92332
3.92482
3.92634
3.92786
3.9294
3.93095
3.93251
3.93407
3.93564
3.93722
3.9388
3.94039
3.94198
3.94356
3.94515
3.94674
3.94831
3.9499
3.95132
0.919762
1.62589
2.61278
3.26902
3.62244
3.80741
3.90596
3.95917
3.98746
4.00145
4.00694
4.00725
4.00438
3.99954
3.99351
3.98681
3.97976
3.97259
3.96544
3.95841
3.95158
3.94497
3.93862
3.93254
3.92675
3.92124
3.91601
3.91106
3.90638
3.90196
3.89781
3.8939
3.89023
3.8868
3.88359
3.8806
3.87782
3.87524
3.87287
3.87068
3.86867
3.86684
3.86518
3.86368
3.86233
3.86113
3.86007
3.85914
3.85834
3.85765
3.85707
3.85659
3.85621
3.85592
3.85571
3.85558
3.85552
3.85552
3.85559
3.85573
3.85591
3.85615
3.85645
3.85679
3.85718
3.85761
3.85808
3.8586
3.85916
3.85975
3.86038
3.86105
3.86175
3.86249
3.86327
3.86407
3.86492
3.86579
3.8667
3.86765
3.86862
3.86962
3.87066
3.87173
3.87282
3.87395
3.8751
3.87628
3.87749
3.87872
3.87998
3.88127
3.88257
3.8839
3.88526
3.88663
3.88803
3.88945
3.89088
3.89234
3.89381
3.8953
3.8968
3.89832
3.89985
3.90139
3.90295
3.90451
3.90609
3.90767
3.90926
3.91085
3.91245
3.91405
3.91565
3.91725
3.91885
3.92045
3.92205
3.92363
3.92524
3.92665
0.860369
1.23773
2.06198
2.78202
3.23846
3.50547
3.66218
3.75644
3.81442
3.85055
3.87304
3.88674
3.89464
3.89864
3.89999
3.89953
3.89781
3.89525
3.89213
3.88865
3.88496
3.88115
3.87732
3.87351
3.86978
3.86614
3.86262
3.85924
3.85601
3.85293
3.85001
3.84725
3.84465
3.84221
3.83994
3.83783
3.83587
3.83407
3.83242
3.83092
3.82956
3.82835
3.82727
3.82632
3.82551
3.82481
3.82423
3.82376
3.82339
3.82312
3.82295
3.82285
3.82284
3.8229
3.82303
3.82322
3.82347
3.82378
3.82414
3.82454
3.825
3.82549
3.82603
3.82661
3.82722
3.82787
3.82856
3.82928
3.83003
3.83081
3.83162
3.83246
3.83332
3.83422
3.83515
3.83611
3.83709
3.8381
3.83914
3.84021
3.84131
3.84243
3.84358
3.84476
3.84596
3.84718
3.84844
3.84971
3.85101
3.85233
3.85368
3.85505
3.85644
3.85785
3.85928
3.86073
3.86219
3.86368
3.86518
3.8667
3.86823
3.86978
3.87134
3.87291
3.8745
3.87609
3.8777
3.87931
3.88092
3.88255
3.88417
3.8858
3.88743
3.88907
3.8907
3.89233
3.89395
3.89557
3.89719
3.8988
3.90042
3.90185
0.836787
0.98815
1.55966
2.25312
2.7872
3.13869
3.36248
3.50657
3.60152
3.66555
3.70958
3.74027
3.76186
3.77709
3.78778
3.7952
3.80023
3.80349
3.80544
3.80641
3.80665
3.80636
3.80567
3.8047
3.80353
3.80223
3.80084
3.79941
3.79797
3.79655
3.79516
3.79382
3.79255
3.79134
3.79022
3.78919
3.78824
3.78739
3.78664
3.78598
3.78543
3.78497
3.78461
3.78434
3.78417
3.78409
3.7841
3.78419
3.78435
3.78459
3.78491
3.78528
3.78572
3.78621
3.78675
3.78734
3.78797
3.78865
3.78936
3.79011
3.79089
3.7917
3.79255
3.79342
3.79431
3.79524
3.79618
3.79716
3.79815
3.79917
3.8002
3.80126
3.80234
3.80344
3.80456
3.80571
3.80687
3.80806
3.80927
3.81051
3.81176
3.81304
3.81434
3.81565
3.817
3.81836
3.81974
3.82114
3.82256
3.82401
3.82547
3.82695
3.82845
3.82996
3.83149
3.83304
3.83461
3.83618
3.83778
3.83938
3.841
3.84263
3.84427
3.84591
3.84757
3.84923
3.8509
3.85258
3.85425
3.85593
3.85761
3.85929
3.86097
3.86264
3.86431
3.86598
3.86763
3.86928
3.87093
3.87255
3.87419
3.87564
0.830413
0.857509
1.16926
1.7285
2.28148
2.70333
2.99742
3.19899
3.33861
3.4372
3.50825
3.56042
3.59936
3.62883
3.65138
3.6688
3.68236
3.69298
3.70133
3.70791
3.71312
3.71725
3.72051
3.72309
3.72514
3.72675
3.72802
3.72903
3.72983
3.73047
3.73099
3.73142
3.73179
3.73211
3.73242
3.73272
3.73303
3.73335
3.73371
3.7341
3.73453
3.735
3.73552
3.73609
3.73672
3.73739
3.73812
3.73889
3.73972
3.74058
3.74149
3.74244
3.74343
3.74445
3.7455
3.74658
3.74768
3.74881
3.74995
3.75112
3.75231
3.75351
3.75473
3.75596
3.75721
3.75847
3.75974
3.76103
3.76233
3.76364
3.76496
3.76629
3.76763
3.76899
3.77036
3.77174
3.77314
3.77455
3.77597
3.77741
3.77887
3.78034
3.78183
3.78333
3.78485
3.78638
3.78793
3.78949
3.79107
3.79267
3.79428
3.7959
3.79753
3.79918
3.80085
3.80252
3.80421
3.8059
3.80761
3.80933
3.81105
3.81278
3.81452
3.81626
3.81801
3.81976
3.82151
3.82326
3.82501
3.82676
3.8285
3.83024
3.83197
3.8337
3.83542
3.83712
3.83882
3.8405
3.84217
3.84382
3.84548
3.84694
0.831632
0.801461
0.924682
1.27902
1.76057
2.20994
2.5635
2.82478
3.0153
3.15518
3.2594
3.33832
3.39906
3.44651
3.48408
3.51418
3.53856
3.5585
3.57496
3.58866
3.60014
3.60983
3.61808
3.62514
3.63123
3.63651
3.64112
3.64519
3.64879
3.65201
3.65491
3.65755
3.65996
3.66219
3.66428
3.66624
3.66811
3.6699
3.67162
3.67331
3.67495
3.67658
3.6782
3.6798
3.68141
3.68301
3.68463
3.68625
3.68788
3.68951
3.69116
3.69281
3.69448
3.69615
3.69782
3.6995
3.70118
3.70286
3.70454
3.70623
3.70791
3.70959
3.71127
3.71295
3.71463
3.71631
3.71798
3.71966
3.72133
3.72301
3.72468
3.72635
3.72802
3.7297
3.73137
3.73305
3.73473
3.73642
3.73811
3.73981
3.74152
3.74324
3.74496
3.74669
3.74843
3.75018
3.75193
3.7537
3.75547
3.75726
3.75905
3.76085
3.76266
3.76448
3.7663
3.76813
3.76997
3.77181
3.77366
3.77551
3.77737
3.77922
3.78108
3.78294
3.7848
3.78665
3.7885
3.79035
3.79219
3.79402
3.79584
3.79765
3.79945
3.80123
3.803
3.80475
3.80649
3.8082
3.8099
3.81157
3.81325
3.81473
0.835915
0.782667
0.803403
0.968303
1.29566
1.69673
2.07275
2.38225
2.62383
2.80953
2.95259
3.06386
3.15146
3.22133
3.27774
3.32383
3.3619
3.39365
3.42038
3.44308
3.46251
3.47926
3.4938
3.50652
3.51771
3.52762
3.53644
3.54435
3.55148
3.55794
3.56383
3.56923
3.57421
3.57883
3.58314
3.58718
3.59099
3.5946
3.59804
3.60133
3.6045
3.60756
3.61053
3.61342
3.61624
3.619
3.62171
3.62438
3.62701
3.6296
3.63215
3.63468
3.63718
3.63965
3.64209
3.64451
3.6469
3.64926
3.6516
3.65392
3.65622
3.65849
3.66074
3.66297
3.66518
3.66737
3.66954
3.6717
3.67384
3.67596
3.67807
3.68016
3.68224
3.6843
3.68636
3.6884
3.69044
3.69247
3.6945
3.69652
3.69854
3.70055
3.70257
3.70458
3.70659
3.70861
3.71062
3.71264
3.71465
3.71667
3.71869
3.72071
3.72273
3.72475
3.72678
3.7288
3.73082
3.73285
3.73487
3.73689
3.7389
3.74091
3.74292
3.74491
3.7469
3.74889
3.75086
3.75282
3.75476
3.75669
3.7586
3.7605
3.76237
3.76422
3.76605
3.76785
3.76963
3.77138
3.77311
3.7748
3.77648
3.77798
0.841165
0.780282
0.755
0.801817
0.962762
1.23783
1.56799
1.88853
2.16639
2.39488
2.57903
2.72692
2.8462
2.94318
3.02278
3.08874
3.14394
3.19054
3.23023
3.26431
3.29378
3.31946
3.34199
3.36186
3.37951
3.39527
3.40941
3.42217
3.43375
3.4443
3.45396
3.46284
3.47105
3.47867
3.48577
3.49241
3.49866
3.50455
3.51014
3.51545
3.52051
3.52536
3.53002
3.53451
3.53885
3.54305
3.54713
3.55109
3.55496
3.55873
3.56242
3.56602
3.56956
3.57302
3.57641
3.57974
3.58301
3.58622
3.58937
3.59247
3.59552
3.59852
3.60147
3.60438
3.60725
3.61007
3.61286
3.6156
3.61831
3.62099
3.62364
3.62625
3.62883
3.63138
3.63391
3.6364
3.63888
3.64134
3.64377
3.64619
3.64859
3.65098
3.65336
3.65572
3.65807
3.66041
3.66274
3.66507
3.66738
3.66969
3.67198
3.67427
3.67656
3.67883
3.6811
3.68336
3.68561
3.68785
3.69008
3.6923
3.69451
3.69671
3.6989
3.70106
3.70322
3.70535
3.70747
3.70956
3.71163
3.71368
3.7157
3.71769
3.71966
3.72159
3.72349
3.72535
3.72718
3.72897
3.73072
3.73243
3.73413
3.73564
0.846372
0.784571
0.740866
0.731421
0.780818
0.913761
1.13036
1.39676
1.66969
1.92048
2.13792
2.32135
2.47447
2.60211
2.70889
2.79873
2.87484
2.93979
2.99561
3.04393
3.08604
3.12297
3.15556
3.18449
3.2103
3.23346
3.25433
3.27324
3.29044
3.30615
3.32057
3.33385
3.34614
3.35754
3.36816
3.37809
3.3874
3.39616
3.40444
3.41228
3.41973
3.42683
3.43361
3.4401
3.44634
3.45234
3.45812
3.46372
3.46913
3.47437
3.47947
3.48442
3.48923
3.49393
3.4985
3.50296
3.50732
3.51158
3.51574
3.51981
3.52379
3.52769
3.53152
3.53526
3.53894
3.54255
3.54609
3.54956
3.55298
3.55634
3.55965
3.56291
3.56611
3.56926
3.57237
3.57543
3.57845
3.58143
3.58437
3.58728
3.59016
3.59301
3.59583
3.59863
3.6014
3.60414
3.60686
3.60957
3.61225
3.61491
3.61755
3.62018
3.62278
3.62537
3.62794
3.63048
3.63302
3.63553
3.63802
3.64049
3.64294
3.64536
3.64777
3.65014
3.65249
3.65481
3.65711
3.65937
3.66159
3.66378
3.66594
3.66805
3.67012
3.67215
3.67414
3.67607
3.67796
3.6798
3.68159
3.68332
3.68503
3.68656
0.851011
0.791143
0.741126
0.708367
0.70346
0.741579
0.838108
0.996907
1.20263
1.4285
1.65059
1.85477
2.03555
2.19259
2.3279
2.44426
2.54449
2.63115
2.70642
2.77214
2.82983
2.88074
2.9259
2.96617
3.00225
3.03473
3.0641
3.09076
3.11507
3.13732
3.15776
3.1766
3.19404
3.21022
3.22529
3.23937
3.25255
3.26495
3.27662
3.28765
3.2981
3.30803
3.31748
3.3265
3.33512
3.34338
3.35131
3.35894
3.36629
3.37339
3.38024
3.38688
3.3933
3.39953
3.40558
3.41146
3.41717
3.42273
3.42815
3.43342
3.43857
3.44359
3.44849
3.45328
3.45796
3.46254
3.46701
3.4714
3.47569
3.4799
3.48403
3.48808
3.49205
3.49595
3.49978
3.50354
3.50723
3.51086
3.51444
3.51796
3.52143
3.52485
3.52822
3.53155
3.53484
3.53809
3.5413
3.54447
3.54761
3.55071
3.55378
3.55682
3.55982
3.56279
3.56574
3.56864
3.57152
3.57437
3.57718
3.57996
3.5827
3.58541
3.58809
3.59072
3.59332
3.59587
3.59838
3.60085
3.60327
3.60564
3.60796
3.61022
3.61243
3.61458
3.61667
3.6187
3.62067
3.62257
3.62441
3.62618
3.6279
3.62946
0.854799
0.797919
0.746862
0.705362
0.677885
0.670753
0.692779
0.753704
0.85933
1.00619
1.18133
1.368
1.55204
1.72458
1.88152
2.02185
2.14624
2.2561
2.35311
2.43889
2.51496
2.58263
2.64307
2.69726
2.74602
2.79009
2.83005
2.86643
2.89967
2.93014
2.95816
2.98402
3.00796
3.03019
3.05088
3.0702
3.08829
3.10526
3.12124
3.1363
3.15055
3.16405
3.17687
3.18907
3.20071
3.21182
3.22246
3.23266
3.24245
3.25187
3.26094
3.26969
3.27814
3.2863
3.2942
3.30184
3.30926
3.31645
3.32343
3.33022
3.33681
3.34323
3.34948
3.35557
3.3615
3.36728
3.37293
3.37844
3.38383
3.38909
3.39424
3.39928
3.40421
3.40903
3.41376
3.41838
3.42292
3.42736
3.43172
3.43601
3.44021
3.44435
3.44841
3.45241
3.45634
3.46022
3.46403
3.46779
3.4715
3.47515
3.47875
3.4823
3.48581
3.48926
3.49266
3.49602
3.49933
3.50259
3.50581
3.50897
3.51208
3.51515
3.51816
3.52112
3.52402
3.52687
3.52966
3.53238
3.53504
3.53764
3.54017
3.54263
3.54501
3.54732
3.54956
3.55171
3.55378
3.55577
3.55768
3.5595
3.56126
3.56285
0.857613
0.803838
0.754023
0.710069
0.674015
0.648368
0.636594
0.64348
0.674826
0.73588
0.828724
0.950233
1.09243
1.24518
1.3992
1.54781
1.68713
1.81538
1.93217
2.03791
2.13338
2.21952
2.29731
2.36767
2.43146
2.48942
2.54224
2.59051
2.63474
2.67539
2.71286
2.74748
2.77956
2.80937
2.83713
2.86305
2.88731
2.91008
2.93148
2.95164
2.97069
2.98871
3.00579
3.02202
3.03746
3.05219
3.06625
3.07969
3.09258
3.10493
3.1168
3.12822
3.13921
3.1498
3.16003
3.16991
3.17946
3.1887
3.19765
3.20633
3.21475
3.22292
3.23085
3.23857
3.24607
3.25337
3.26047
3.2674
3.27415
3.28073
3.28715
3.29342
3.29954
3.30553
3.31137
3.31709
3.32267
3.32814
3.33348
3.33872
3.34384
3.34887
3.3538
3.35863
3.36338
3.36804
3.37261
3.37711
3.38153
3.38587
3.39014
3.39433
3.39846
3.40251
3.4065
3.41042
3.41428
3.41806
3.42178
3.42543
3.42901
3.43252
3.43596
3.43933
3.44262
3.44584
3.44898
3.45203
3.45501
3.4579
3.4607
3.46341
3.46603
3.46855
3.47097
3.47329
3.47551
3.47762
3.47963
3.48153
3.48336
3.48501
0.859482
0.808378
0.760626
0.716973
0.678334
0.645749
0.620512
0.604371
0.599722
0.609658
0.637654
0.686738
0.758295
0.851094
0.961178
1.08279
1.20982
1.33698
1.46042
1.57773
1.68765
1.78972
1.88396
1.9707
2.05043
2.12369
2.19104
2.25304
2.31019
2.36296
2.41179
2.45704
2.49909
2.53822
2.57472
2.60884
2.64079
2.67078
2.69898
2.72554
2.75062
2.77433
2.79678
2.81809
2.83835
2.85763
2.87601
2.89356
2.91034
2.92641
2.94182
2.9566
2.97082
2.98449
2.99766
3.01035
3.0226
3.03443
3.04587
3.05693
3.06764
3.07802
3.08808
3.09784
3.10731
3.11651
3.12545
3.13415
3.14261
3.15084
3.15887
3.16668
3.1743
3.18174
3.18899
3.19607
3.20297
3.20972
3.2163
3.22273
3.22902
3.23517
3.24119
3.24707
3.25284
3.25849
3.26402
3.26944
3.27475
3.27996
3.28507
3.29008
3.295
3.29981
3.30454
3.30917
3.31371
3.31816
3.32251
3.32678
3.33095
3.33503
3.33902
3.34291
3.3467
3.35039
3.35398
3.35746
3.36084
3.36411
3.36727
3.37031
3.37323
3.37603
3.37871
3.38126
3.38368
3.38598
3.38814
3.39017
3.39209
3.39385
0.860565
0.811411
0.765711
0.723439
0.684828
0.650242
0.620147
0.595142
0.57603
0.563904
0.56022
0.566795
0.585676
0.618805
0.66751
0.731993
0.811019
0.902008
1.00149
1.10577
1.21146
1.31586
1.41705
1.51381
1.60547
1.69173
1.77257
1.84814
1.91867
1.98447
2.04585
2.10314
2.15665
2.20669
2.25354
2.29747
2.3387
2.37747
2.41398
2.44841
2.48093
2.51169
2.54083
2.56847
2.59473
2.61972
2.64352
2.66623
2.68792
2.70867
2.72853
2.74757
2.76584
2.7834
2.80028
2.81653
2.83219
2.84729
2.86186
2.87594
2.88954
2.9027
2.91544
2.92778
2.93974
2.95134
2.9626
2.97353
2.98415
2.99447
3.0045
3.01427
3.02377
3.03303
3.04205
3.05084
3.05941
3.06777
3.07592
3.08386
3.09162
3.09918
3.10657
3.11379
3.12085
3.12774
3.13448
3.14108
3.14753
3.15384
3.16001
3.16605
3.17196
3.17775
3.18341
3.18894
3.19436
3.19965
3.20482
3.20987
3.21479
3.2196
3.22428
3.22884
3.23327
3.23758
3.24175
3.24579
3.24969
3.25345
3.25707
3.26055
3.26388
3.26706
3.27008
3.27295
3.27565
3.2782
3.28059
3.28281
3.28491
3.28682
0.861099
0.813133
0.76901
0.728261
0.690673
0.656203
0.624916
0.596953
0.57254
0.551996
0.535764
0.524447
0.518835
0.519919
0.528854
0.546863
0.575059
0.614217
0.66454
0.725513
0.795886
0.87382
0.957144
1.04364
1.13129
1.21842
1.30375
1.3864
1.4658
1.54163
1.61374
1.68211
1.74682
1.80798
1.86576
1.92032
1.97187
2.02058
2.06665
2.11024
2.15154
2.19069
2.22784
2.26313
2.2967
2.32866
2.35912
2.38819
2.41595
2.4425
2.46791
2.49225
2.5156
2.53801
2.55955
2.58026
2.6002
2.6194
2.63792
2.65579
2.67304
2.68971
2.70582
2.72142
2.73651
2.75114
2.76531
2.77906
2.7924
2.80535
2.81793
2.83015
2.84204
2.8536
2.86484
2.87579
2.88646
2.89684
2.90696
2.91683
2.92644
2.93581
2.94494
2.95385
2.96254
2.97102
2.97929
2.98738
2.99527
3.00298
3.0105
3.01786
3.02504
3.03206
3.03891
3.04559
3.05212
3.05849
3.0647
3.07075
3.07665
3.08238
3.08796
3.09338
3.09863
3.10373
3.10865
3.11341
3.11799
3.1224
3.12664
3.13069
3.13456
3.13824
3.14173
3.14502
3.14813
3.15103
3.15374
3.15625
3.1586
3.16075
0.861317
0.813942
0.770775
0.731184
0.694718
0.661081
0.630095
0.601662
0.575754
0.552397
0.531673
0.513721
0.498751
0.487049
0.478999
0.475087
0.475905
0.482135
0.494503
0.513717
0.540366
0.574817
0.61712
0.666952
0.723609
0.786067
0.853078
0.923306
0.995439
1.06829
1.14087
1.21238
1.28223
1.35001
1.41546
1.47842
1.53882
1.59665
1.65193
1.70473
1.75513
1.80323
1.84912
1.89293
1.93475
1.9747
2.01289
2.0494
2.08434
2.1178
2.14987
2.18061
2.21012
2.23846
2.26569
2.29188
2.3171
2.34138
2.36479
2.38736
2.40915
2.43019
2.45052
2.47018
2.4892
2.50762
2.52545
2.54273
2.55949
2.57574
2.59152
2.60684
2.62172
2.63617
2.65023
2.6639
2.6772
2.69015
2.70275
2.71503
2.72698
2.73863
2.74998
2.76103
2.77179
2.78229
2.79252
2.80249
2.81222
2.82171
2.83096
2.83999
2.84879
2.85737
2.86574
2.8739
2.88185
2.8896
2.89714
2.90448
2.91161
2.91854
2.92527
2.93179
2.93811
2.94422
2.95012
2.95581
2.96128
2.96654
2.97157
2.97638
2.98096
2.9853
2.98942
2.9933
2.99694
3.00034
3.0035
3.00642
3.00914
3.01164
0.861389
0.814244
0.77153
0.732597
0.696917
0.664079
0.633769
0.605753
0.579862
0.555979
0.53403
0.513979
0.495828
0.479611
0.4654
0.453308
0.443493
0.436161
0.431574
0.430052
0.431968
0.437737
0.4478
0.462585
0.482476
0.507758
0.538577
0.574904
0.616511
0.662979
0.713718
0.768009
0.825062
0.884071
0.944262
1.00494
1.06549
1.12543
1.18437
1.24202
1.29818
1.35271
1.40552
1.45657
1.50585
1.55337
1.59915
1.64323
1.68566
1.7265
1.7658
1.80363
1.84005
1.87512
1.90891
1.94147
1.97286
2.00314
2.03235
2.06056
2.0878
2.11412
2.13957
2.16418
2.188
2.21105
2.23338
2.25502
2.276
2.29635
2.31609
2.33525
2.35386
2.37193
2.38949
2.40657
2.42317
2.43932
2.45503
2.47032
2.48521
2.49971
2.51384
2.52759
2.54099
2.55404
2.56674
2.57912
2.59118
2.60292
2.61437
2.62552
2.63638
2.64696
2.65727
2.6673
2.67707
2.68657
2.69581
2.70479
2.71351
2.72197
2.73018
2.73812
2.7458
2.75322
2.76038
2.76726
2.77388
2.78023
2.7863
2.7921
2.79761
2.80284
2.80778
2.81243
2.8168
2.82087
2.82465
2.82814
2.83138
2.83438
0.861406
0.814329
0.771776
0.733121
0.697834
0.665476
0.635686
0.608168
0.582682
0.559037
0.53708
0.516692
0.497782
0.480288
0.464168
0.449403
0.435996
0.423969
0.413369
0.404262
0.396745
0.390937
0.38699
0.385084
0.385432
0.38827
0.393857
0.40246
0.414344
0.429748
0.448872
0.471851
0.49874
0.5295
0.563988
0.601963
0.643091
0.686965
0.733129
0.781098
0.830388
0.880534
0.931109
0.981737
1.03209
1.08191
1.13099
1.17916
1.2263
1.27233
1.3172
1.36087
1.40331
1.44454
1.48456
1.52337
1.56101
1.59748
1.63284
1.66709
1.70029
1.73246
1.76363
1.79386
1.82316
1.85158
1.87914
1.90589
1.93185
1.95705
1.98152
2.00529
2.02838
2.05082
2.07264
2.09385
2.11448
2.13455
2.15407
2.17308
2.19158
2.2096
2.22715
2.24424
2.26089
2.27712
2.29292
2.30831
2.32329
2.33788
2.35208
2.36591
2.37937
2.39247
2.40522
2.41763
2.42969
2.44142
2.45281
2.46387
2.4746
2.485
2.49508
2.50482
2.51424
2.52333
2.53208
2.54051
2.54859
2.55634
2.56375
2.57082
2.57753
2.58391
2.58993
2.5956
2.60092
2.60588
2.6105
2.61477
2.61874
2.62242
0.861407
0.814342
0.77183
0.73326
0.698113
0.665954
0.636417
0.609191
0.584014
0.560665
0.538959
0.518737
0.499869
0.482247
0.46578
0.450397
0.43604
0.422666
0.410246
0.398762
0.388209
0.378592
0.36993
0.362255
0.355609
0.350053
0.345657
0.342512
0.340722
0.340409
0.341708
0.344772
0.349758
0.356833
0.366159
0.377891
0.392166
0.409094
0.428749
0.451163
0.476319
0.504144
0.534518
0.567266
0.602173
0.638985
0.677426
0.717205
0.758027
0.799606
0.84167
0.88397
0.926284
0.96842
1.01021
1.05153
1.09227
1.13234
1.17168
1.21025
1.24801
1.28494
1.32103
1.35627
1.39067
1.42423
1.45695
1.48885
1.51994
1.55023
1.57974
1.60849
1.63649
1.66377
1.69034
1.71622
1.74143
1.766
1.78994
1.81327
1.836
1.85816
1.87976
1.90081
1.92134
1.94135
1.96085
1.97986
1.99839
2.01645
2.03402
2.05113
2.06779
2.08399
2.09975
2.11508
2.12998
2.14445
2.15851
2.17215
2.18538
2.1982
2.2106
2.2226
2.23418
2.24535
2.25611
2.26645
2.27638
2.28589
2.29499
2.30366
2.31191
2.31973
2.32714
2.33412
2.34068
2.34682
2.35255
2.35786
2.3628
2.36742
0.861405
0.814337
0.771831
0.733277
0.698164
0.666062
0.636607
0.60949
0.584448
0.561253
0.53971
0.519653
0.500935
0.483431
0.467033
0.451647
0.437194
0.423603
0.410816
0.398785
0.387468
0.376832
0.366852
0.357508
0.348789
0.340687
0.333204
0.326348
0.32013
0.314572
0.309702
0.305553
0.30217
0.299604
0.297914
0.29717
0.297449
0.298836
0.301424
0.305312
0.310601
0.317394
0.325791
0.335887
0.347768
0.361503
0.377148
0.394735
0.414271
0.435738
0.459092
0.484259
0.51114
0.539612
0.569531
0.60074
0.633066
0.666332
0.70036
0.734975
0.770007
0.805297
0.840702
0.876088
0.911342
0.946362
0.981066
1.01538
1.04925
1.08264
1.11549
1.1478
1.17954
1.21069
1.24125
1.27122
1.30058
1.32934
1.3575
1.38507
1.41204
1.43842
1.46422
1.48944
1.51408
1.53816
1.56168
1.58465
1.60707
1.62895
1.65031
1.67114
1.69144
1.71121
1.73046
1.74918
1.76739
1.78508
1.80227
1.81895
1.83513
1.85081
1.86598
1.88065
1.89483
1.90849
1.92166
1.93432
1.94648
1.95814
1.96929
1.97994
1.99008
1.99973
2.00887
2.01752
2.02567
2.03334
2.04052
2.04723
2.05351
2.05941
0.861402
0.814329
0.77182
0.733266
0.698157
0.666065
0.636627
0.609537
0.584532
0.561385
0.539902
0.519913
0.50127
0.483846
0.467525
0.45221
0.437813
0.424257
0.411474
0.399403
0.387993
0.377196
0.366972
0.357284
0.348103
0.339402
0.331157
0.323351
0.315968
0.308997
0.302429
0.296259
0.290486
0.285112
0.280141
0.275581
0.271445
0.267749
0.264512
0.261758
0.259514
0.257814
0.256693
0.256195
0.256366
0.257257
0.258922
0.261422
0.264817
0.269171
0.27455
0.281016
0.288632
0.297455
0.307537
0.318924
0.331652
0.345745
0.361217
0.378066
0.396279
0.415826
0.436665
0.458737
0.481974
0.506292
0.531601
0.557801
0.584786
0.612449
0.640679
0.669367
0.698406
0.727693
0.757133
0.786635
0.816116
0.845503
0.874729
0.903736
0.932474
0.960898
0.988974
1.01667
1.04396
1.07082
1.09724
1.12321
1.1487
1.17372
1.19824
1.22228
1.24581
1.26885
1.29137
1.31337
1.33483
1.35574
1.3761
1.3959
1.41515
1.43383
1.45196
1.46951
1.4865
1.50292
1.51877
1.53405
1.54876
1.5629
1.57648
1.58949
1.60194
1.61384
1.62518
1.63599
1.64625
1.65598
1.66518
1.67388
1.6821
1.68991
0.8614
0.814321
0.77181
0.733253
0.698143
0.66605
0.636614
0.609527
0.584528
0.561391
0.53992
0.519948
0.501326
0.483926
0.467634
0.45235
0.437986
0.424462
0.411709
0.399665
0.388273
0.377484
0.367254
0.35754
0.348309
0.339526
0.331164
0.323195
0.315596
0.308347
0.301429
0.294824
0.288519
0.282502
0.27676
0.271286
0.266072
0.261112
0.256403
0.251941
0.247725
0.243758
0.24004
0.236576
0.233372
0.230436
0.227778
0.225408
0.223342
0.221594
0.220183
0.21913
0.218458
0.218193
0.218362
0.218998
0.220133
0.221802
0.224043
0.226894
0.230396
0.234588
0.239511
0.245205
0.251707
0.259055
0.26728
0.276412
0.286474
0.297487
0.309462
0.322406
0.336316
0.351185
0.366994
0.383719
0.401327
0.419779
0.439027
0.459019
0.479694
0.500991
0.522842
0.545178
0.567926
0.591016
0.614375
0.637933
0.661622
0.685375
0.709131
0.732829
0.756417
0.779843
0.803062
0.826032
0.848724
0.871101
0.893126
0.914764
0.93599
0.956786
0.977135
0.997022
1.01644
1.03537
1.05382
1.07177
1.08922
1.10617
1.12262
1.13856
1.15399
1.16892
1.18335
1.19727
1.21069
1.22361
1.23604
1.24799
1.25947
1.2705
0.861399
0.814317
0.771804
0.733245
0.698133
0.666039
0.636602
0.609515
0.584516
0.561379
0.53991
0.51994
0.501322
0.483926
0.46764
0.452363
0.438006
0.424492
0.411749
0.399716
0.388335
0.377557
0.367336
0.357631
0.348405
0.339624
0.331258
0.323279
0.315662
0.308383
0.301421
0.294758
0.288376
0.282259
0.276392
0.270762
0.265357
0.260167
0.25518
0.250389
0.245786
0.241362
0.237113
0.233033
0.229117
0.225362
0.221765
0.218323
0.215035
0.211902
0.208922
0.206098
0.203431
0.200924
0.198581
0.196408
0.194408
0.192591
0.190962
0.189532
0.188311
0.18731
0.186542
0.186022
0.185764
0.185786
0.186107
0.186746
0.187725
0.189066
0.190793
0.192932
0.195509
0.198549
0.202081
0.206132
0.210729
0.215898
0.221667
0.228059
0.235099
0.242806
0.251199
0.260293
0.270101
0.280629
0.291883
0.303861
0.316558
0.329963
0.344062
0.358833
0.374252
0.390291
0.406914