/*--------------------------------*- C++ -*----------------------------------*\
  =========                 |
  \\      /  F ield         | OpenFOAM: The Open Source CFD Toolbox
   \\    /   O peration     | Website:  https://openfoam.org
    \\  /    A nd           | Version:  8
     \\/     M anipulation  |
\*---------------------------------------------------------------------------*/
FoamFile
{
    version     2.0;
    format      ascii;
    class       volScalarField;
    location    "650";
    object      nut;
}
// * * * * * * * * * * * * * * * * * * * * * * * * * * * * * * * * * * * * * //

dimensions      [0 2 -1 0 0 0 0];

internalField   nonuniform List<scalar> 
7320
(
0.000286299
0.000273847
0.000266049
0.000260783
0.000256941
0.000253973
0.00025158
0.000249592
0.000247905
0.000246449
0.000245176
0.000244051
0.000243048
0.000242148
0.000241334
0.000240596
0.000239922
0.000239306
0.000238739
0.000238217
0.000237735
0.000237288
0.000236874
0.000236489
0.000236131
0.000235797
0.000235485
0.000235194
0.000234922
0.000234667
0.000234429
0.000234206
0.000233997
0.000233801
0.000233617
0.000233445
0.000233283
0.000233132
0.000232991
0.000232858
0.000232734
0.000232619
0.00023251
0.000232409
0.000232315
0.000232228
0.000232147
0.000232071
0.000232002
0.000231937
0.000231878
0.000231823
0.000231773
0.000231727
0.000231686
0.000231648
0.000231615
0.000231585
0.000231558
0.000231535
0.000231515
0.000231498
0.000231484
0.000231472
0.000231464
0.000231458
0.000231455
0.000231454
0.000231455
0.000231459
0.000231465
0.000231473
0.000231483
0.000231496
0.00023151
0.000231526
0.000231544
0.000231563
0.000231585
0.000231608
0.000231633
0.000231659
0.000231687
0.000231716
0.000231747
0.000231779
0.000231813
0.000231847
0.000231884
0.000231921
0.00023196
0.000231999
0.00023204
0.000232083
0.000232126
0.00023217
0.000232215
0.000232262
0.000232309
0.000232357
0.000232406
0.000232456
0.000232506
0.000232558
0.00023261
0.000232662
0.000232716
0.00023277
0.000232824
0.000232879
0.000232934
0.00023299
0.000233046
0.000233102
0.000233158
0.000233214
0.00023327
0.000233327
0.000233383
0.000233439
0.000233493
0.000233548
0.000562815
0.000740638
0.000767571
0.000767651
0.000763096
0.000757975
0.000753148
0.000748779
0.000744861
0.00074135
0.000738193
0.000735345
0.000732764
0.000730416
0.000728271
0.000726307
0.000724501
0.000722838
0.000721301
0.000719879
0.00071856
0.000717334
0.000716194
0.000715131
0.00071414
0.000713215
0.00071235
0.000711541
0.000710785
0.000710076
0.000709413
0.000708791
0.000708209
0.000707664
0.000707154
0.000706676
0.000706229
0.000705811
0.000705421
0.000705057
0.000704718
0.000704403
0.00070411
0.000703838
0.000703586
0.000703354
0.000703139
0.000702942
0.000702761
0.000702595
0.000702444
0.000702306
0.000702181
0.000702068
0.000701967
0.000701877
0.000701796
0.000701726
0.000701665
0.000701612
0.000701568
0.000701532
0.000701503
0.000701482
0.000701467
0.000701459
0.000701458
0.000701463
0.000701473
0.000701489
0.000701511
0.000701538
0.000701571
0.000701608
0.00070165
0.000701698
0.000701749
0.000701806
0.000701866
0.000701931
0.000702001
0.000702074
0.000702151
0.000702231
0.000702316
0.000702404
0.000702496
0.00070259
0.000702689
0.00070279
0.000702894
0.000703002
0.000703112
0.000703225
0.00070334
0.000703458
0.000703579
0.000703702
0.000703827
0.000703954
0.000704084
0.000704215
0.000704348
0.000704483
0.00070462
0.000704757
0.000704897
0.000705037
0.000705179
0.000705321
0.000705465
0.000705609
0.000705754
0.000705899
0.000706044
0.00070619
0.000706335
0.00070648
0.000706625
0.000706769
0.000706913
0.000707042
0.00076108
0.00115457
0.00127125
0.00130573
0.00131552
0.00131688
0.00131508
0.00131204
0.00130855
0.00130497
0.00130147
0.00129811
0.00129493
0.00129193
0.00128913
0.0012865
0.00128405
0.00128176
0.00127961
0.00127761
0.00127574
0.00127398
0.00127234
0.0012708
0.00126936
0.00126801
0.00126674
0.00126555
0.00126444
0.0012634
0.00126242
0.0012615
0.00126065
0.00125984
0.00125909
0.00125839
0.00125774
0.00125713
0.00125656
0.00125604
0.00125555
0.0012551
0.00125469
0.00125431
0.00125396
0.00125365
0.00125336
0.00125309
0.00125286
0.00125265
0.00125246
0.00125229
0.00125214
0.00125201
0.00125189
0.00125179
0.00125171
0.00125164
0.00125158
0.00125153
0.0012515
0.00125148
0.00125147
0.00125146
0.00125147
0.00125148
0.00125151
0.00125154
0.00125158
0.00125163
0.00125168
0.00125174
0.00125181
0.00125189
0.00125197
0.00125206
0.00125215
0.00125225
0.00125236
0.00125248
0.0012526
0.00125272
0.00125285
0.00125299
0.00125313
0.00125327
0.00125342
0.00125358
0.00125374
0.0012539
0.00125407
0.00125424
0.00125442
0.0012546
0.00125479
0.00125497
0.00125516
0.00125536
0.00125556
0.00125576
0.00125596
0.00125616
0.00125637
0.00125658
0.00125679
0.00125701
0.00125722
0.00125744
0.00125766
0.00125788
0.0012581
0.00125832
0.00125855
0.00125877
0.00125899
0.00125922
0.00125944
0.00125967
0.00125989
0.00126011
0.00126034
0.00126052
0.00094219
0.00154866
0.00180331
0.00190635
0.0019512
0.00197187
0.00198147
0.00198555
0.00198668
0.00198617
0.00198472
0.00198276
0.00198051
0.00197813
0.00197571
0.00197331
0.00197095
0.00196867
0.00196648
0.00196438
0.00196238
0.00196047
0.00195867
0.00195695
0.00195534
0.00195381
0.00195237
0.00195101
0.00194973
0.00194853
0.0019474
0.00194634
0.00194535
0.00194442
0.00194356
0.00194276
0.00194201
0.00194132
0.00194069
0.00194011
0.00193957
0.00193909
0.00193865
0.00193825
0.0019379
0.00193759
0.00193731
0.00193707
0.00193686
0.00193669
0.00193654
0.00193642
0.00193632
0.00193624
0.00193619
0.00193615
0.00193613
0.00193613
0.00193614
0.00193616
0.0019362
0.00193625
0.0019363
0.00193637
0.00193645
0.00193654
0.00193664
0.00193674
0.00193686
0.00193698
0.0019371
0.00193724
0.00193738
0.00193753
0.00193769
0.00193785
0.00193803
0.00193821
0.00193839
0.00193858
0.00193878
0.00193899
0.0019392
0.00193942
0.00193964
0.00193987
0.0019401
0.00194035
0.00194059
0.00194084
0.0019411
0.00194136
0.00194163
0.0019419
0.00194217
0.00194245
0.00194273
0.00194302
0.00194331
0.0019436
0.0019439
0.00194419
0.0019445
0.0019448
0.0019451
0.00194541
0.00194572
0.00194603
0.00194635
0.00194666
0.00194697
0.00194729
0.00194761
0.00194792
0.00194824
0.00194856
0.00194887
0.00194919
0.00194951
0.00194982
0.00195014
0.00195038
0.00110978
0.00189233
0.00232606
0.0025368
0.00264438
0.00270313
0.00273713
0.00275765
0.00277031
0.00277817
0.00278296
0.00278574
0.00278718
0.00278769
0.00278758
0.00278703
0.00278618
0.00278514
0.00278397
0.00278273
0.00278144
0.00278014
0.00277885
0.00277758
0.00277634
0.00277515
0.002774
0.0027729
0.00277185
0.00277086
0.00276992
0.00276905
0.00276822
0.00276746
0.00276675
0.00276609
0.0027655
0.00276496
0.00276447
0.00276404
0.00276366
0.00276333
0.00276305
0.00276282
0.00276264
0.0027625
0.0027624
0.00276234
0.00276231
0.00276232
0.00276236
0.00276243
0.00276252
0.00276263
0.00276277
0.00276292
0.00276308
0.00276326
0.00276346
0.00276366
0.00276387
0.00276409
0.00276432
0.00276456
0.0027648
0.00276505
0.00276531
0.00276557
0.00276584
0.00276611
0.00276638
0.00276666
0.00276695
0.00276724
0.00276754
0.00276784
0.00276815
0.00276847
0.00276879
0.00276912
0.00276945
0.00276979
0.00277014
0.00277049
0.00277084
0.00277121
0.00277157
0.00277195
0.00277233
0.00277271
0.0027731
0.00277349
0.00277389
0.00277429
0.00277469
0.0027751
0.00277552
0.00277593
0.00277635
0.00277677
0.0027772
0.00277762
0.00277805
0.00277848
0.00277892
0.00277935
0.00277979
0.00278022
0.00278066
0.00278109
0.00278153
0.00278197
0.0027824
0.00278284
0.00278327
0.00278371
0.00278414
0.00278458
0.00278501
0.00278544
0.00278588
0.00278618
0.00129926
0.00216764
0.00280717
0.00316585
0.00336954
0.00349116
0.00356775
0.00361825
0.00365279
0.00367709
0.00369457
0.00370734
0.00371679
0.00372385
0.00372913
0.0037331
0.00373607
0.00373829
0.00373993
0.00374111
0.00374196
0.00374253
0.0037429
0.00374312
0.00374321
0.00374322
0.00374316
0.00374305
0.00374292
0.00374277
0.00374262
0.00374247
0.00374234
0.00374222
0.00374212
0.00374205
0.00374201
0.00374201
0.00374204
0.00374211
0.00374223
0.00374238
0.00374257
0.00374281
0.00374309
0.0037434
0.00374375
0.00374413
0.00374454
0.00374498
0.00374545
0.00374593
0.00374644
0.00374696
0.00374749
0.00374803
0.00374858
0.00374913
0.00374969
0.00375025
0.00375081
0.00375137
0.00375193
0.00375249
0.00375305
0.0037536
0.00375416
0.00375471
0.00375526
0.00375581
0.00375636
0.0037569
0.00375745
0.00375799
0.00375854
0.00375909
0.00375964
0.00376019
0.00376074
0.0037613
0.00376186
0.00376242
0.00376298
0.00376355
0.00376412
0.0037647
0.00376527
0.00376586
0.00376644
0.00376703
0.00376762
0.00376821
0.00376881
0.00376941
0.00377001
0.00377061
0.00377122
0.00377182
0.00377243
0.00377304
0.00377365
0.00377426
0.00377487
0.00377548
0.00377609
0.0037767
0.0037773
0.00377791
0.00377851
0.00377912
0.00377972
0.00378031
0.00378091
0.0037815
0.00378209
0.00378267
0.00378326
0.00378384
0.00378441
0.00378498
0.00378558
0.00378595
0.00158937
0.00236976
0.00321596
0.00375923
0.00409609
0.00431112
0.00445413
0.00455312
0.00462407
0.00467641
0.00471597
0.00474649
0.00477044
0.00478951
0.00480489
0.00481744
0.00482777
0.00483636
0.00484356
0.00484964
0.00485482
0.00485926
0.00486309
0.00486643
0.00486935
0.00487194
0.00487424
0.0048763
0.00487817
0.00487988
0.00488146
0.00488292
0.0048843
0.0048856
0.00488685
0.00488805
0.00488923
0.00489039
0.00489153
0.00489267
0.00489381
0.00489496
0.00489612
0.0048973
0.00489849
0.00489969
0.00490091
0.00490215
0.00490339
0.00490464
0.0049059
0.00490717
0.00490843
0.00490969
0.00491094
0.00491218
0.00491342
0.00491464
0.00491584
0.00491703
0.00491821
0.00491936
0.0049205
0.00492162
0.00492273
0.00492382
0.00492489
0.00492594
0.00492698
0.004928
0.00492901
0.00493
0.00493098
0.00493195
0.00493292
0.00493387
0.00493481
0.00493575
0.00493668
0.00493761
0.00493853
0.00493945
0.00494037
0.00494128
0.00494219
0.0049431
0.004944
0.00494491
0.00494581
0.00494671
0.00494761
0.00494851
0.0049494
0.0049503
0.00495119
0.00495208
0.00495297
0.00495385
0.00495474
0.00495562
0.00495649
0.00495736
0.00495823
0.00495909
0.00495994
0.00496079
0.00496164
0.00496248
0.00496331
0.00496413
0.00496495
0.00496576
0.00496656
0.00496735
0.00496814
0.00496892
0.00496969
0.00497045
0.0049712
0.00497194
0.00497271
0.00497317
0.00212976
0.0025187
0.00352583
0.00427893
0.00478634
0.00512981
0.00536872
0.00554022
0.00566706
0.00576335
0.00583815
0.00589739
0.00594511
0.00598413
0.00601644
0.00604351
0.00606643
0.006086
0.00610287
0.00611752
0.00613034
0.00614164
0.00615166
0.0061606
0.00616863
0.00617589
0.00618248
0.0061885
0.00619403
0.00619914
0.00620388
0.0062083
0.00621246
0.00621638
0.00622009
0.00622364
0.00622703
0.0062303
0.00623345
0.00623652
0.00623952
0.00624245
0.00624533
0.00624816
0.00625096
0.00625372
0.00625645
0.00625915
0.00626182
0.00626447
0.00626707
0.00626965
0.00627219
0.00627469
0.00627715
0.00627956
0.00628194
0.00628426
0.00628654
0.00628878
0.00629096
0.0062931
0.00629519
0.00629723
0.00629923
0.00630119
0.0063031
0.00630497
0.0063068
0.00630859
0.00631034
0.00631206
0.00631374
0.0063154
0.00631702
0.00631862
0.0063202
0.00632175
0.00632328
0.00632479
0.00632628
0.00632776
0.00632922
0.00633067
0.0063321
0.00633352
0.00633492
0.00633632
0.0063377
0.00633908
0.00634044
0.00634179
0.00634313
0.00634446
0.00634579
0.0063471
0.00634839
0.00634968
0.00635096
0.00635222
0.00635348
0.00635472
0.00635594
0.00635716
0.00635836
0.00635954
0.00636071
0.00636186
0.006363
0.00636412
0.00636522
0.00636631
0.00636738
0.00636843
0.00636946
0.00637048
0.00637147
0.00637245
0.00637342
0.00637435
0.00637533
0.00637586
0.0031541
0.00268382
0.00372393
0.00468584
0.00539542
0.00590413
0.0062731
0.00654666
0.00675434
0.00691556
0.00704326
0.00714624
0.00723059
0.00730064
0.00735953
0.00740958
0.00745254
0.00748974
0.00752221
0.00755076
0.00757603
0.00759856
0.00761874
0.00763693
0.00765342
0.00766842
0.00768215
0.00769477
0.00770642
0.00771722
0.00772727
0.00773667
0.00774549
0.0077538
0.00776165
0.00776911
0.00777622
0.00778301
0.00778953
0.00779582
0.00780189
0.00780777
0.00781348
0.00781904
0.00782447
0.00782978
0.00783497
0.00784005
0.00784503
0.0078499
0.00785468
0.00785936
0.00786394
0.00786842
0.0078728
0.00787708
0.00788126
0.00788534
0.00788932
0.0078932
0.00789698
0.00790067
0.00790426
0.00790775
0.00791116
0.00791448
0.00791771
0.00792087
0.00792394
0.00792693
0.00792985
0.0079327
0.00793548
0.0079382
0.00794086
0.00794346
0.00794601
0.00794851
0.00795096
0.00795337
0.00795574
0.00795806
0.00796036
0.00796261
0.00796483
0.00796702
0.00796918
0.00797131
0.00797342
0.00797549
0.00797754
0.00797956
0.00798156
0.00798353
0.00798547
0.00798739
0.00798928
0.00799115
0.00799299
0.0079948
0.00799659
0.00799835
0.00800008
0.00800178
0.00800346
0.0080051
0.00800671
0.00800829
0.00800984
0.00801135
0.00801283
0.00801428
0.00801569
0.00801706
0.00801841
0.00801971
0.00802099
0.00802223
0.00802343
0.00802459
0.00802579
0.0080264
0.00493181
0.00302612
0.0038337
0.00494834
0.00587406
0.00658116
0.00711649
0.00752622
0.00784508
0.00809766
0.00830115
0.00846767
0.00860586
0.00872198
0.00882067
0.00890539
0.00897879
0.00904289
0.00909931
0.00914929
0.00919386
0.00923383
0.00926988
0.00930254
0.00933228
0.00935949
0.00938448
0.00940752
0.00942885
0.00944867
0.00946714
0.00948443
0.00950066
0.00951594
0.00953037
0.00954405
0.00955705
0.00956945
0.00958131
0.00959267
0.0096036
0.00961414
0.00962432
0.00963417
0.00964373
0.00965301
0.00966204
0.00967083
0.0096794
0.00968774
0.00969588
0.00970381
0.00971154
0.00971907
0.00972641
0.00973356
0.00974052
0.00974729
0.00975388
0.00976029
0.00976651
0.00977257
0.00977846
0.00978418
0.00978974
0.00979514
0.0098004
0.00980551
0.00981048
0.00981532
0.00982001
0.00982459
0.00982904
0.00983338
0.00983761
0.00984174
0.00984577
0.0098497
0.00985355
0.00985731
0.00986099
0.0098646
0.00986814
0.00987161
0.00987501
0.00987835
0.00988162
0.00988484
0.00988801
0.00989111
0.00989417
0.00989717
0.00990012
0.00990302
0.00990587
0.00990866
0.00991141
0.0099141
0.00991675
0.00991935
0.00992189
0.00992438
0.00992682
0.0099292
0.00993153
0.00993381
0.00993602
0.00993818
0.00994028
0.00994232
0.0099443
0.00994622
0.00994808
0.00994987
0.0099516
0.00995327
0.00995488
0.00995643
0.00995792
0.00995933
0.00996076
0.00996142
0.00765447
0.00384129
0.0039599
0.0050637
0.00617752
0.00710148
0.0078361
0.00841791
0.00888249
0.00925803
0.00956562
0.00982082
0.0100351
0.0102171
0.0103732
0.0105082
0.0106261
0.0107298
0.0108217
0.0109035
0.0109768
0.0110429
0.0111028
0.0111573
0.011207
0.0112527
0.0112948
0.0113337
0.0113697
0.0114033
0.0114347
0.011464
0.0114916
0.0115175
0.011542
0.0115652
0.0115873
0.0116082
0.0116283
0.0116474
0.0116658
0.0116834
0.0117004
0.0117168
0.0117326
0.0117479
0.0117628
0.0117772
0.0117912
0.0118048
0.011818
0.0118308
0.0118433
0.0118554
0.0118672
0.0118786
0.0118898
0.0119006
0.0119111
0.0119213
0.0119312
0.0119408
0.0119501
0.0119592
0.011968
0.0119765
0.0119848
0.0119928
0.0120006
0.0120082
0.0120156
0.0120228
0.0120297
0.0120365
0.0120431
0.0120495
0.0120557
0.0120618
0.0120677
0.0120735
0.0120791
0.0120846
0.01209
0.0120953
0.0121004
0.0121055
0.0121104
0.0121152
0.0121199
0.0121246
0.0121291
0.0121335
0.0121379
0.0121421
0.0121463
0.0121503
0.0121543
0.0121582
0.012162
0.0121657
0.0121693
0.0121728
0.0121763
0.0121796
0.0121829
0.012186
0.0121891
0.012192
0.0121949
0.0121976
0.0122003
0.0122028
0.0122053
0.0122076
0.0122099
0.012212
0.012214
0.0122159
0.0122178
0.0122195
0.0122211
0.0122218
0.0113266
0.00551803
0.00435849
0.00510578
0.00628855
0.00740978
0.00836168
0.0091471
0.00979278
0.0103264
0.0107711
0.0111453
0.0114634
0.0117362
0.0119723
0.0121782
0.0123592
0.0125193
0.0126619
0.0127896
0.0129046
0.0130086
0.0131032
0.0131896
0.0132687
0.0133415
0.0134088
0.0134711
0.0135289
0.0135829
0.0136333
0.0136806
0.013725
0.0137668
0.0138063
0.0138437
0.0138792
0.013913
0.0139452
0.0139759
0.0140053
0.0140335
0.0140606
0.0140867
0.0141119
0.0141362
0.0141597
0.0141824
0.0142044
0.0142258
0.0142465
0.0142665
0.014286
0.0143049
0.0143232
0.014341
0.0143583
0.0143751
0.0143913
0.0144071
0.0144224
0.0144373
0.0144517
0.0144657
0.0144792
0.0144924
0.0145051
0.0145175
0.0145295
0.0145412
0.0145525
0.0145635
0.0145742
0.0145845
0.0145946
0.0146043
0.0146138
0.0146231
0.0146321
0.0146408
0.0146494
0.0146577
0.0146658
0.0146737
0.0146814
0.0146889
0.0146963
0.0147034
0.0147104
0.0147172
0.0147239
0.0147304
0.0147368
0.014743
0.014749
0.0147549
0.0147607
0.0147663
0.0147717
0.014777
0.0147822
0.0147872
0.014792
0.0147967
0.0148013
0.0148057
0.0148099
0.014814
0.0148179
0.0148217
0.0148253
0.0148287
0.0148319
0.014835
0.0148379
0.0148406
0.0148432
0.0148456
0.0148478
0.0148499
0.0148518
0.0148526
0.0157248
0.0083437
0.00547916
0.00531275
0.00627167
0.00748282
0.00862975
0.00963244
0.0104877
0.0112134
0.0118305
0.0123582
0.0128125
0.0132064
0.0135503
0.0138528
0.0141205
0.0143588
0.0145721
0.0147641
0.0149377
0.0150955
0.0152394
0.0153712
0.0154923
0.0156041
0.0157075
0.0158035
0.0158929
0.0159763
0.0160544
0.0161276
0.0161965
0.0162614
0.0163228
0.0163809
0.016436
0.0164884
0.0165383
0.016586
0.0166316
0.0166752
0.0167171
0.0167574
0.0167962
0.0168335
0.0168696
0.0169044
0.0169381
0.0169707
0.0170023
0.0170329
0.0170625
0.0170913
0.0171191
0.0171462
0.0171724
0.0171978
0.0172224
0.0172463
0.0172695
0.0172919
0.0173137
0.0173349
0.0173554
0.0173752
0.0173945
0.0174132
0.0174314
0.017449
0.017466
0.0174826
0.0174987
0.0175143
0.0175294
0.0175441
0.0175584
0.0175723
0.0175858
0.0175989
0.0176116
0.017624
0.0176361
0.0176479
0.0176593
0.0176705
0.0176813
0.0176919
0.0177022
0.0177122
0.017722
0.0177315
0.0177408
0.0177498
0.0177586
0.0177672
0.0177755
0.0177836
0.0177914
0.017799
0.0178064
0.0178135
0.0178204
0.0178271
0.0178335
0.0178397
0.0178456
0.0178513
0.0178567
0.0178618
0.0178667
0.0178714
0.0178758
0.0178799
0.0178837
0.0178873
0.0178906
0.0178936
0.0178964
0.0178989
0.0179012
0.017902
0.0204365
0.0122987
0.00781877
0.0061763
0.00638132
0.00739745
0.00862145
0.00980678
0.0108762
0.0118169
0.0126375
0.0133529
0.0139782
0.0145273
0.0150118
0.0154416
0.0158248
0.0161683
0.0164775
0.0167573
0.0170114
0.0172433
0.0174555
0.0176506
0.0178304
0.0179967
0.018151
0.0182945
0.0184284
0.0185535
0.0186709
0.0187811
0.0188848
0.0189827
0.0190752
0.0191629
0.0192461
0.0193252
0.0194006
0.0194725
0.0195412
0.019607
0.0196701
0.0197307
0.019789
0.0198451
0.0198992
0.0199515
0.0200019
0.0200507
0.0200978
0.0201435
0.0201877
0.0202306
0.0202721
0.0203123
0.0203513
0.0203891
0.0204257
0.0204613
0.0204958
0.0205292
0.0205616
0.020593
0.0206235
0.020653
0.0206817
0.0207095
0.0207365
0.0207627
0.0207881
0.0208127
0.0208366
0.0208598
0.0208823
0.0209041
0.0209253
0.0209459
0.0209659
0.0209853
0.0210042
0.0210225
0.0210404
0.0210577
0.0210746
0.021091
0.021107
0.0211225
0.0211376
0.0211523
0.0211666
0.0211805
0.021194
0.0212072
0.0212199
0.0212323
0.0212444
0.021256
0.0212673
0.0212783
0.0212888
0.021299
0.0213089
0.0213184
0.0213275
0.0213362
0.0213446
0.0213526
0.0213601
0.0213673
0.0213741
0.0213806
0.0213866
0.0213922
0.0213974
0.0214021
0.0214065
0.0214105
0.0214141
0.0214172
0.0214201
0.0214209
0.024966
0.017029
0.011559
0.0083344
0.00718515
0.00746836
0.008455
0.00967288
0.0108973
0.0120408
0.0130773
0.0140053
0.014833
0.0155712
0.0162309
0.0168222
0.0173542
0.0178345
0.01827
0.0186661
0.0190279
0.0193593
0.0196641
0.0199451
0.020205
0.0204461
0.0206704
0.0208795
0.0210749
0.021258
0.0214299
0.0215916
0.021744
0.021888
0.0220243
0.0221535
0.0222762
0.0223928
0.022504
0.0226101
0.0227116
0.0228087
0.0229017
0.0229911
0.023077
0.0231596
0.0232393
0.0233161
0.0233902
0.0234619
0.0235311
0.0235981
0.023663
0.0237257
0.0237866
0.0238455
0.0239026
0.023958
0.0240117
0.0240638
0.0241143
0.0241632
0.0242107
0.0242568
0.0243015
0.0243448
0.0243869
0.0244277
0.0244673
0.0245057
0.024543
0.0245791
0.0246142
0.0246483
0.0246813
0.0247134
0.0247446
0.0247748
0.0248042
0.0248327
0.0248604
0.0248873
0.0249135
0.0249389
0.0249636
0.0249876
0.0250109
0.0250336
0.0250557
0.0250771
0.0250979
0.0251182
0.0251378
0.0251569
0.0251754
0.0251933
0.0252107
0.0252276
0.0252439
0.0252597
0.0252749
0.0252895
0.0253037
0.0253173
0.0253303
0.0253428
0.0253547
0.025366
0.0253768
0.025387
0.0253966
0.0254056
0.025414
0.0254218
0.025429
0.0254356
0.0254416
0.025447
0.0254517
0.0254559
0.0254596
0.0254607
0.0288721
0.0219727
0.0163572
0.0121026
0.00944208
0.00839318
0.00856599
0.00943681
0.0106072
0.0118514
0.0130626
0.0141965
0.0152393
0.0161903
0.0170549
0.0178406
0.0185555
0.0192071
0.0198026
0.0203481
0.0208492
0.0213109
0.0217373
0.0221321
0.0224988
0.02284
0.0231583
0.0234559
0.0237348
0.0239966
0.024243
0.0244752
0.0246944
0.0249017
0.0250982
0.0252847
0.0254619
0.0256306
0.0257915
0.0259451
0.0260919
0.0262326
0.0263674
0.0264968
0.0266211
0.0267408
0.0268561
0.0269672
0.0270744
0.027178
0.0272781
0.027375
0.0274687
0.0275594
0.0276473
0.0277324
0.0278149
0.0278949
0.0279725
0.0280478
0.0281208
0.0281916
0.0282603
0.0283269
0.0283916
0.0284544
0.0285153
0.0285745
0.0286319
0.0286877
0.0287418
0.0287943
0.0288453
0.0288948
0.0289428
0.0289895
0.0290348
0.0290788
0.0291215
0.029163
0.0292034
0.0292425
0.0292806
0.0293176
0.0293535
0.0293884
0.0294223
0.0294553
0.0294873
0.0295184
0.0295486
0.0295779
0.0296064
0.029634
0.0296608
0.0296868
0.029712
0.0297363
0.0297599
0.0297826
0.0298046
0.0298257
0.0298461
0.0298656
0.0298844
0.0299023
0.0299194
0.0299357
0.0299511
0.0299657
0.0299794
0.0299923
0.0300043
0.0300154
0.0300256
0.030035
0.0300435
0.030051
0.0300577
0.0300635
0.0300686
0.0300705
0.0318859
0.0265354
0.0215162
0.0170871
0.0134893
0.0110289
0.00983786
0.0097379
0.0103766
0.011418
0.0126294
0.0138773
0.0150935
0.0162465
0.0173241
0.0183238
0.0192482
0.0201018
0.0208901
0.0216189
0.0222936
0.0229193
0.0235005
0.0240416
0.0245463
0.025018
0.0254596
0.0258738
0.0262632
0.0266297
0.0269754
0.0273019
0.0276108
0.0279036
0.0281814
0.0284455
0.0286968
0.0289363
0.0291648
0.0293833
0.0295922
0.0297924
0.0299845
0.0301689
0.0303461
0.0305167
0.030681
0.0308394
0.0309923
0.03114
0.0312827
0.0314207
0.0315543
0.0316836
0.0318089
0.0319303
0.032048
0.0321622
0.0322729
0.0323803
0.0324846
0.0325857
0.032684
0.0327793
0.0328719
0.0329618
0.0330491
0.0331338
0.0332162
0.0332962
0.0333739
0.0334494
0.0335227
0.0335939
0.0336631
0.0337303
0.0337956
0.033859
0.0339207
0.0339805
0.0340387
0.0340953
0.0341502
0.0342036
0.0342555
0.0343059
0.0343549
0.0344025
0.0344488
0.0344937
0.0345373
0.0345797
0.0346208
0.0346607
0.0346994
0.0347369
0.0347732
0.0348084
0.0348424
0.0348752
0.0349069
0.0349374
0.0349668
0.034995
0.0350221
0.035048
0.0350727
0.0350962
0.0351185
0.0351395
0.0351594
0.035178
0.0351954
0.0352115
0.0352263
0.0352399
0.0352522
0.0352632
0.035273
0.0352814
0.0352887
0.0352922
0.0339568
0.0302574
0.0262964
0.0224018
0.0187493
0.0155657
0.0131348
0.01166
0.0111401
0.0113925
0.0121663
0.0132379
0.014448
0.0156984
0.0169334
0.0181236
0.0192548
0.0203216
0.0213231
0.0222613
0.0231394
0.0239612
0.0247308
0.025452
0.0261288
0.0267645
0.0273626
0.0279259
0.0284574
0.0289594
0.0294343
0.0298842
0.0303109
0.0307162
0.0311016
0.0314686
0.0318185
0.0321525
0.0324716
0.032777
0.0330694
0.0333499
0.0336191
0.0338778
0.0341266
0.0343661
0.034597
0.0348196
0.0350346
0.0352422
0.035443
0.0356372
0.0358252
0.0360073
0.0361837
0.0363547
0.0365206
0.0366815
0.0368376
0.0369892
0.0371363
0.0372792
0.037418
0.0375529
0.0376839
0.0378112
0.0379349
0.0380551
0.038172
0.0382856
0.038396
0.0385034
0.0386077
0.0387092
0.0388078
0.0389036
0.0389968
0.0390874
0.0391755
0.0392612
0.0393445
0.0394254
0.0395042
0.0395807
0.0396551
0.0397274
0.0397977
0.039866
0.0399325
0.039997
0.0400597
0.0401206
0.0401797
0.040237
0.0402927
0.0403466
0.0403989
0.0404495
0.0404985
0.0405458
0.0405915
0.0406355
0.0406779
0.0407186
0.0407577
0.0407952
0.0408309
0.040865
0.0408973
0.040928
0.0409569
0.040984
0.0410094
0.041033
0.0410548
0.0410748
0.041093
0.0411094
0.041124
0.0411367
0.0411479
0.0411542
0.0352156
0.0329264
0.0301548
0.0271692
0.0241079
0.0210828
0.0182539
0.0158401
0.0140585
0.0130304
0.012737
0.0130508
0.0138009
0.0148263
0.0160022
0.0172434
0.018496
0.0197278
0.0209204
0.0220639
0.0231539
0.024189
0.0251701
0.026099
0.026978
0.0278099
0.0285976
0.0293438
0.0300513
0.0307226
0.0313602
0.0319664
0.0325433
0.0330929
0.033617
0.0341173
0.0345953
0.0350525
0.0354902
0.0359097
0.0363121
0.0366985
0.0370699
0.0374271
0.0377711
0.0381025
0.0384221
0.0387306
0.0390287
0.0393167
0.0395954
0.0398651
0.0401263
0.0403794
0.0406247
0.0408627
0.0410936
0.0413177
0.0415354
0.0417467
0.0419521
0.0421517
0.0423456
0.0425342
0.0427175
0.0428958
0.0430692
0.0432379
0.043402
0.0435616
0.0437169
0.043868
0.0440151
0.0441582
0.0442973
0.0444327
0.0445645
0.0446927
0.0448175
0.0449389
0.045057
0.0451719
0.0452837
0.0453925
0.0454984
0.0456013
0.0457015
0.0457989
0.0458936
0.0459856
0.0460751
0.0461621
0.0462466
0.0463287
0.0464083
0.0464855
0.0465604
0.046633
0.0467032
0.0467712
0.0468368
0.0469001
0.0469612
0.0470199
0.0470763
0.0471304
0.0471822
0.0472315
0.0472785
0.0473231
0.0473653
0.047405
0.0474423
0.0474771
0.0475093
0.0475391
0.0475663
0.047591
0.0476131
0.0476327
0.04765
0.0476615
0.0358864
0.034593
0.0328633
0.0308401
0.0286213
0.0262674
0.0238358
0.0214144
0.0191386
0.0171788
0.0156958
0.0147878
0.0144645
0.0146593
0.0152639
0.0161609
0.0172464
0.01844
0.0196844
0.0209413
0.0221859
0.0234025
0.0245816
0.025718
0.0268092
0.0278544
0.0288541
0.0298095
0.0307221
0.0315938
0.0324266
0.0332223
0.0339831
0.0347109
0.0354074
0.0360746
0.0367141
0.0373274
0.0379161
0.0384816
0.0390252
0.0395481
0.0400516
0.0405367
0.0410045
0.0414558
0.0418916
0.0423127
0.0427198
0.0431138
0.0434951
0.0438646
0.0442226
0.0445699
0.0449067
0.0452337
0.0455512
0.0458596
0.0461593
0.0464505
0.0467338
0.0470092
0.0472771
0.0475378
0.0477915
0.0480384
0.0482788
0.0485128
0.0487406
0.0489625
0.0491785
0.049389
0.049594
0.0497936
0.0499881
0.0501775
0.0503619
0.0505415
0.0507164
0.0508869
0.0510528
0.0512144
0.0513718
0.0515251
0.0516744
0.0518197
0.0519611
0.0520988
0.0522328
0.0523632
0.05249
0.0526134
0.0527333
0.0528499
0.0529631
0.053073
0.0531797
0.0532831
0.0533834
0.0534804
0.0535743
0.0536649
0.0537524
0.0538367
0.0539178
0.0539957
0.0540704
0.0541417
0.0542098
0.0542746
0.054336
0.0543941
0.0544487
0.0545
0.0545477
0.054592
0.0546328
0.0546701
0.054704
0.0547342
0.0547613
0.0547814
0.0361963
0.0354884
0.0345011
0.0332718
0.0318469
0.0302605
0.0285351
0.0266917
0.024764
0.0228124
0.0209309
0.0192398
0.0178631
0.0168966
0.0163857
0.0163216
0.0166534
0.0173069
0.0182017
0.0192644
0.020434
0.0216643
0.0229216
0.0241827
0.0254314
0.0266568
0.0278519
0.0290122
0.0301354
0.0312202
0.0322665
0.0332747
0.0342455
0.03518
0.0360795
0.0369453
0.0377789
0.0385817
0.0393551
0.0401005
0.0408192
0.0415125
0.0421817
0.0428279
0.0434523
0.0440559
0.0446398
0.0452049
0.0457522
0.0462824
0.0467963
0.0472948
0.0477785
0.0482481
0.0487041
0.0491472
0.0495778
0.0499966
0.0504038
0.0508001
0.0511858
0.0515612
0.0519267
0.0522827
0.0526295
0.0529674
0.0532966
0.0536174
0.0539301
0.054235
0.0545321
0.0548219
0.0551044
0.0553799
0.0556486
0.0559105
0.056166
0.0564149
0.0566576
0.0568943
0.0571251
0.0573501
0.0575694
0.0577833
0.0579917
0.0581948
0.0583928
0.0585856
0.0587735
0.0589566
0.0591348
0.0593083
0.0594771
0.0596413
0.059801
0.0599563
0.060107
0.0602534
0.0603954
0.0605331
0.0606664
0.0607953
0.0609199
0.0610402
0.061156
0.0612675
0.0613746
0.0614772
0.0615753
0.0616689
0.0617579
0.0618424
0.0619222
0.0619973
0.0620677
0.0621334
0.0621943
0.0622505
0.0623019
0.0623484
0.0623907
0.0624244
0.0363185
0.0358964
0.035342
0.0346443
0.0338099
0.0328502
0.0317745
0.0305881
0.0292942
0.0278982
0.0264145
0.0248739
0.0233287
0.0218531
0.0205352
0.0194615
0.0187
0.018288
0.0182293
0.0184992
0.0190539
0.0198402
0.020804
0.0218958
0.0230737
0.0243047
0.0255637
0.0268321
0.0280964
0.0293469
0.0305766
0.0317807
0.0329559
0.0341003
0.0352127
0.0362927
0.0373404
0.0383561
0.0393404
0.040294
0.0412178
0.0421128
0.0429799
0.0438201
0.0446346
0.0454243
0.0461903
0.0469334
0.0476546
0.0483548
0.0490349
0.0496957
0.0503379
0.0509624
0.0515697
0.0521607
0.0527359
0.0532959
0.0538413
0.0543726
0.0548903
0.0553948
0.0558867
0.0563663
0.056834
0.0572901
0.0577352
0.0581694
0.0585931
0.0590067
0.0594103
0.0598043
0.060189
0.0605645
0.0609311
0.061289
0.0616385
0.0619796
0.0623126
0.0626376
0.0629548
0.0632644
0.0635667
0.0638617
0.0641496
0.0644305
0.0647046
0.064972
0.0652328
0.0654871
0.065735
0.0659765
0.0662119
0.0664412
0.0666643
0.0668815
0.0670927
0.067298
0.0674974
0.0676909
0.0678786
0.0680604
0.0682364
0.0684065
0.0685707
0.068729
0.0688813
0.0690276
0.0691678
0.069302
0.06943
0.0695518
0.0696673
0.0697766
0.0698795
0.0699761
0.0700663
0.07015
0.0702274
0.0702983
0.0703633
0.0704182
0.0363591
0.0360515
0.0357024
0.0352937
0.0348163
0.0342669
0.0336458
0.0329534
0.032189
0.0313505
0.0304344
0.0294384
0.0283636
0.0272185
0.0260225
0.0248094
0.0236274
0.0225355
0.0215963
0.0208663
0.020387
0.0201807
0.0202495
0.0205783
0.0211397
0.021899
0.0228189
0.0238634
0.0249997
0.0262001
0.0274421
0.0287078
0.0299836
0.0312591
0.0325266
0.0337799
0.0350148
0.0362279
0.0374169
0.0385803
0.0397169
0.0408265
0.0419088
0.0429639
0.0439922
0.044994
0.04597
0.0469206
0.0478466
0.0487485
0.0496272
0.0504833
0.0513175
0.0521306
0.0529232
0.0536961
0.0544498
0.0551851
0.0559024
0.0566024
0.0572855
0.0579524
0.0586035
0.0592393
0.0598603
0.0604668
0.0610594
0.0616383
0.0622041
0.062757
0.0632974
0.0638257
0.064342
0.0648468
0.0653402
0.0658227
0.0662943
0.0667554
0.0672061
0.0676467
0.0680774
0.0684982
0.0689094
0.0693113
0.0697041
0.0700878
0.0704627
0.0708289
0.0711866
0.0715357
0.0718766
0.0722091
0.0725336
0.07285
0.0731584
0.0734588
0.0737515
0.0740363
0.0743133
0.0745825
0.0748439
0.0750976
0.0753435
0.0755816
0.0758119
0.0760343
0.0762487
0.0764552
0.0766536
0.0768438
0.0770259
0.0771998
0.0773653
0.0775225
0.0776713
0.0778116
0.0779435
0.0780668
0.0781817
0.078288
0.0783864
0.0784729
0.0363702
0.0360998
0.0358287
0.035546