/*--------------------------------*- C++ -*----------------------------------*\
  =========                 |
  \\      /  F ield         | OpenFOAM: The Open Source CFD Toolbox
   \\    /   O peration     | Website:  https://openfoam.org
    \\  /    A nd           | Version:  8
     \\/     M anipulation  |
\*---------------------------------------------------------------------------*/
FoamFile
{
    version     2.0;
    format      ascii;
    class       volScalarField;
    location    "650";
    object      p;
}
// * * * * * * * * * * * * * * * * * * * * * * * * * * * * * * * * * * * * * //

dimensions      [0 2 -2 0 0 0 0];

internalField   nonuniform List<scalar> 
7320
(
159.452
153.595
151.685
149.9
148.192
146.496
144.832
143.208
141.616
140.05
138.506
136.982
135.477
133.988
132.514
131.054
129.606
128.171
126.746
125.332
123.928
122.532
121.145
119.767
118.396
117.033
115.676
114.326
112.983
111.646
110.314
108.989
107.668
106.353
105.043
103.737
102.437
101.141
99.8487
98.5609
97.2773
95.9975
94.7215
93.4492
92.1805
90.9152
89.6533
88.3947
87.1392
85.8868
84.6374
83.391
82.1474
80.9065
79.6684
78.4329
77.2
75.9697
74.7417
73.5162
72.293
71.0722
69.8535
68.6371
67.4228
66.2106
65.0004
63.7923
62.5861
61.3818
60.1794
58.9789
57.7802
56.5833
55.388
54.1946
53.0027
51.8125
50.6239
49.4369
48.2515
47.0675
45.885
44.704
43.5244
42.3462
41.1694
39.9939
38.8197
37.6468
36.4751
35.3047
34.1354
32.9673
31.8003
30.6345
29.4697
28.3059
27.143
25.9812
24.8203
23.6603
22.501
21.3427
20.185
19.0281
17.8719
16.7163
15.5614
14.407
13.2531
12.0997
10.9467
9.79414
8.6419
7.48998
6.33832
5.18691
4.03562
2.88489
1.73283
0.594892
158.654
153.582
151.686
149.901
148.192
146.496
144.832
143.208
141.616
140.05
138.506
136.982
135.477
133.988
132.514
131.054
129.606
128.171
126.746
125.332
123.928
122.532
121.145
119.767
118.396
117.033
115.676
114.326
112.983
111.646
110.314
108.989
107.668
106.353
105.043
103.738
102.437
101.141
99.8487
98.5609
97.2773
95.9975
94.7215
93.4492
92.1805
90.9152
89.6533
88.3947
87.1392
85.8868
84.6374
83.391
82.1474
80.9065
79.6684
78.4329
77.2
75.9697
74.7417
73.5162
72.293
71.0722
69.8535
68.6371
67.4228
66.2106
65.0004
63.7923
62.5861
61.3818
60.1794
58.9789
57.7802
56.5833
55.388
54.1946
53.0027
51.8125
50.6239
49.4369
48.2515
47.0675
45.885
44.704
43.5244
42.3462
41.1694
39.9939
38.8197
37.6468
36.4751
35.3047
34.1354
32.9673
31.8003
30.6345
29.4697
28.3059
27.143
25.9812
24.8203
23.6603
22.501
21.3427
20.185
19.0281
17.8719
16.7163
15.5614
14.407
13.2531
12.0997
10.9467
9.79414
8.64189
7.48997
6.33832
5.1869
4.03561
2.88489
1.73283
0.59489
158.449
153.588
151.687
149.902
148.192
146.497
144.833
143.208
141.616
140.05
138.506
136.982
135.477
133.988
132.514
131.054
129.606
128.171
126.746
125.332
123.928
122.532
121.146
119.767
118.396
117.033
115.676
114.326
112.983
111.646
110.314
108.989
107.668
106.353
105.043
103.738
102.437
101.141
99.8487
98.561
97.2773
95.9975
94.7215
93.4493
92.1805
90.9152
89.6533
88.3947
87.1392
85.8868
84.6374
83.391
82.1474
80.9065
79.6684
78.4329
77.2
75.9697
74.7417
73.5162
72.293
71.0722
69.8535
68.6371
67.4228
66.2106
65.0004
63.7923
62.5861
61.3818
60.1794
58.9789
57.7802
56.5833
55.388
54.1946
53.0027
51.8125
50.6239
49.4369
48.2515
47.0675
45.885
44.704
43.5244
42.3462
41.1693
39.9939
38.8197
37.6468
36.4751
35.3047
34.1354
32.9673
31.8003
30.6345
29.4697
28.3059
27.143
25.9812
24.8203
23.6603
22.501
21.3427
20.185
19.0281
17.8719
16.7163
15.5613
14.407
13.2531
12.0997
10.9467
9.79413
8.64189
7.48996
6.33831
5.1869
4.03561
2.88488
1.73282
0.594886
158.435
153.595
151.689
149.903
148.193
146.497
144.833
143.209
141.617
140.05
138.506
136.983
135.477
133.988
132.514
131.054
129.607
128.171
126.746
125.332
123.928
122.532
121.146
119.767
118.396
117.033
115.676
114.326
112.983
111.646
110.314
108.989
107.668
106.353
105.043
103.738
102.437
101.141
99.8487
98.561
97.2773
95.9975
94.7216
93.4493
92.1805
90.9153
89.6533
88.3947
87.1392
85.8868
84.6374
83.391
82.1474
80.9065
79.6684
78.4329
77.2
75.9697
74.7417
73.5162
72.2931
71.0722
69.8535
68.6371
67.4228
66.2106
65.0004
63.7923
62.5861
61.3818
60.1794
58.9789
57.7802
56.5833
55.388
54.1945
53.0027
51.8125
50.6239
49.4369
48.2515
47.0675
45.885
44.704
43.5244
42.3462
41.1693
39.9939
38.8197
37.6468
36.4751
35.3046
34.1354
32.9673
31.8003
30.6345
29.4696
28.3059
27.143
25.9812
24.8203
23.6603
22.501
21.3427
20.185
19.0281
17.8718
16.7163
15.5613
14.407
13.253
12.0997
10.9467
9.79412
8.64188
7.48996
6.3383
5.18689
4.0356
2.88487
1.73281
0.594881
158.407
153.599
151.691
149.904
148.194
146.498
144.833
143.209
141.617
140.05
138.506
136.983
135.477
133.988
132.514
131.054
129.607
128.171
126.747
125.332
123.928
122.532
121.146
119.767
118.396
117.033
115.676
114.326
112.983
111.646
110.314
108.989
107.668
106.353
105.043
103.738
102.437
101.141
99.8487
98.561
97.2773
95.9976
94.7216
93.4493
92.1806
90.9153
89.6534
88.3947
87.1392
85.8868
84.6374
83.391
82.1474
80.9066
79.6684
78.433
77.2001
75.9697
74.7417
73.5162
72.2931
71.0722
69.8535
68.6371
67.4228
66.2106
65.0004
63.7923
62.5861
61.3818
60.1794
58.9789
57.7802
56.5833
55.388
54.1945
53.0027
51.8125
50.6239
49.4369
48.2514
47.0675
45.885
44.704
43.5244
42.3462
41.1693
39.9939
38.8197
37.6468
36.475
35.3046
34.1354
32.9673
31.8003
30.6345
29.4696
28.3059
27.143
25.9812
24.8203
23.6602
22.501
21.3426
20.185
19.0281
17.8718
16.7163
15.5613
14.4069
13.253
12.0996
10.9467
9.79411
8.64186
7.48994
6.33829
5.18688
4.03558
2.88486
1.7328
0.594875
158.366
153.603
151.693
149.905
148.195
146.498
144.834
143.209
141.617
140.051
138.507
136.983
135.477
133.988
132.514
131.054
129.607
128.171
126.747
125.332
123.928
122.533
121.146
119.767
118.396
117.033
115.676
114.327
112.983
111.646
110.314
108.989
107.668
106.353
105.043
103.738
102.437
101.141
99.8488
98.561
97.2774
95.9976
94.7216
93.4493
92.1806
90.9153
89.6534
88.3947
87.1392
85.8869
84.6375
83.391
82.1474
80.9066
79.6684
78.433
77.2001
75.9697
74.7418
73.5162
72.2931
71.0722
69.8535
68.6371
67.4228
66.2106
65.0004
63.7923
62.5861
61.3818
60.1794
58.9789
57.7802
56.5833
55.388
54.1945
53.0027
51.8125
50.6239
49.4369
48.2514
47.0675
45.885
44.704
43.5244
42.3462
41.1693
39.9939
38.8197
37.6468
36.475
35.3046
34.1354
32.9673
31.8003
30.6345
29.4696
28.3058
27.143
25.9812
24.8202
23.6602
22.501
21.3426
20.185
19.0281
17.8718
16.7163
15.5613
14.4069
13.253
12.0996
10.9467
9.7941
8.64185
7.48993
6.33828
5.18686
4.03557
2.88484
1.73279
0.594866
158.33
153.608
151.696
149.907
148.196
146.5
144.835
143.21
141.618
140.051
138.507
136.983
135.478
133.989
132.515
131.054
129.607
128.171
126.747
125.333
123.928
122.533
121.146
119.767
118.396
117.033
115.676
114.327
112.983
111.646
110.315
108.989
107.668
106.353
105.043
103.738
102.437
101.141
99.8488
98.5611
97.2774
95.9976
94.7216
93.4493
92.1806
90.9153
89.6534
88.3947
87.1393
85.8869
84.6375
83.391
82.1474
80.9066
79.6685
78.433
77.2001
75.9697
74.7418
73.5162
72.2931
71.0722
69.8535
68.6371
67.4228
66.2106
65.0004
63.7923
62.5861
61.3818
60.1794
58.9789
57.7802
56.5833
55.388
54.1945
53.0027
51.8125
50.6239
49.4369
48.2514
47.0675
45.885
44.704
43.5244
42.3462
41.1693
39.9938
38.8197
37.6467
36.475
35.3046
34.1354
32.9673
31.8003
30.6344
29.4696
28.3058
27.143
25.9812
24.8202
23.6602
22.501
21.3426
20.185
19.0281
17.8718
16.7163
15.5613
14.4069
13.253
12.0996
10.9467
9.79408
8.64183
7.48991
6.33826
5.18684
4.03555
2.88483
1.73277
0.594856
158.303
153.614
151.698
149.909
148.198
146.501
144.836
143.211
141.619
140.052
138.508
136.984
135.478
133.989
132.515
131.055
129.607
128.172
126.747
125.333
123.928
122.533
121.146
119.767
118.397
117.033
115.677
114.327
112.983
111.646
110.315
108.989
107.668
106.353
105.043
103.738
102.437
101.141
99.8489
98.5611
97.2774
95.9977
94.7217
93.4494
92.1806
90.9154
89.6534
88.3948
87.1393
85.8869
84.6375
83.391
82.1474
80.9066
79.6685
78.433
77.2001
75.9697
74.7418
73.5163
72.2931
71.0722
69.8535
68.6371
67.4228
66.2106
65.0004
63.7923
62.5861
61.3818
60.1794
58.9789
57.7802
56.5833
55.388
54.1945
53.0027
51.8125
50.6239
49.4369
48.2514
47.0675
45.885
44.704
43.5244
42.3462
41.1693
39.9938
38.8196
37.6467
36.475
35.3046
34.1354
32.9673
31.8003
30.6344
29.4696
28.3058
27.1429
25.9811
24.8202
23.6602
22.501
21.3426
20.185
19.0281
17.8718
16.7162
15.5613
14.4069
13.253
12.0996
10.9466
9.79406
8.64181
7.48989
6.33824
5.18682
4.03553
2.88481
1.73275
0.594842
158.281
153.62
151.701
149.912
148.2
146.502
144.837
143.212
141.619
140.053
138.508
136.984
135.479
133.99
132.515
131.055
129.608
128.172
126.747
125.333
123.928
122.533
121.146
119.768
118.397
117.033
115.677
114.327
112.983
111.646
110.315
108.989
107.669
106.353
105.043
103.738
102.437
101.141
99.8489
98.5612
97.2775
95.9977
94.7217
93.4494
92.1807
90.9154
89.6535
88.3948
87.1393
85.8869
84.6375
83.3911
82.1475
80.9066
79.6685
78.433
77.2001
75.9697
74.7418
73.5163
72.2931
71.0722
69.8536
68.6371
67.4228
66.2106
65.0004
63.7923
62.5861
61.3818
60.1794
58.9789
57.7802
56.5833
55.388
54.1945
53.0027
51.8125
50.6239
49.4369
48.2514
47.0675
45.8849
44.7039
43.5244
42.3462
41.1693
39.9938
38.8196
37.6467
36.475
35.3046
34.1353
32.9673
31.8003
30.6344
29.4696
28.3058
27.1429
25.9811
24.8202
23.6602
22.5009
21.3426
20.1849
19.028
17.8718
16.7162
15.5613
14.4069
13.253
12.0996
10.9466
9.79404
8.64179
7.48987
6.33822
5.1868
4.03551
2.88478
1.73273
0.594825
158.261
153.627
151.703
149.914
148.202
146.504
144.838
143.213
141.62
140.053
138.509
136.985
135.479
133.99
132.516
131.056
129.608
128.172
126.748
125.333
123.929
122.533
121.146
119.768
118.397
117.033
115.677
114.327
112.984
111.646
110.315
108.989
107.669
106.354
105.043
103.738
102.437
101.141
99.849
98.5613
97.2776
95.9978
94.7218
93.4495
92.1808
90.9155
89.6535
88.3949
87.1394
85.887
84.6376
83.3911
82.1475
80.9067
79.6685
78.433
77.2001
75.9698
74.7418
73.5163
72.2931
71.0722
69.8536
68.6371
67.4228
66.2106
65.0004
63.7923
62.5861
61.3818
60.1794
58.9789
57.7802
56.5833
55.388
54.1945
53.0027
51.8125
50.6239
49.4369
48.2514
47.0675
45.8849
44.7039
43.5243
42.3462
41.1693
39.9938
38.8196
37.6467
36.475
35.3046
34.1353
32.9672
31.8002
30.6344
29.4696
28.3058
27.1429
25.9811
24.8202
23.6602
22.5009
21.3425
20.1849
19.028
17.8717
16.7162
15.5612
14.4068
13.2529
12.0995
10.9466
9.79401
8.64176
7.48984
6.33819
5.18677
4.03548
2.88476
1.7327
0.594803
158.24
153.635
151.705
149.917
148.204
146.506
144.84
143.215
141.622
140.055
138.51
136.986
135.48
133.991
132.516
131.056
129.609
128.173
126.748
125.334
123.929
122.534
121.147
119.768
118.397
117.034
115.677
114.327
112.984
111.647
110.315
108.989
107.669
106.354
105.043
103.738
102.437
101.141
99.8491
98.5614
97.2777
95.9979
94.7219
93.4496
92.1808
90.9155
89.6536
88.3949
87.1394
85.887
84.6376
83.3912
82.1475
80.9067
79.6686
78.4331
77.2002
75.9698
74.7418
73.5163
72.2931
71.0722
69.8536
68.6371
67.4228
66.2106
65.0004
63.7923
62.5861
61.3818
60.1794
58.9789
57.7802
56.5833
55.388
54.1945
53.0027
51.8125
50.6239
49.4369
48.2514
47.0674
45.8849
44.7039
43.5243
42.3461
41.1693
39.9938
38.8196
37.6467
36.475
35.3046
34.1353
32.9672
31.8002
30.6344
29.4695
28.3058
27.1429
25.9811
24.8201
23.6601
22.5009
21.3425
20.1849
19.028
17.8717
16.7162
15.5612
14.4068
13.2529
12.0995
10.9465
9.79398
8.64173
7.48981
6.33816
5.18674
4.03545
2.88472
1.73267
0.594774
158.217
153.644
151.707
149.919
148.206
146.508
144.842
143.216
141.623
140.056
138.511
136.987
135.481
133.992
132.517
131.057
129.609
128.173
126.749
125.334
123.93
122.534
121.147
119.768
118.398
117.034
115.677
114.328
112.984
111.647
110.315
108.989
107.669
106.354
105.044
103.738
102.437
101.141
99.8493
98.5615
97.2778
95.998
94.722
93.4497
92.1809
90.9156
89.6537
88.395
87.1395
85.8871
84.6377
83.3912
82.1476
80.9068
79.6686
78.4331
77.2002
75.9698
74.7419
73.5164
72.2932
71.0723
69.8536
68.6372
67.4228
66.2106
65.0005
63.7923
62.5861
61.3819
60.1795
58.9789
57.7802
56.5833
55.388
54.1945
53.0027
51.8125
50.6239
49.4369
48.2514
47.0674
45.8849
44.7039
43.5243
42.3461
41.1693
39.9938
38.8196
37.6467
36.4749
35.3045
34.1353
32.9672
31.8002
30.6343
29.4695
28.3057
27.1429
25.981
24.8201
23.6601
22.5009
21.3425
20.1849
19.028
17.8717
16.7161
15.5612
14.4068
13.2529
12.0995
10.9465
9.79394
8.64169
7.48977
6.33812
5.1867
4.03541
2.88469
1.73263
0.594737
158.191
153.654
151.709
149.921
148.209
146.51
144.844
143.218
141.625
140.057
138.512
136.988
135.482
133.993
132.518
131.058
129.61
128.174
126.749
125.335
123.93
122.535
121.148
119.769
118.398
117.034
115.678
114.328
112.984
111.647
110.316
108.99
107.669
106.354
105.044
103.738
102.438
101.141
99.8495
98.5617
97.278
95.9982
94.7222
93.4498
92.1811
90.9158
89.6538
88.3951
87.1396
85.8872
84.6378
83.3913
82.1477
80.9068
79.6687
78.4332
77.2003
75.9699
74.7419
73.5164
72.2932
71.0723
69.8537
68.6372
67.4229
66.2107
65.0005
63.7923
62.5861
61.3819
60.1795
58.9789
57.7802
56.5833
55.388
54.1945
53.0027
51.8125
50.6239
49.4369
48.2514
47.0674
45.8849
44.7039
43.5243
42.3461
41.1692
39.9938
38.8196
37.6466
36.4749
35.3045
34.1353
32.9672
31.8002
30.6343
29.4695
28.3057
27.1428
25.981
24.8201
23.6601
22.5008
21.3425
20.1848
19.0279
17.8716
16.7161
15.5611
14.4067
13.2528
12.0994
10.9465
9.7939
8.64165
7.48973
6.33807
5.18666
4.03537
2.88464
1.73258
0.594687
158.16
153.666
151.71
149.922
148.21
146.512
144.846
143.22
141.627
140.059
138.514
136.989
135.483
133.994
132.519
131.059
129.611
128.175
126.75
125.336
123.931
122.535
121.148
119.769
118.398
117.035
115.678
114.328
112.985
111.647
110.316
108.99
107.67
106.354
105.044
103.739
102.438
101.142
99.8497
98.5619
97.2782
95.9984
94.7223
93.45
92.1812
90.9159
89.654
88.3953
87.1398
85.8873
84.6379
83.3914
82.1478
80.9069
79.6688
78.4333
77.2004
75.97
74.742
73.5165
72.2933
71.0724
69.8537
68.6373
67.4229
66.2107
65.0005
63.7924
62.5862
61.3819
60.1795
58.979
57.7802
56.5833
55.388
54.1945
53.0027
51.8125
50.6239
49.4369
48.2514
47.0674
45.8849
44.7039
43.5243
42.3461
41.1692
39.9937
38.8195
37.6466
36.4749
35.3045
34.1352
32.9671
31.8001
30.6343
29.4694
28.3057
27.1428
25.981
24.82
23.66
22.5008
21.3424
20.1848
19.0279
17.8716
16.716
15.5611
14.4067
13.2528
12.0994
10.9464
9.79385
8.6416
7.48968
6.33802
5.18661
4.03532
2.88459
1.73253
0.594621
158.125
153.68
151.712
149.923
148.212
146.514
144.848
143.222
141.629
140.061
138.516
136.991
135.485
133.995
132.52
131.06
129.612
128.176
126.751
125.336
123.932
122.536
121.149
119.77
118.399
117.035
115.679
114.329
112.985
111.648
110.316
108.99
107.67
106.355
105.044
103.739
102.438
101.142
99.85
98.5622
97.2784
95.9986
94.7226
93.4502
92.1814
90.9161
89.6541
88.3954
87.1399
85.8875
84.6381
83.3916
82.1479
80.9071
79.6689
78.4334
77.2005
75.9701
74.7421
73.5166
72.2934
71.0725
69.8538
68.6373
67.423
66.2108
65.0006
63.7924
62.5862
61.3819
60.1795
58.979
57.7803
56.5833
55.3881
54.1946
53.0027
51.8125
50.6239
49.4369
48.2514
47.0674
45.8849
44.7039
43.5243
42.3461
41.1692
39.9937
38.8195
37.6466
36.4749
35.3045
34.1352
32.9671
31.8001
30.6343
29.4694
28.3056
27.1428
25.9809
24.82
23.66
22.5007
21.3424
20.1847
19.0278
17.8716
16.716
15.561
14.4066
13.2527
12.0993
10.9464
9.79379
8.64155
7.48962
6.33797
5.18655
4.03526
2.88453
1.73248
0.594532
158.084
153.696
151.713
149.925
148.213
146.515
144.85
143.224
141.631
140.063
138.518
136.993
135.486
133.997
132.522
131.061
129.613
128.177
126.752
125.337
123.933
122.537
121.15
119.771
118.4
117.036
115.679
114.329
112.986
111.648
110.317
108.991
107.671
106.355
105.045
103.739
102.439
101.142
99.8503
98.5625
97.2788
95.9989
94.7229
93.4505
92.1817
90.9164
89.6544
88.3957
87.1401
85.8877
84.6383
83.3918
82.1481
80.9072
79.6691
78.4336
77.2006
75.9702
74.7422
73.5167
72.2935
71.0726
69.8539
68.6374
67.4231
66.2109
65.0007
63.7925
62.5863
61.382
60.1796
58.9791
57.7803
56.5834
55.3881
54.1946
53.0028
51.8125
50.6239
49.4369
48.2514
47.0674
45.8849
44.7039
43.5243
42.3461
41.1692
39.9937
38.8195
37.6466
36.4749
35.3045
34.1352
32.9671
31.8001
30.6342
29.4694
28.3056
27.1427
25.9809
24.82
23.6599
22.5007
21.3423
20.1847
19.0278
17.8715
16.716
15.561
14.4066
13.2527
12.0993
10.9463
9.79374
8.64149
7.48956
6.33791
5.18649
4.03519
2.88446
1.73241
0.594412
158.036
153.715
151.714
149.926
148.214
146.516
144.851
143.225
141.632
140.065
138.519
136.995
135.488
133.998
132.524
131.063
129.615
128.178
126.753
125.339
123.934
122.538
121.151
119.772
118.401
117.037
115.68
114.33
112.987
111.649
110.318
108.992
107.671
106.356
105.045
103.74
102.439
101.143
99.8508
98.563
97.2792
95.9993
94.7232
93.4509
92.182
90.9167
89.6547
88.396
87.1404
85.888
84.6385
83.392
82.1484
80.9075
79.6693
78.4338
77.2008
75.9704
74.7424
73.5169
72.2936
71.0727
69.854
68.6376
67.4232
66.211
65.0008
63.7926
62.5864
61.3821
60.1797
58.9791
57.7804
56.5834
55.3882
54.1947
53.0028
51.8126
50.624
49.4369
48.2514
47.0675
45.8849
44.7039
43.5243
42.3461
41.1692
39.9937
38.8195
37.6466
36.4749
35.3044
34.1352
32.9671
31.8001
30.6342
29.4694
28.3056
27.1427
25.9809
24.8199
23.6599
22.5007
21.3423
20.1846
19.0277
17.8715
16.7159
15.5609
14.4065
13.2526
12.0992
10.9462
9.79367
8.64142
7.4895
6.33784
5.18642
4.03512
2.88439
1.73234
0.594247
157.98
153.738
151.715
149.927
148.215
146.517
144.852
143.226
141.633
140.066
138.521
136.996
135.49
134
132.525
131.064
129.616
128.18
126.755
125.34
123.935
122.539
121.152
119.773
118.402
117.038
115.681
114.331
112.988
111.65
110.318
108.992
107.672
106.357
105.046
103.741
102.44
101.143
99.8514
98.5635
97.2797
95.9998
94.7237
93.4513
92.1825
90.9171
89.6551
88.3964
87.1408
85.8883
84.6389
83.3923
82.1487
80.9078
79.6696
78.434
77.2011
75.9706
74.7427
73.5171
72.2939
71.0729
69.8542
68.6377
67.4234
66.2111
65.0009
63.7928
62.5865
61.3822
60.1798
58.9793
57.7805
56.5835
55.3883
54.1948
53.0029
51.8127
50.624
49.437
48.2515
47.0675
45.885
44.704
43.5244
42.3461
41.1693
39.9938
38.8195
37.6466
36.4749
35.3045
34.1352
32.9671
31.8001
30.6342
29.4694
28.3056
27.1427
25.9808
24.8199
23.6599
22.5006
21.3422
20.1846
19.0277
17.8714
16.7158
15.5609
14.4065
13.2526
12.0992
10.9462
9.79361
8.64136
7.48943
6.33776
5.18634
4.03505
2.88431
1.73226
0.594022
157.916
153.764
151.716
149.928
148.216
146.518
144.852
143.227
141.634
140.067
138.522
136.998
135.491
134.002
132.527
131.066
129.618
128.182
126.756
125.342
123.937
122.541
121.153
119.774
118.403
117.039
115.682
114.332
112.989
111.651
110.319
108.993
107.673
106.357
105.047
103.741
102.441
101.144
99.8521
98.5642
97.2803
96.0004
94.7243
93.4519
92.183
90.9176
89.6556
88.3969
87.1413
85.8888
84.6393
83.3928
82.1491
80.9081
79.6699
78.4344
77.2014
75.971
74.743
73.5174
72.2941
71.0732
69.8545
68.638
67.4236
66.2114
65.0011
63.793
62.5867
61.3824
60.18
58.9794
57.7807
56.5837
55.3884
54.1949
53.003
51.8128
50.6242
49.4371
48.2516
47.0676
45.8851
44.704
43.5244
42.3462
41.1693
39.9938
38.8196
37.6467
36.4749
35.3045
34.1352
32.9671
31.8001
30.6342
29.4694
28.3056
27.1427
25.9808
24.8199
23.6599
22.5006
21.3422
20.1846
19.0277
17.8714
16.7158
15.5608
14.4064
13.2525
12.0991
10.9461
9.79354
8.64129
7.48936
6.33769
5.18627
4.03497
2.88422
1.73218
0.593712
157.843
153.795
151.718
149.929
148.217
146.519
144.853
143.227
141.634
140.067
138.523
136.998
135.492
134.003
132.528
131.067
129.619
128.183
126.758
125.343
123.938
122.542
121.155
119.776
118.405
117.041
115.684
114.334
112.99
111.652
110.321
108.995
107.674
106.358
105.048
103.742
102.441
101.145
99.8529
98.565
97.2812
96.0012
94.7251
93.4526
92.1837
90.9183
89.6563
88.3975
87.1419
85.8894
84.6399
83.3933
82.1496
80.9086
79.6704
78.4349
77.2019
75.9714
74.7434
73.5178
72.2945
71.0736
69.8548
68.6383
67.424
66.2117
65.0014
63.7932
62.587
61.3827
60.1802
58.9797
57.7809
56.5839
55.3886
54.1951
53.0032
51.813
50.6243
49.4373
48.2518
47.0678
45.8852
44.7042
43.5245
42.3463
41.1694
39.9939
38.8197
37.6467
36.475
35.3045
34.1353
32.9672
31.8001
30.6342
29.4694
28.3056
27.1427
25.9809
24.8199
23.6599
22.5006
21.3422
20.1846
19.0276
17.8714
16.7158
15.5608
14.4064
13.2525
12.0991
10.9461
9.79349
8.64123
7.48929
6.33763
5.1862
4.03489
2.88413
1.7321
0.593285
157.759
153.83
151.72
149.931
148.218
146.52
144.853
143.228
141.635
140.067
138.523
136.999
135.493
134.003
132.529
131.068
129.621
128.184
126.759
125.345
123.94
122.544
121.157
119.777
118.406
117.042
115.685
114.335
112.991
111.654
110.322
108.996
107.675
106.36
105.049
103.744
102.443
101.146
99.854
98.566
97.2821
96.0022
94.726
93.4535
92.1846
90.9191
89.6571
88.3983
87.1426
85.8901
84.6406
83.394
82.1502
80.9093
79.671
78.4355
77.2024
75.972
74.7439
73.5183
72.295
71.0741
69.8553
68.6388
67.4244
66.2121
65.0019
63.7936
62.5874
61.383
60.1806
58.98
57.7812
56.5842
55.3889
54.1954
53.0035
51.8132
50.6246
49.4375
48.252
47.068
45.8854
44.7044
43.5247
42.3465
41.1696
39.9941
38.8198
37.6469
36.4751
35.3047
34.1354
32.9673
31.8002
30.6343
29.4695
28.3057
27.1428
25.9809
24.82
23.6599
22.5006
21.3422
20.1846
19.0277
17.8714
16.7158
15.5608
14.4064
13.2525
12.099
10.946
9.79345
8.64119
7.48925
6.33757
5.18614
4.03483
2.88405
1.73202
0.592695
157.664
153.869
151.722
149.933
148.22
146.521
144.854
143.228
141.635
140.068
138.523
136.999
135.493
134.003
132.529
131.069
129.621
128.185
126.76
125.346
123.941
122.545
121.158
119.779
118.408
117.044
115.687
114.337
112.993
111.655
110.323
108.997
107.677
106.361
105.051
103.745
102.444
101.147
99.8552
98.5672
97.2833
96.0033
94.7271
93.4546
92.1856
90.9202
89.6581
88.3992
87.1436
85.891
84.6414
83.3948
82.1511
80.9101
79.6718
78.4362
77.2032
75.9727
74.7446
73.519
72.2957
71.0747
69.8559
68.6394
67.425
66.2127
65.0024
63.7942
62.5879
61.3835
60.1811
58.9805
57.7817
56.5846
55.3893
54.1958
53.0039
51.8136
50.6249
49.4379
48.2523
47.0683
45.8857
44.7047
43.525
42.3468
41.1698
39.9943
38.8201
37.6471
36.4753
35.3049
34.1356
32.9674
31.8004
30.6345
29.4696
28.3058
27.1429
25.981
24.8201
23.66
22.5007
21.3423
20.1847
19.0277
17.8714
16.7158
15.5608
14.4064
13.2525
12.0991
10.9461
9.79345
8.64118
7.48923
6.33755
5.1861
4.03479
2.88398
1.73196
0.591884
157.558
153.913
151.724
149.935
148.222
146.523
144.855
143.229
141.636
140.069
138.524
136.999
135.493
134.004
132.529
131.069
129.621
128.185
126.76
125.346
123.941
122.546
121.159
119.78
118.409
117.045
115.688
114.338
112.994
111.657
110.325
108.999
107.678
106.363
105.052
103.746
102.445
101.149
99.8566
98.5686
97.2846
96.0046
94.7284
93.4558
92.1869
90.9214
89.6592
88.4004
87.1447
85.8921
84.6425
83.3959
82.1521
80.9111
79.6728
78.4372
77.2041
75.9736
74.7455
73.5198
72.2965
71.0755
69.8567
68.6401
67.4257
66.2134
65.0031
63.7948
62.5885
61.3842
60.1817
58.9811
57.7823
56.5852
55.3899
54.1963
53.0044
51.8141
50.6254
49.4383
48.2528
47.0687
45.8862
44.7051
43.5254
42.3471
41.1702
39.9947
38.8204
37.6474
36.4757
35.3052
34.1359
32.9677
31.8007
30.6347
29.4699
28.306
27.1431
25.9812
24.8203
23.6602
22.5009
21.3425
20.1848
19.0279
17.8716
16.716
15.5609
14.4065
13.2526
12.0991
10.9461
9.7935
8.64122
7.48926
6.33757
5.18611
4.03479
2.88395
1.73193
0.590771
157.44
153.961
151.727
149.937
148.225
146.524
144.857
143.23
141.637
140.069
138.524
137
135.494
134.004
132.53
131.069
129.621
128.185
126.761
125.346
123.941
122.546
121.159
119.78
118.409
117.045
115.689
114.339
112.995
111.658
110.326
109
107.679
106.364
105.054
103.748
102.447
101.15
99.8581
98.5701
97.2861
96.0061
94.7298
93.4573
92.1883
90.9227
89.6606
88.4017
87.146
85.8934
84.6438
83.3971
82.1533
80.9123
79.674
78.4383
77.2052
75.9747
74.7466
73.5209
72.2975
71.0765
69.8577
68.6411
67.4267
66.2143
65.004
63.7957
62.5894
61.385
60.1825
58.9819
57.783
56.586
55.3906
54.197
53.0051
51.8148
50.6261
49.439
48.2534
47.0694
45.8868
44.7057
43.526
42.3477
41.1707
39.9952
38.8209
37.6479
36.4761
35.3056
34.1363
32.9681
31.8011
30.6351
29.4702
28.3064
27.1435
25.9816
24.8206
23.6605
22.5012
21.3428
20.1851
19.0281
17.8718
16.7162
15.5611
14.4067
13.2527
12.0993
10.9463
9.79363
8.64134
7.48937
6.33766
5.18619
4.03486
2.88396
1.73195
0.589258
157.313
154.011
151.731
149.938
148.228
146.527
144.859
143.232
141.638
140.07
138.525
137.001
135.494
134.005
132.53
131.069
129.622
128.186
126.761
125.346
123.941
122.546
121.159
119.78
118.409
117.045
115.689
114.339
112.995
111.658
110.326
109
107.68
106.365
105.054
103.749
102.448
101.152
99.8594
98.5715
97.2876
96.0076
94.7313
93.4588
92.1898
90.9243
89.6621
88.4032
87.1475
85.8948
84.6452
83.3985
82.1547
80.9137
79.6753
78.4396
77.2065
75.976
74.7479
73.5221
72.2988
71.0777
69.8589
68.6423
67.4278
66.2154
65.0051
63.7968
62.5905
61.3861
60.1836
58.9829
57.784
56.5869
55.3916
54.198
53.006
51.8157
50.627
49.4398
48.2542
47.0702
45.8876
44.7064
43.5267
42.3484
41.1715
39.9959
38.8216
37.6486
36.4768
35.3063
34.1369
32.9687
31.8017
30.6357
29.4708
28.3069
27.144
25.9821
24.8211
23.661
22.5016
21.3432
20.1855
19.0285
17.8722
16.7165
15.5615
14.407
13.253
12.0996
10.9465
9.79388
8.64158
7.48958
6.33786
5.18637
4.03502
2.88406
1.73202
0.587224
157.18
154.062
151.737
149.94
148.231
146.529
144.86
143.233
141.639
140.072
138.526
137.002
135.495
134.005
132.531
131.07
129.622
128.186
126.761
125.347
123.942
122.546
121.159
119.78
118.409
117.046
115.689
114.339
112.995
111.658
110.326
109
107.68
106.365
105.054
103.749
102.448
101.152
99.8599
98.572
97.2883
96.0084
94.7323
93.4599
92.191
90.9256
89.6635
88.4046
87.149
85.8964
84.6468
83.4001
82.1563
80.9152
79.6769
78.4412
77.2081
75.9775
74.7493
73.5236
72.3002
71.0792
69.8603
68.6437
67.4292
66.2168
65.0065
63.7981
62.5918
61.3874
60.1848
58.9841
57.7853
56.5882
55.3928
54.1991
53.0072
51.8168
50.6281
49.4409
48.2553
47.0712
45.8886
44.7075
43.5277
42.3494
41.1724
39.9968
38.8225
37.6495
36.4777
35.3071
34.1378
32.9696
31.8025
30.6365
29.4716
28.3077
27.1447
25.9828
24.8217
23.6616
22.5023
21.3438
20.1861
19.0291
17.8727
16.7171
15.562
14.4075
13.2535
12.1
10.947
9.79429
8.64196
7.48995
6.3382
5.18669
4.03531
2.88428
1.73218
0.58454
157.045
154.111
151.743
149.941
148.235
146.532
144.862
143.235
141.641
140.073
138.527
137.003
135.496
134.006
132.532
131.071
129.623
128.187
126.762
125.347
123.942
122.547
121.16
119.781
118.41
117.046
115.689
114.339
112.996
111.658
110.327
109.001
107.68
106.365
105.055
103.749
102.448
101.152
99.8599
98.5721
97.2883
96.0084
94.7324
93.46
92.1912
90.9259
89.6639
88.4051
87.1496
85.8971
84.6476
83.4011
82.1574
80.9164
79.6782
78.4426
77.2095
75.979
74.7509
73.5252
72.3019
71.0808
69.8619
68.6453
67.4308
66.2184
65.008
63.7997
62.5933
61.3889
60.1863
58.9856
57.7867
56.5896
55.3942
54.2005
53.0086
51.8182
50.6294
49.4423
48.2567
47.0725
45.8899
44.7087
43.529
42.3507
41.1737
39.998
38.8237
37.6507
36.4788
35.3083
34.1389
32.9707
31.8035
30.6375
29.4726
28.3087
27.1457
25.9837
24.8227
23.6625
22.5032
21.3447
20.1869
19.0299
17.8735
16.7178
15.5627
14.4082
13.2542
12.1007
10.9476
9.79489
8.64254
7.4905
6.33872
5.18719
4.03578
2.88465
1.73245
0.581095
156.918
154.156
151.75
149.941
148.238
146.534
144.864
143.236
141.642
140.074
138.528
137.003
135.497
134.007
132.532
131.071
129.623
128.187
126.762
125.348
123.943
122.547
121.16
119.781
118.41
117.046
115.689
114.339
112.996
111.658
110.327
109.001
107.68
106.365
105.055
103.749
102.448
101.152
99.86
98.5722
97.2884
96.0085
94.7325
93.4601
92.1912
90.9259
89.6639
88.4052
87.1496
85.8971
84.6477
83.4012
82.1575
80.9166
79.6784
78.4429
77.21
75.9795
74.7515
73.526
72.3027
71.0818
69.863
68.6465
67.4321
66.2198
65.0095
63.8013
62.5949
61.3905
60.188
58.9873
57.7885
56.5913
55.3959
54.2023
53.0103
51.8199
50.6311
49.4439
48.2583
47.0741
45.8915
44.7103
43.5305
42.3521
41.1751
39.9995
38.8251
37.6521
36.4802
35.3096
34.1402
32.972
31.8049
30.6388
29.4739
28.3099
27.1469
25.9849
24.8239
23.6637
22.5043
21.3458
20.188
19.0309
17.8745
16.7188
15.5637
14.4092
13.2551
12.1016
10.9484
9.79572
8.64334
7.49127
6.33947
5.1879
4.03646
2.88521
1.73285
0.57688
156.81
154.192
151.757
149.941
148.241
146.537
144.865
143.238
141.643
140.075
138.529
137.004
135.498
134.008
132.533
131.072
129.624
128.188
126.763
125.348
123.943
122.547
121.16
119.781
118.41
117.047
115.69
114.34
112.996
111.659
110.327
109.001
107.681
106.365
105.055
103.749
102.449
101.152
99.8602
98.5723
97.2885
96.0087
94.7326
93.4602
92.1914
90.926
89.664
88.4053
87.1497
85.8972
84.6478
83.4012
82.1576
80.9167
79.6785
78.4429
77.21
75.9795
74.7515
73.526
72.3027
71.0818
69.8631
68.6466
67.4322
66.22
65.0098
63.8016
62.5953
61.391
60.1886
58.988
57.7893
56.5923
55.397
54.2034
53.0115
51.8212
50.6325
49.4454
48.2599
47.0758
45.8932
44.712
43.5323
42.354
41.177
40.0013
38.827
37.6539
36.482
35.3114
34.142
32.9737
31.8066
30.6405
29.4755
28.3115
27.1485
25.9865
24.8254
23.6651
22.5057
21.3472
20.1893
19.0323
17.8758
16.7201
15.5649
14.4103
13.2563
12.1027
10.9495
9.79677
8.64435
7.49225
6.34042
5.18882
4.03734
2.88599
1.73342
0.572212
156.741
154.215
151.762
149.941
148.242
146.538
144.867
143.238
141.644
140.076
138.53
137.005
135.498
134.008
132.533
131.072
129.624
128.188
126.763
125.348
123.944
122.548
121.161
119.782
118.411
117.047
115.69
114.34
112.996
111.659
110.327
109.001
107.681
106.365
105.055
103.75
102.449
101.152
99.8604
98.5725
97.2887
96.0088
94.7327
93.4603
92.1915
90.9261
89.6641
88.4054
87.1498
85.8973
84.6479
83.4013
82.1576
80.9167
79.6785
78.443
77.21
75.9796
74.7516
73.526
72.3028
71.0819
69.8632
68.6467
67.4323
66.22
65.0098
63.8016
62.5954
61.3911
60.1886
58.988
57.7893
56.5923
55.397
54.2035
53.0116
51.8213
50.6327
49.4456
48.2601
47.076
45.8935
44.7124
43.5328
42.3545
41.1776
40.002
38.8277
37.6547
36.4829
35.3124
34.143
32.9748
31.8077
30.6417
29.4768
28.3128
27.1499
25.9879
24.8268
23.6666
22.5072
21.3486
20.1908
19.0337
17.8773
16.7215
15.5664
14.4118
13.2577
12.1041
10.9509
9.79809
8.64565
7.49352
6.34165
5.19002
4.03851
2.88707
1.73428
0.568587
156.741
154.215
151.762
149.941
148.242
146.538
144.867
143.238
141.644
140.076
138.53
137.005
135.498
134.008
132.533
131.072
129.624
128.188
126.763
125.348
123.944
122.548
121.161
119.782
118.411
117.047
115.69
114.34
112.996
111.659
110.327
109.001
107.681
106.365
105.055
103.75
102.449
101.152
99.8604
98.5725
97.2887
96.0088
94.7327
93.4603
92.1915
90.9261
89.6641
88.4054
87.1498
85.8973
84.6479