/*--------------------------------*- C++ -*----------------------------------*\
  =========                 |
  \\      /  F ield         | OpenFOAM: The Open Source CFD Toolbox
   \\    /   O peration     | Website:  https://openfoam.org
    \\  /    A nd           | Version:  8
     \\/     M anipulation  |
\*---------------------------------------------------------------------------*/
FoamFile
{
    version     2.0;
    format      ascii;
    class       surfaceScalarField;
    location    "650";
    object      phi;
}
// * * * * * * * * * * * * * * * * * * * * * * * * * * * * * * * * * * * * * //

dimensions      [0 3 -1 0 0 0 0];

internalField   nonuniform List<scalar> 
14458
(
0.00222126
0.00139905
0.00205682
0.000164437
0.00198942
6.74044e-05
0.00194726
4.21617e-05
0.00191671
3.05476e-05
0.00189296
2.37483e-05
0.00187368
1.92767e-05
0.00185758
1.61007e-05
0.00184386
1.37259e-05
0.00183197
1.18873e-05
0.00182154
1.04245e-05
0.00181231
9.23436e-06
0.00180406
8.24797e-06
0.00179664
7.41793e-06
0.00178993
6.71045e-06
0.00178383
6.10079e-06
0.00177826
5.57036e-06
0.00177315
5.105e-06
0.00176846
4.69357e-06
0.00176413
4.32767e-06
0.00176013
4.00024e-06
0.00175643
3.70568e-06
0.00175299
3.43936e-06
0.00174979
3.19765e-06
0.00174681
2.97734e-06
0.00174403
2.77582e-06
0.00174144
2.5906e-06
0.00173902
2.42033e-06
0.00173676
2.26314e-06
0.00173464
2.11763e-06
0.00173265
1.98244e-06
0.0017308
1.85687e-06
0.00172906
1.73981e-06
0.00172743
1.63048e-06
0.0017259
1.5276e-06
0.00172446
1.43169e-06
0.00172312
1.34162e-06
0.00172186
1.25691e-06
0.00172069
1.17664e-06
0.00171958
1.10141e-06
0.00171855
1.03034e-06
0.00171759
9.63206e-07
0.00171669
8.98418e-07
0.00171585
8.38323e-07
0.00171507
7.8132e-07
0.00171434
7.27341e-07
0.00171366
6.75026e-07
0.00171304
6.26439e-07
0.00171245
5.80169e-07
0.00171192
5.36301e-07
0.00171142
4.9206e-07
0.00171097
4.52401e-07
0.00171055
4.14452e-07
0.00171017
3.78458e-07
0.00170983
3.41995e-07
0.00170952
3.0927e-07
0.00170924
2.77745e-07
0.00170899
2.47841e-07
0.00170878
2.15056e-07
0.00170859
1.8774e-07
0.00170842
1.61235e-07
0.00170829
1.36158e-07
0.00170818
1.08746e-07
0.00170809
8.57313e-08
0.00170803
6.31841e-08
0.00170799
4.19248e-08
0.00170797
1.52965e-08
0.00170797
-4.27076e-09
0.00170799
-2.36133e-08
0.00170803
-4.16446e-08
0.0017081
-6.39915e-08
0.00170817
-8.05813e-08
0.00170827
-9.72551e-08
0.00170839
-1.12661e-07
0.00170852
-1.36308e-07
0.00170867
-1.5039e-07
0.00170883
-1.64783e-07
0.00170901
-1.77759e-07
0.0017092
-1.97278e-07
0.00170941
-2.09102e-07
0.00170964
-2.21551e-07
0.00170987
-2.32553e-07
0.00171012
-2.55416e-07
0.00171038
-2.65258e-07
0.00171066
-2.75962e-07
0.00171095
-2.84886e-07
0.00171125
-3.03309e-07
0.00171156
-3.11196e-07
0.00171188
-3.20338e-07
0.00171221
-3.2763e-07
0.00171256
-3.51066e-07
0.00171291
-3.57235e-07
0.00171327
-3.64865e-07
0.00171365
-3.70169e-07
0.00171403
-3.87772e-07
0.00171442
-3.92113e-07
0.00171483
-3.9833e-07
0.00171524
-4.02257e-07
0.00171565
-4.2525e-07
0.00171608
-4.28172e-07
0.00171651
-4.33017e-07
0.00171696
-4.35118e-07
0.0017174
-4.50937e-07
0.00171786
-4.52193e-07
0.00171832
-4.55595e-07
0.00171879
-4.56484e-07
0.00171926
-4.75715e-07
0.00171973
-4.7581e-07
0.00172022
-4.77732e-07
0.0017207
-4.76988e-07
0.00172119
-4.87239e-07
0.00172168
-4.85953e-07
0.00172217
-4.86337e-07
0.00172267
-4.84755e-07
0.00172317
-4.92777e-07
0.00172366
-4.91108e-07
0.00172416
-4.9033e-07
0.00172466
-4.88106e-07
0.00172515
-4.8718e-07
0.00172564
-4.78426e-07
0.00172612
-4.7573e-07
-2.48026e-07
0.00311152
0.00259572
0.00288393
0.000392018
0.00278399
0.000167352
0.00272314
0.000103005
0.0026798
7.3891e-05
0.0026464
5.71453e-05
0.00261943
4.62483e-05
0.00259697
3.85571e-05
0.00257787
3.28284e-05
0.00256135
2.84047e-05
0.00254689
2.48921e-05
0.00253408
2.20383e-05
0.00252265
1.96758e-05
0.00251238
1.76895e-05
0.00250309
1.59979e-05
0.00249465
1.4541e-05
0.00248695
1.32741e-05
0.00247989
1.21631e-05
0.0024734
1.11813e-05
0.00246742
1.03084e-05
0.00246189
9.52754e-06
0.00245677
8.82521e-06
0.00245202
8.19042e-06
0.00244761
7.61435e-06
0.00244349
7.08941e-06
0.00243966
6.6093e-06
0.00243608
6.1683e-06
0.00243274
5.76277e-06
0.00242961
5.38844e-06
0.00242669
5.04197e-06
0.00242395
4.72025e-06
0.00242139
4.4213e-06
0.00241898
4.14268e-06
0.00241673
3.88248e-06
0.00241462
3.6381e-06
0.00241264
3.40988e-06
0.00241079
3.19558e-06
0.00240905
2.99404e-06
0.00240742
2.80348e-06
0.0024059
2.62449e-06
0.00240447
2.45546e-06
0.00240314
2.29574e-06
0.00240189
2.1426e-06
0.00240073
1.99955e-06
0.00239965
1.8639e-06
0.00239864
1.73532e-06
0.0023977
1.61156e-06
0.00239683
1.49568e-06
0.00239603
1.38539e-06
0.00239528
1.28062e-06
0.0023946
1.17693e-06
0.00239397
1.08202e-06
0.00239339
9.91284e-07
0.00239286
9.04954e-07
0.00239238
8.19196e-07
0.00239195
7.40503e-07
0.00239156
6.64872e-07
0.00239122
5.92789e-07
0.00239092
5.17177e-07
0.00239065
4.51119e-07
0.00239043
3.87268e-07
0.00239023
3.26436e-07
0.00239008
2.62759e-07
0.00238996
2.06722e-07
0.00238987
1.52193e-07
0.00238981
1.00272e-07
0.00238978
4.05459e-08
0.00238979
-7.47602e-09
0.00238982
-5.45014e-08
0.00238987
-9.89833e-08
0.00238996
-1.49678e-07
0.00239007
-1.90856e-07
0.0023902
-2.316e-07
0.00239036
-2.70017e-07
0.00239054
-3.20969e-07
0.00239075
-3.56432e-07
0.00239097
-3.91894e-07
0.00239122
-4.2487e-07
0.00239149
-4.67713e-07
0.00239178
-4.98147e-07
0.00239209
-5.29095e-07
0.00239241
-5.57604e-07
0.00239276
-6.04494e-07
0.00239312
-6.30548e-07
0.00239351
-6.57533e-07
0.0023939
-6.81605e-07
0.00239432
-7.20294e-07
0.00239475
-7.42191e-07
0.0023952
-7.65632e-07
0.00239566
-7.86109e-07
0.00239613
-8.31804e-07
0.00239662
-8.50014e-07
0.00239713
-8.70108e-07
0.00239765
-8.86492e-07
0.00239818
-9.21927e-07
0.00239872
-9.3631e-07
0.00239928
-9.53204e-07
0.00239985
-9.6644e-07
0.00240043
-1.00951e-06
0.00240102
-1.02066e-06
0.00240162
-1.03437e-06
0.00240224
-1.04367e-06
0.00240286
-1.07421e-06
0.00240349
-1.0816e-06
0.00240413
-1.09184e-06
0.00240477
-1.09795e-06
0.00240543
-1.13269e-06
0.00240609
-1.13688e-06
0.00240676
-1.14337e-06
0.00240743
-1.1454e-06
0.00240811
-1.16432e-06
0.00240879
-1.16468e-06
0.00240947
-1.16704e-06
0.00241016
-1.16595e-06
0.00241085
-1.17972e-06
0.00241154
-1.1776e-06
0.00241223
-1.17615e-06
0.00241292
-1.17193e-06
0.00241361
-1.16952e-06
0.00241428
-1.14792e-06
0.00241495
-1.13956e-06
-5.87655e-07
0.00403426
0.00368821
0.00373892
0.00068736
0.00360103
0.000305243
0.00351841
0.000185628
0.00346051
0.000131791
0.00341635
0.0001013
0.00338092
8.16792e-05
0.00335155
6.79316e-05
0.00332663
5.77414e-05
0.00330514
4.98989e-05
0.00328634
4.36872e-05
0.00326973
3.86502e-05
0.00325492
3.44865e-05
0.00324162
3.09902e-05
0.0032296
2.80155e-05
0.00321869
2.54557e-05
0.00320873
2.32313e-05
0.00319961
2.12818e-05
0.00319123
1.95602e-05
0.00318351
1.803e-05
0.00317637
1.66617e-05
0.00316977
1.54315e-05
0.00316364
1.432e-05
0.00315794
1.33116e-05
0.00315264
1.23929e-05
0.00314769
1.15529e-05
0.00314308
1.07817e-05
0.00313877
1.00724e-05
0.00313474
9.41789e-06
0.00313097
8.81218e-06
0.00312744
8.24998e-06
0.00312413
7.72753e-06
0.00312104
7.24069e-06
0.00311813
6.7861e-06
0.00311541
6.35969e-06
0.00311286
5.96111e-06
0.00311047
5.58687e-06
0.00310822
5.23499e-06
0.00310613
4.9027e-06
0.00310416
4.59024e-06
0.00310232
4.29518e-06
0.0031006
4.01636e-06
0.00309899
3.75007e-06
0.00309749
3.5003e-06
0.00309609
3.26342e-06
0.00309479
3.03882e-06
0.00309357
2.82343e-06
0.00309245
2.62087e-06
0.0030914
2.428e-06
0.00309044
2.24466e-06
0.00308955
2.06517e-06
0.00308873
1.89885e-06
0.00308798
1.73983e-06
0.0030873
1.58836e-06
0.00308668
1.43949e-06
0.00308612
1.3012e-06
0.00308562
1.1683e-06
0.00308517
1.04145e-06
0.00308477
9.11751e-07
0.00308443
7.9528e-07
0.00308413
6.82781e-07
0.00308388
5.75359e-07
0.00308368
4.65585e-07
0.00308352
3.66432e-07
0.0030834
2.70101e-07
0.00308332
1.78106e-07
0.00308328
7.74504e-08
0.00308328
-7.87447e-09
0.00308332
-9.12338e-08
0.00308339
-1.70452e-07
0.0030835
-2.56585e-07
0.00308364
-3.30141e-07
0.00308381
-4.02606e-07
0.00308401
-4.71371e-07
0.00308424
-5.5492e-07
0.0030845
-6.18724e-07
0.00308479
-6.82107e-07
0.00308511
-7.4167e-07
0.00308545
-8.12924e-07
0.00308582
-8.68244e-07
0.00308622
-9.2391e-07
0.00308664
-9.75877e-07
0.00308708
-1.05001e-06
0.00308755
-1.09801e-06
0.00308804
-1.14697e-06
0.00308855
-1.19167e-06
0.00308908
-1.25409e-06
0.00308963
-1.29529e-06
0.00309021
-1.3383e-06
0.0030908
-1.377e-06
0.00309141
-1.44638e-06
0.00309204
-1.48154e-06
0.00309269
-1.51896e-06
0.00309336
-1.55112e-06
0.00309404
-1.60654e-06
0.00309474
-1.63552e-06
0.00309546
-1.66754e-06
0.00309619
-1.69433e-06
0.00309693
-1.7575e-06
0.00309769
-1.78098e-06
0.00309846
-1.80752e-06
0.00309925
-1.82782e-06
0.00310005
-1.87404e-06
0.00310086
-1.89113e-06
0.00310168
-1.91156e-06
0.00310251
-1.92602e-06
0.00310336
-1.97525e-06
0.00310421
-1.98635e-06
0.00310506
-1.99995e-06
0.00310593
-2.0071e-06
0.0031068
-2.03457e-06
0.00310767
-2.03847e-06
0.00310855
-2.04435e-06
0.00310944
-2.045e-06
0.00311032
-2.06317e-06
0.00311121
-2.06121e-06
0.00311209
-2.05953e-06
0.00311298
-2.05316e-06
0.00311386
-2.04838e-06
0.00311473
-2.0099e-06
0.00311559
-2.00148e-06
-1.03172e-06
0.00509521
0.00469385
0.00472975
0.00105283
0.00454516
0.000489829
0.00443475
0.000296042
0.00435841
0.000208122
0.00430083
0.000158888
0.00425496
0.000127545
0.00421713
0.000105762
0.00418516
8.97071e-05
0.00415766
7.74013e-05
0.00413366
6.76843e-05
0.00411249
5.98237e-05
0.00409364
5.33383e-05
0.00407673
4.79009e-05
0.00406146
4.32803e-05
0.00404761
3.93086e-05
0.00403498
3.58605e-05
0.00402342
3.28409e-05
0.00401281
3.01761e-05
0.00400303
2.7809e-05
0.00399399
2.56934e-05
0.00398563
2.37923e-05
0.00397788
2.20754e-05
0.00397067
2.05182e-05
0.00396396
1.91001e-05
0.00395771
1.78039e-05
0.00395188
1.66144e-05
0.00394643
1.55206e-05
0.00394134
1.45114e-05
0.00393657
1.35777e-05
0.00393211
1.27114e-05
0.00392793
1.19064e-05
0.00392401
1.11565e-05
0.00392034
1.04564e-05
0.0039169
9.80015e-06
0.00391368
9.18652e-06
0.00391065
8.6105e-06
0.00390782
8.06896e-06
0.00390516
7.55796e-06
0.00390268
7.07723e-06
0.00390035
6.62331e-06
0.00389817
6.19437e-06
0.00389613
5.78556e-06
0.00389423
5.40127e-06
0.00389246
5.0368e-06
0.00389081
4.69114e-06
0.00388927
4.36032e-06
0.00388784
4.04839e-06
0.00388652
3.75138e-06
0.00388529
3.46887e-06
0.00388416
3.19387e-06
0.00388312
2.93734e-06
0.00388217
2.69209e-06
0.0038813
2.45827e-06
0.00388051
2.22982e-06
0.0038798
2.01611e-06
0.00387915
1.81084e-06
0.00387858
1.61468e-06
0.00387807
1.41689e-06
0.00387763
1.23657e-06
0.00387725
1.06257e-06
0.00387693
8.9614e-07
0.00387667
7.2833e-07
0.00387646
5.74541e-07
0.0038763
4.25399e-07
0.0038762
2.82644e-07
0.00387614
1.30698e-07
0.00387614
-1.90839e-09
0.00387618
-1.31163e-07
0.00387626
-2.54429e-07
0.00387639
-3.84962e-07
0.00387656
-4.99584e-07
0.00387677
-6.1204e-07
0.00387702
-7.19263e-07
0.0038773
-8.43361e-07
0.00387763
-9.43131e-07
0.00387799
-1.04168e-06
0.00387838
-1.13498e-06
0.00387881
-1.24156e-06
0.00387927
-1.3285e-06
0.00387976
-1.41524e-06
0.00388028
-1.49698e-06
0.00388083
-1.60466e-06
0.00388142
-1.6806e-06
0.00388202
-1.75715e-06
0.00388266
-1.82811e-06
0.00388333
-1.91976e-06
0.00388402
-1.98562e-06
0.00388473
-2.05317e-06
0.00388547
-2.11509e-06
0.00388624
-2.21328e-06
0.00388702
-2.27018e-06
0.00388783
-2.32933e-06
0.00388867
-2.38173e-06
0.00388952
-2.4615e-06
0.00389039
-2.50929e-06
0.00389129
-2.56026e-06
0.0038922
-2.60448e-06
0.00389313
-2.69178e-06
0.00389408
-2.73123e-06
0.00389505
-2.77383e-06
0.00389603
-2.80842e-06
0.00389703
-2.87348e-06
0.00389804
-2.90324e-06
0.00389907
-2.9364e-06
0.00390011
-2.96175e-06
0.00390116
-3.0281e-06
0.00390222
-3.04829e-06
0.00390329
-3.07073e-06
0.00390437
-3.08469e-06
0.00390546
-3.12223e-06
0.00390656
-3.13088e-06
0.00390766
-3.14103e-06
0.00390876
-3.14408e-06
0.00390986
-3.16739e-06
0.00391097
-3.1657e-06
0.00391208
-3.16334e-06
0.00391318
-3.15425e-06
0.00391428
-3.14657e-06
0.00391536
-3.0866e-06
0.00391644
-3.07331e-06
-1.58032e-06
0.00634387
0.00561
0.00590982
0.00148687
0.00566913
0.000730514
0.00552327
0.000441904
0.00542325
0.000308147
0.0053485
0.000233633
0.00528942
0.000186627
0.00524096
0.000154219
0.00520019
0.000130481
0.00516522
0.00011237
0.00513478
9.81198e-05
0.00510798
8.66241e-05
0.00508416
7.7161e-05
0.00506282
6.92416e-05
0.00504358
6.25224e-05
0.00502613
5.67543e-05
0.00501024
5.17521e-05
0.0049957
4.73759e-05
0.00498236
4.35171e-05
0.00497008
4.00919e-05
0.00495874
3.70325e-05
0.00494825
3.4285e-05
0.00493852
3.1805e-05
0.00492948
2.95569e-05
0.00492107
2.75103e-05
0.00491323
2.56404e-05
0.00490592
2.39253e-05
0.00489909
2.23485e-05
0.00489271
2.08941e-05
0.00488674
1.9549e-05
0.00488115
1.83014e-05
0.00487591
1.71423e-05
0.00487101
1.60627e-05
0.00486641
1.50552e-05
0.0048621
1.41114e-05
0.00485805
1.32287e-05
0.00485426
1.24002e-05
0.00485071
1.16215e-05
0.00484738
1.08872e-05
0.00484426
1.01961e-05
0.00484134
9.54368e-06
0.00483861
8.92718e-06
0.00483605
8.34053e-06
0.00483367
7.78815e-06
0.00483144
7.26424e-06
0.00482936
6.7673e-06
0.00482743
6.29239e-06
0.00482563
5.84376e-06
0.00482397
5.41651e-06
0.00482243
5.01001e-06
0.004821
4.61602e-06
0.00481969
4.24664e-06
0.00481849
3.89345e-06
0.00481739
3.55657e-06
0.00481639
3.22886e-06
0.00481549
2.92075e-06
0.00481467
2.62482e-06
0.00481395
2.34188e-06
0.0048133
2.05961e-06
0.00481274
1.79934e-06
0.00481225
1.54826e-06
0.00481184
1.30795e-06
0.0048115
1.06802e-06
0.00481123
8.45818e-07
0.00481103
6.30469e-07
0.00481088
4.24175e-07
0.00481081
2.09171e-07
0.00481079
1.73778e-08
0.00481082
-1.69443e-07
0.00481092
-3.47895e-07
0.00481106
-5.33218e-07
0.00481126
-6.99283e-07
0.00481151
-8.61942e-07
0.00481181
-1.01732e-06
0.00481216
-1.19055e-06
0.00481255
-1.3354e-06
0.00481299
-1.47814e-06
0.00481347
-1.6137e-06
0.00481399
-1.76339e-06
0.00481455
-1.89e-06
0.00481515
-2.01586e-06
0.00481579
-2.13495e-06
0.00481646
-2.28238e-06
0.00481718
-2.39346e-06
0.00481792
-2.50485e-06
0.0048187
-2.60885e-06
0.00481952
-2.73558e-06
0.00482037
-2.83256e-06
0.00482124
-2.9312e-06
0.00482215
-3.02244e-06
0.00482309
-3.15376e-06
0.00482406
-3.23821e-06
0.00482505
-3.325e-06
0.00482608
-3.4031e-06
0.00482713
-3.51155e-06
0.0048282
-3.58333e-06
0.0048293
-3.65853e-06
0.00483042
-3.72499e-06
0.00483157
-3.83919e-06
0.00483274
-3.89913e-06
0.00483392
-3.96239e-06
0.00483513
-4.01537e-06
0.00483636
-4.10207e-06
0.00483761
-4.14826e-06
0.00483887
-4.19792e-06
0.00484015
-4.2374e-06
0.00484144
-4.32207e-06
0.00484275
-4.35416e-06
0.00484407
-4.38819e-06
0.00484539
-4.41119e-06
0.00484673
-4.45984e-06
0.00484808
-4.47489e-06
0.00484943
-4.49086e-06
0.00485079
-4.4973e-06
0.00485214
-4.52525e-06
0.0048535
-4.52416e-06
0.00485486
-4.52136e-06
0.00485622
-4.50903e-06
0.00485757
-4.49733e-06
0.0048589
-4.41071e-06
0.00486023
-4.39803e-06
-2.26273e-06
0.00782498
0.00642447
0.00732969
0.00198217
0.00702383
0.00103637
0.00683327
0.000632458
0.00670272
0.000438695
0.00660586
0.000330496
0.00652983
0.000262658
0.00646783
0.000216224
0.00641588
0.000182422
0.00637149
0.00015676
0.00633297
0.000136646
0.00629912
0.000120472
0.00626909
0.000107192
0.00624223
9.61021e-05
0.00621804
8.67098e-05
0.00619614
7.86592e-05
0.0061762
7.16869e-05
0.00615798
6.55939e-05
0.00614127
6.02269e-05
0.0061259
5.5467e-05
0.00611171
5.12189e-05
0.00609859
4.74064e-05
0.00608643
4.39674e-05
0.00607513
4.08516e-05
0.00606463
3.80167e-05
0.00605484
3.54277e-05
0.00604571
3.30542e-05
0.00603718
3.08729e-05
0.00602922
2.88617e-05
0.00602176
2.70022e-05
0.00601479
2.52783e-05
0.00600825
2.3677e-05
0.00600213
2.21861e-05
0.00599639
2.07949e-05
0.00599101
1.94927e-05
0.00598596
1.82745e-05
0.00598123
1.71316e-05
0.00597679
1.60575e-05
0.00597263
1.50451e-05
0.00596874
1.40922e-05
0.00596509
1.31927e-05
0.00596167
1.23428e-05
0.00595848
1.15349e-05
0.00595549
1.07734e-05
0.0059527
1.00512e-05
0.00595011
9.36606e-06
0.00594769
8.71196e-06
0.00594544
8.09328e-06
0.00594335
7.50407e-06
0.00594141
6.94331e-06
0.00593963
6.40137e-06
0.00593798
5.8916e-06
0.00593647
5.40419e-06
0.00593509
4.93912e-06
0.00593383
4.48803e-06
0.00593269
4.06251e-06
0.00593166
3.65393e-06
0.00593074
3.26311e-06
0.00592992
2.8759e-06
0.0059292
2.51625e-06
0.00592858
2.1695e-06
0.00592805
1.8374e-06
0.00592761
1.50802e-06
0.00592726
1.20086e-06
0.00592698
9.03459e-07
0.00592679
6.18329e-07
0.00592667
3.25208e-07
0.00592663
6.00413e-08
0.00592666
-1.98008e-07
0.00592675
-4.44931e-07
0.00592692
-6.98021e-07
0.00592715
-9.2786e-07
0.00592744
-1.15252e-06
0.00592779
-1.36752e-06
0.0059282
-1.60145e-06
0.00592866
-1.80211e-06
0.00592918
-1.99931e-06
0.00592976
-2.18716e-06
0.00593038
-2.38993e-06
0.00593106
-2.56562e-06
0.00593178
-2.73956e-06
0.00593255
-2.90478e-06
0.00593337
-3.10117e-06
0.00593423
-3.25565e-06
0.00593514
-3.40977e-06
0.00593608
-3.55457e-06
0.00593707
-3.72433e-06
0.0059381
-3.85973e-06
0.00593916
-3.99639e-06
0.00594027
-4.12377e-06
0.00594141
-4.29582e-06
0.00594258
-4.41425e-06
0.00594379
-4.53478e-06
0.00594503
-4.64456e-06
0.00594631
-4.78806e-06
0.00594761
-4.88943e-06
0.00594895
-4.99413e-06
0.00595032
-5.08797e-06
0.00595171
-5.23515e-06
0.00595313
-5.32033e-06
0.00595458
-5.40866e-06
0.00595605
-5.48432e-06
0.00595754
-5.59738e-06
0.00595906
-5.66379e-06
0.0059606
-5.73341e-06
0.00596215
-5.7903e-06
0.00596373
-5.8974e-06
0.00596532
-5.94411e-06
0.00596692
-5.99209e-06
0.00596854
-6.02624e-06
0.00597017
-6.08835e-06
0.00597181
-6.11128e-06
0.00597345
-6.13409e-06
0.0059751
-6.14469e-06
0.00597676
-6.17852e-06
0.00597841
-6.17809e-06
0.00598007
-6.17431e-06
0.00598172
-6.15794e-06
0.00598337
-6.14152e-06
0.00598498
-6.02219e-06
0.00598659
-6.00464e-06
-3.08665e-06
0.00958315
0.0071223
0.00904307
0.00252225
0.0086654
0.00141405
0.00841974
0.000878119
0.00825013
0.000608298
0.00812471
0.000455921
0.00802681
0.000360555
0.0079474
0.000295637
0.00788117
0.00024865
0.00782478
0.000213152
0.00777598
0.000185442
0.00773322
0.000163236
0.00769536
0.000145055
0.00766155
0.000129908
0.00763115
0.000117107
0.00760366
0.000106153
0.00757866
9.6681e-05
0.00755584
8.84144e-05
0.00753493
8.11413e-05
0.0075157
7.46974e-05
0.00749796
6.89516e-05
0.00748157
6.37993e-05
0.00746638
5.91552e-05
0.00745228
5.49504e-05
0.00743917
5.1127e-05
0.00742696
4.76371e-05
0.00741558
4.44397e-05
0.00740495
4.15024e-05
0.00739502
3.87952e-05
0.00738572
3.62934e-05
0.00737703
3.39749e-05
0.00736888
3.18222e-05
0.00736125
2.98183e-05
0.0073541
2.79493e-05
0.00734739
2.62006e-05
0.0073411
2.4565e-05
0.0073352
2.30307e-05
0.00732966
2.15892e-05
0.00732448
2.02312e-05
0.00731962
1.89528e-05
0.00731506
1.77462e-05
0.0073108
1.66064e-05
0.00730681
1.55239e-05
0.00730308
1.45027e-05
0.0072996
1.35342e-05
0.00729635
1.26154e-05
0.00729332
1.1739e-05
0.0072905
1.09091e-05
0.00728789
1.01188e-05
0.00728547
9.36661e-06
0.00728323
8.6414e-06
0.00728116
7.95738e-06
0.00727926
7.30337e-06
0.00727752
6.67924e-06
0.00727593
6.07536e-06
0.00727449
5.50419e-06
0.00727319
4.95583e-06
0.00727202
4.43125e-06
0.00727098
3.9146e-06
0.00727006
3.43175e-06
0.00726927
2.96638e-06
0.00726858
2.52058e-06
0.00726801
2.08087e-06
0.00726754
1.66851e-06
0.00726718
1.26944e-06
0.00726691
8.86749e-07
0.00726673
4.9795e-07
0.00726665
1.42067e-07
0.00726666
-2.04153e-07
0.00726675
-5.358e-07
0.00726692
-8.72052e-07
0.00726718
-1.18076e-06
0.0072675
-1.4822e-06
0.00726791
-1.7709e-06
0.00726838
-2.07843e-06
0.00726893
-2.34807e-06
0.00726954
-2.61267e-06
0.00727022
-2.86511e-06
0.00727096
-3.13249e-06
0.00727177
-3.36877e-06
0.00727263
-3.60226e-06
0.00727355
-3.82446e-06
0.00727453
-4.07933e-06
0.00727556
-4.28744e-06
0.00727664
-4.49449e-06
0.00727778
-4.68971e-06
0.00727896
-4.91126e-06
0.0072802
-5.09415e-06
0.00728148
-5.27801e-06
0.00728281
-5.45011e-06
0.00728418
-5.6698e-06
0.0072856
-5.83032e-06
0.00728705
-5.99277e-06
0.00728855
-6.14183e-06
0.00729009
-6.32697e-06
0.00729167
-6.46505e-06
0.00729328
-6.60649e-06
0.00729493
-6.73438e-06
0.00729661
-6.91931e-06
0.00729832
-7.0359e-06
0.00730007
-7.15555e-06
0.00730185
-7.25951e-06
0.00730365
-7.40337e-06
0.00730549
-7.49508e-06
0.00730734
-7.58974e-06
0.00730922
-7.66848e-06
0.00731113
-7.80055e-06
0.00731305
-7.86567e-06
0.00731499
-7.93128e-06
0.00731694
-7.97961e-06
0.00731891
-8.05706e-06
0.00732089
-8.09012e-06
0.00732288
-8.12184e-06
0.00732488
-8.138e-06
0.00732688
-8.17755e-06
0.00732888
-8.17827e-06
0.00733088
-8.17386e-06
0.00733288
-8.15286e-06
0.00733487
-8.13034e-06
0.00733682
-7.97166e-06
0.00733877
-7.95507e-06
-4.09397e-06
0.0116649
0.00769175
0.0111083
0.00307885
0.0106583
0.00186413
0.0103471
0.00118928
0.0101283
0.000827097
0.00996616
0.000618057
0.00984002
0.000486699
0.00973813
0.000397521
0.00965352
0.000333267
0.00958173
0.000284939
0.0095198
0.000247368
0.00946568
0.000217363
0.00941786
0.000192872
0.00937524
0.000172523
0.00933699
0.000155361
0.00930244
0.000140706
0.00927106
0.000128054
0.00924245
0.000117029
0.00921625
0.000107342
0.00919217
9.87698e-05
0.00916999
9.11341e-05
0.0091495
8.42934e-05
0.00913052
7.81329e-05
0.00911291
7.25593e-05
0.00909654
6.74949e-05
0.0090813
6.28754e-05
0.0090671
5.86457e-05
0.00905384
5.4762e-05
0.00904145
5.11845e-05
0.00902986
4.78799e-05
0.00901902
4.4819e-05
0.00900886
4.1978e-05
0.00899934
3.93345e-05
0.00899042
3.68698e-05
0.00898206
3.45651e-05
0.00897421
3.24096e-05
0.00896686
3.03883e-05
0.00895996
2.84898e-05
0.00895348
2.6702e-05
0.00894742
2.50191e-05
0.00894173
2.3431e-05
0.00893641
2.19309e-05
0.00893142
2.05074e-05
0.00892676
1.91637e-05
0.00892241
1.78895e-05
0.00891834
1.66807e-05
0.00891455
1.55284e-05
0.00891102
1.44366e-05
0.00890775
1.33969e-05
0.00890471
1.24072e-05
0.00890189
1.14547e-05
0.00889929
1.05547e-05
0.0088969
9.69427e-06
0.00889471
8.87304e-06
0.0088927
8.07991e-06
0.00889088
7.32835e-06
0.00888923
6.60703e-06
0.00888774
5.91689e-06
0.00888642
5.24004e-06
0.00888524
4.60484e-06
0.00888421
3.99289e-06
0.00888333
3.40658e-06
0.00888258
2.83058e-06
0.00888196
2.28829e-06
0.00888146
1.76385e-06
0.00888109
1.26077e-06
0.00888083
7.53867e-07
0.00888069
2.86195e-07
0.00888065
-1.68497e-07
0.00888072
-6.04591e-07
0.00888089
-1.04333e-06
0.00888116
-1.44921e-06
0.00888152
-1.84501e-06
0.00888198
-2.22439e-06
0.00888252
-2.62261e-06
0.00888315
-2.97705e-06
0.00888386
-3.32432e-06
0.00888465
-3.65611e-06
0.00888552
-4.00281e-06
0.00888647
-4.3135e-06
0.00888748
-4.6198e-06
0.00888857
-4.91186e-06
0.00888973
-5.23869e-06
0.00889095
-5.51252e-06
0.00889224
-5.78414e-06
0.0088936
-6.0411e-06
0.00889501
-6.32607e-06
0.00889648
-6.56708e-06
0.00889801
-6.80832e-06
0.0088996
-7.03507e-06
0.00890124
-7.31341e-06
0.00890293
-7.52531e-06
0.00890468
-7.73864e-06
0.00890648
-7.93568e-06
0.00890832
-8.17171e-06
0.00891021
-8.35458e-06
0.00891214
-8.54052e-06
0.00891412
-8.7099e-06
0.00891614
-8.94135e-06
0.0089182
-9.09619e-06
0.0089203
-9.25368e-06
0.00892243
-9.39214e-06
0.0089246
-9.57368e-06
0.0089268
-9.6962e-06
0.00892904
-9.82108e-06
0.0089313
-9.92646e-06
0.00893359
-1.00895e-05
0.0089359
-1.0177e-05
0.00893823
-1.02639e-05
0.00894058
-1.03295e-05
0.00894295
-1.04259e-05
0.00894534
-1.04714e-05
0.00894773
-1.05138e-05
0.00895013
-1.05368e-05
0.00895254
-1.05841e-05
0.00895495
-1.05863e-05
0.00895736
-1.05809e-05
0.00895976
-1.05544e-05
0.00896216
-1.05251e-05
0.00896451
-1.03192e-05
0.00896686
-1.02972e-05
-5.29798e-06
0.0141222
0.00812849
0.0135876
0.00361341
0.013076
0.0023758
0.0126916
0.00157368
0.0124125
0.00110615
0.0122038
0.000826791
0.0120413
0.00064918
0.0119104
0.000528423
0.0118021
0.000441625
0.0117104
0.000376569
0.0116316
0.000326174
0.0115629
0.000286064
0.0115024
0.000253425
0.0114485
0.000226378
0.0114002
0.000203624
0.0113567
0.000184233
0.0113172
0.000167524
0.0112813
0.000152988
0.0112484
0.000140235
0.0112182
0.000128963
0.0111904
0.000118936
0.0111647
0.000109962
0.011141
0.000101888
0.0111189
9.45903e-05
0.0110985
8.79644e-05
0.0110794
8.1925e-05
0.0110617
7.63993e-05
0.0110451
7.13286e-05
0.0110296
6.66605e-05
0.0110152
6.23509e-05
0.0110016
5.83612e-05
0.0109889
5.46598e-05
0.010977
5.12174e-05
0.0109659
4.80091e-05
0.0109555
4.50106e-05
0.0109457
4.2207e-05
0.0109365
3.95788e-05
0.0109279
3.71111e-05
0.0109198
3.47882e-05
0.0109122
3.26019e-05
0.0109051
3.05391e-05
0.0108984
2.85911e-05
0.0108922
2.67438e-05
0.0108863
2.49994e-05
0.0108809
2.33453e-05
0.0108758
2.17763e-05
0.010871
2.02815e-05
0.0108666
1.88646e-05
0.0108625
1.75152e-05
0.0108587
1.62308e-05
0.0108551
1.49968e-05
0.0108518
1.38288e-05
0.0108488
1.27123e-05
0.0108461
1.16468e-05
0.0108435
1.06193e-05
0.0108412
9.64428e-06
0.0108391
8.70864e-06
0.0108372
7.81349e-06
0.0108355
6.93898e-06
0.010834
6.11523e-06
0.0108327
5.32191e-06
0.0108315
4.56181e-06
0.0108305
3.81778e-06
0.0108297
3.11493e-06
0.010829
2.43552e-06
0.0108285
1.78375e-06
0.0108281
1.13202e-06
0.0108279
5.26413e-07
0.0108278
-6.20833e-08
0.0108278
-6.27002e-07
0.0108279
-1.19156e-06
0.0108282
-1.71733e-06
0.0108286
-2.2296e-06
0.0108291
-2.72079e-06
0.0108297
-3.22937e-06
0.0108304
-3.68833e-06
0.0108312
-4.1375e-06
0.0108321
-4.56702e-06
0.0108331
-5.01042e-06
0.0108342
-5.41271e-06
0.0108354
-5.80875e-06
0.0108367
-6.18681e-06
0.0108381
-6.60018e-06
0.0108395
-6.95488e-06
0.010841
-7.30607e-06
0.0108426
-7.63899e-06
0.0108443
-8.00059e-06
0.010846
-8.3131e-06
0.0108479
-8.62509e-06
0.0108497
-8.91912e-06
0.0108517
-9.26693e-06
0.0108537
-9.54208e-06
0.0108558
-9.81818e-06
0.0108579
-1.00743e-05
0.0108601
-1.03712e-05
0.0108624
-1.06093e-05
0.0108647
-1.08502e-05
0.0108671
-1.10708e-05
0.0108695
-1.13565e-05
0.0108719
-1.15586e-05
0.0108744
-1.1763e-05
0.010877
-1.19442e-05
0.0108796
-1.21703e-05
0.0108822
-1.23311e-05
0.0108849
-1.24935e-05
0.0108876
-1.26321e-05
0.0108904
-1.28306e-05
0.0108931
-1.29462e-05
0.0108959
-1.30597e-05
0.0108987
-1.31473e-05
0.0109016
-1.32659e-05
0.0109044
-1.33273e-05
0.0109073
-1.33836e-05
0.0109102
-1.34159e-05
0.0109131
-1.34714e-05
0.010916
-1.34762e-05
0.0109189
-1.34706e-05
0.0109217
-1.34383e-05
0.0109246
-1.34008e-05
0.0109274
-1.31394e-05
0.0109303
-1.31176e-05
-6.7574e-06
0.0170157
0.00843801
0.0165448
0.00408431
0.0160001
0.0029205
0.0155424
0.00203134
0.0151931
0.00145547
0.0149266
0.00109326
0.0147179
0.000857871
0.0145497
0.000696629
0.0144107
0.000580624
0.0142935
0.000493824
0.0141929
0.000426761
0.0141054
0.000373538
0.0140285
0.000330353
0.0139602
0.000294662
0.0138991
0.000264708
0.0138441
0.000239237
0.0137943
0.000217333
0.013749
0.00019831
0.0137076
0.000181648
0.0136696
0.000166943
0.0136347
0.000153877
0.0136024
0.000142199
0.0135726
0.000131704
0.013545
0.000122226
0.0135193
0.000113629
0.0134954
0.0001058
0.0134732
9.8642e-05
0.0134524
9.20783e-05
0.0134331
8.60397e-05
0.0134149
8.04683e-05
0.013398
7.53137e-05
0.0133821
7.0534e-05
0.0133672
6.6091e-05
0.0133533
6.19523e-05
0.0133402
5.80863e-05
0.013328
5.44728e-05
0.0133164
5.10866e-05
0.0133057
4.79083e-05
0.0132955
4.49179e-05
0.013286
4.21039e-05
0.0132771
3.94497e-05
0.0132688
3.69436e-05
0.0132609
3.45686e-05
0.0132536
3.23253e-05
0.0132467
3.01985e-05
0.0132403
2.81813e-05
0.0132344
2.62607e-05
0.0132288
2.44394e-05
0.0132236
2.27053e-05
0.0132188
2.10548e-05
0.0132143
1.94709e-05
0.0132102
1.79702e-05
0.0132063
1.65359e-05
0.0132028
1.51671e-05
0.0131996
1.38491e-05
0.0131966
1.25968e-05
0.0131939
1.13956e-05
0.0131915
1.02464e-05
0.0131893
9.12697e-06
0.0131874
8.06977e-06
0.0131856
7.05206e-06
0.0131841
6.07696e-06
0.0131828
5.12511e-06
0.0131817
4.22378e-06
0.0131808
3.35301e-06
0.0131801
2.51762e-06
0.0131795
1.68689e-06
0.0131791
9.11078e-07
0.0131789
1.5789e-07
0.0131788
-5.65748e-07
0.0131789
-1.28557e-06
0.0131792
-1.95918e-06
0.0131796
-2.61479e-06
0.0131801
-3.24368e-06
0.0131807
-3.88844e-06
0.0131815
-4.47598e-06
0.0131824
-5.0503e-06
0.0131835
-5.59997e-06
0.0131846
-6.1623e-06
0.0131859
-6.67709e-06
0.0131873
-7.18307e-06
0.0131887
-7.66663e-06
0.0131903
-8.18665e-06
0.013192
-8.64046e-06
0.0131938
-9.08889e-06
0.0131957
-9.51487e-06
0.0131976
-9.97049e-06
0.0131997
-1.03705e-05
0.0132018
-1.07687e-05
0.0132041
-1.1145e-05
0.0132064
-1.15785e-05
0.0132088
-1.19309e-05
0.0132112
-1.22833e-05
0.0132138
-1.26117e-05
0.0132164
-1.29832e-05
0.0132191
-1.32887e-05
0.0132218
-1.35964e-05
0.0132246
-1.38795e-05
0.0132275
-1.42322e-05
0.0132304
-1.44919e-05
0.0132334
-1.47531e-05
0.0132365
-1.49866e-05
0.0132395
-1.52676e-05
0.0132427
-1.5475e-05
0.0132459
-1.56831e-05
0.0132491
-1.58624e-05
0.0132524
-1.61051e-05
0.0132557
-1.62551e-05
0.013259
-1.64011e-05
0.0132624
-1.65159e-05
0.0132658
-1.66623e-05
0.0132692
-1.67435e-05
0.0132727
-1.6817e-05
0.0132761
-1.68611e-05
0.0132796
-1.69281e-05
0.013283
-1.69368e-05
0.0132865
-1.69314e-05
0.01329
-1.68929e-05
0.0132934
-1.68469e-05
0.0132968
-1.65201e-05
0.0133002
-1.6491e-05
-8.49626e-06
0.0204181
0.00863699
0.020045
0.00445733
0.0195159
0.00344959
0.0190009
0.0025464
0.0185768
0.00187952
0.018242
0.00142811
0.0179759
0.00112395
0.0177603
0.000912206
0.017582
0.000758945
0.0174317
0.000644115
0.017303
0.000555473
0.0171913
0.000485257
0.0170932
0.000428412
0.0170063
0.000381542
0.0169288
0.000342296
0.016859
0.000308995
0.0167959
0.000280414
0.0167386
0.000255638
0.0166863
0.000233973
0.0166383
0.000214882
0.0165943
0.000197944
0.0165536
0.000182824
0.0165161
0.000169251
0.0164813
0.000157008
0.016449
0.000145913
0.016419
0.000135819
0.016391
0.000126599
0.016365
0.000118151
0.0163406
0.000110384
0.0163179
0.000103223
0.0162966
9.66025e-05
0.0162766
9.04671e-05
0.016258
8.47671e-05
0.0162405
7.94603e-05
0.016224
7.45064e-05
0.0162086
6.98776e-05
0.0161942
6.55419e-05
0.0161806
6.14742e-05
0.0161679
5.76488e-05
0.0161559
5.40499e-05
0.0161447
5.06565e-05
0.0161342
4.74534e-05
0.0161244
4.44197e-05
0.0161151
4.15538e-05
0.0161065
3.88373e-05
0.0160984
3.62613e-05
0.0160909
3.38099e-05
0.0160838
3.14848e-05
0.0160773
2.92713e-05
0.0160711
2.71648e-05
0.0160655
2.51459e-05
0.0160602
2.32311e-05
0.0160553
2.14015e-05
0.0160509
1.96555e-05
0.0160467
1.79764e-05
0.0160429
1.63796e-05
0.0160395
1.48484e-05
0.0160364
1.33837e-05
0.0160335
1.19608e-05
0.016031
1.06138e-05
0.0160287
9.31764e-06
0.0160267