/*--------------------------------*- C++ -*----------------------------------*\
  =========                 |
  \\      /  F ield         | OpenFOAM: The Open Source CFD Toolbox
   \\    /   O peration     | Website:  https://openfoam.org
    \\  /    A nd           | Version:  8
     \\/     M anipulation  |
\*---------------------------------------------------------------------------*/
FoamFile
{
    version     2.0;
    format      ascii;
    class       volVectorField;
    location    "650";
    object      U;
}
// * * * * * * * * * * * * * * * * * * * * * * * * * * * * * * * * * * * * * //

dimensions      [0 1 -1 0 0 0 0];

internalField   nonuniform List<vector> 
7320
(
(22.6429 -0.848127 0)
(20.2991 -0.0156863 0)
(19.4729 0.000192379 0)
(18.9932 0.00030371 0)
(18.6577 0.000223813 0)
(18.4025 0.000174264 0)
(18.1985 0.000141574 0)
(18.0298 0.00011831 0)
(17.8872 0.000100892 0)
(17.7644 8.7395e-05 0)
(17.6573 7.66513e-05 0)
(17.5629 6.79061e-05 0)
(17.4788 6.06558e-05 0)
(17.4034 5.45534e-05 0)
(17.3353 4.93517e-05 0)
(17.2736 4.48682e-05 0)
(17.2174 4.0967e-05 0)
(17.1659 3.7544e-05 0)
(17.1186 3.45192e-05 0)
(17.0751 3.18275e-05 0)
(17.035 2.94186e-05 0)
(16.9978 2.72514e-05 0)
(16.9633 2.52937e-05 0)
(16.9313 2.35151e-05 0)
(16.9015 2.18937e-05 0)
(16.8737 2.04102e-05 0)
(16.8478 1.90523e-05 0)
(16.8236 1.77987e-05 0)
(16.801 1.66409e-05 0)
(16.7798 1.55684e-05 0)
(16.76 1.45781e-05 0)
(16.7415 1.36519e-05 0)
(16.7241 1.27881e-05 0)
(16.7078 1.198e-05 0)
(16.6926 1.12358e-05 0)
(16.6783 1.05264e-05 0)
(16.6648 9.85938e-06 0)
(16.6523 9.22999e-06 0)
(16.6405 8.64946e-06 0)
(16.6295 8.08969e-06 0)
(16.6192 7.56108e-06 0)
(16.6096 7.05905e-06 0)
(16.6006 6.60562e-06 0)
(16.5922 6.15673e-06 0)
(16.5843 5.73093e-06 0)
(16.5771 5.32437e-06 0)
(16.5703 4.95519e-06 0)
(16.564 4.58978e-06 0)
(16.5581 4.24301e-06 0)
(16.5527 3.91081e-06 0)
(16.5478 3.61539e-06 0)
(16.5432 3.31687e-06 0)
(16.539 3.03165e-06 0)
(16.5351 2.75674e-06 0)
(16.5317 2.50838e-06 0)
(16.5285 2.25932e-06 0)
(16.5257 2.02127e-06 0)
(16.5231 1.79071e-06 0)
(16.5209 1.58469e-06 0)
(16.5189 1.37589e-06 0)
(16.5172 1.17438e-06 0)
(16.5158 9.77127e-07 0)
(16.5146 7.9846e-07 0)
(16.5136 6.18314e-07 0)
(16.5129 4.45571e-07 0)
(16.5124 2.76081e-07 0)
(16.5121 1.16311e-07 0)
(16.512 -3.74117e-08 0)
(16.5121 -1.86209e-07 0)
(16.5125 -3.33355e-07 0)
(16.513 -4.76069e-07 0)
(16.5136 -6.09226e-07 0)
(16.5145 -7.36487e-07 0)
(16.5155 -8.60576e-07 0)
(16.5167 -1.01319e-06 0)
(16.5181 -1.12293e-06 0)
(16.5196 -1.2295e-06 0)
(16.5212 -1.33217e-06 0)
(16.523 -1.47059e-06 0)
(16.525 -1.55994e-06 0)
(16.5271 -1.64656e-06 0)
(16.5293 -1.72393e-06 0)
(16.5316 -1.91966e-06 0)
(16.5341 -1.98515e-06 0)
(16.5367 -2.05076e-06 0)
(16.5394 -2.10233e-06 0)
(16.5423 -2.26787e-06 0)
(16.5452 -2.30853e-06 0)
(16.5483 -2.35396e-06 0)
(16.5515 -2.37833e-06 0)
(16.5547 -2.64489e-06 0)
(16.5581 -2.66408e-06 0)
(16.5616 -2.68974e-06 0)
(16.5651 -2.68745e-06 0)
(16.5688 -2.88211e-06 0)
(16.5726 -2.87562e-06 0)
(16.5764 -2.88429e-06 0)
(16.5803 -2.86057e-06 0)
(16.5843 -3.16907e-06 0)
(16.5884 -3.1507e-06 0)
(16.5926 -3.14628e-06 0)
(16.5968 -3.10336e-06 0)
(16.6011 -3.29931e-06 0)
(16.6055 -3.26338e-06 0)
(16.6099 -3.25043e-06 0)
(16.6144 -3.20342e-06 0)
(16.6189 -3.45792e-06 0)
(16.6235 -3.43092e-06 0)
(16.6281 -3.41899e-06 0)
(16.6328 -3.37853e-06 0)
(16.6375 -3.48214e-06 0)
(16.6423 -3.46546e-06 0)
(16.647 -3.46062e-06 0)
(16.6518 -3.45136e-06 0)
(16.6566 -3.4733e-06 0)
(16.6614 -3.49922e-06 0)
(16.6662 -3.50981e-06 0)
(16.671 -3.5457e-06 0)
(16.6758 -3.49232e-06 0)
(16.6806 -3.47528e-06 0)
(16.6852 -3.45428e-06 0)
(16.6899 -1.78868e-06 0)
(26.6037 0.16714 0)
(23.9491 0.007431 0)
(22.9106 0.00132356 0)
(22.324 0.000761367 0)
(21.922 0.000547527 0)
(21.6197 0.000424669 0)
(21.3794 0.000344305 0)
(21.1815 0.000287376 0)
(21.0145 0.000244872 0)
(20.8711 0.000211995 0)
(20.7461 0.00018586 0)
(20.636 0.000164606 0)
(20.5381 0.000146999 0)
(20.4503 0.000132188 0)
(20.3712 0.000119567 0)
(20.2994 0.000108694 0)
(20.2341 9.92356e-05 0)
(20.1743 9.09387e-05 0)
(20.1194 8.36077e-05 0)
(20.0688 7.70859e-05 0)
(20.0222 7.12501e-05 0)
(19.979 6.60005e-05 0)
(19.939 6.12576e-05 0)
(19.9018 5.69503e-05 0)
(19.8672 5.30245e-05 0)
(19.835 4.94331e-05 0)
(19.8049 4.61419e-05 0)
(19.7769 4.31075e-05 0)
(19.7506 4.03057e-05 0)
(19.7261 3.77113e-05 0)
(19.7031 3.53103e-05 0)
(19.6816 3.30705e-05 0)
(19.6614 3.09823e-05 0)
(19.6425 2.90302e-05 0)
(19.6248 2.72188e-05 0)
(19.6082 2.55055e-05 0)
(19.5927 2.38959e-05 0)
(19.5781 2.23793e-05 0)
(19.5645 2.09663e-05 0)
(19.5517 1.96179e-05 0)
(19.5397 1.83449e-05 0)
(19.5285 1.71383e-05 0)
(19.518 1.6023e-05 0)
(19.5083 1.49425e-05 0)
(19.4992 1.39183e-05 0)
(19.4907 1.29432e-05 0)
(19.4828 1.20376e-05 0)
(19.4754 1.11592e-05 0)
(19.4686 1.0325e-05 0)
(19.4624 9.52815e-06 0)
(19.4566 8.79236e-06 0)
(19.4512 8.07229e-06 0)
(19.4463 7.38515e-06 0)
(19.4418 6.72584e-06 0)
(19.4377 6.11067e-06 0)
(19.4341 5.51044e-06 0)
(19.4307 4.93639e-06 0)
(19.4278 4.38332e-06 0)
(19.4251 3.86484e-06 0)
(19.4228 3.35959e-06 0)
(19.4208 2.8733e-06 0)
(19.4191 2.40178e-06 0)
(19.4177 1.95617e-06 0)
(19.4166 1.52239e-06 0)
(19.4158 1.10544e-06 0)
(19.4152 7.00178e-07 0)
(19.4148 3.02096e-07 0)
(19.4147 -7.06643e-08 0)
(19.4149 -4.30989e-07 0)
(19.4152 -7.82335e-07 0)
(19.4158 -1.13226e-06 0)
(19.4166 -1.45535e-06 0)
(19.4176 -1.7665e-06 0)
(19.4188 -2.06793e-06 0)
(19.4202 -2.4186e-06 0)
(19.4217 -2.69281e-06 0)
(19.4235 -2.95973e-06 0)
(19.4254 -3.21606e-06 0)
(19.4275 -3.52801e-06 0)
(19.4298 -3.75945e-06 0)
(19.4322 -3.98571e-06 0)
(19.4348 -4.19531e-06 0)
(19.4375 -4.57656e-06 0)
(19.4404 -4.7631e-06 0)
(19.4434 -4.9498e-06 0)
(19.4466 -5.11325e-06 0)
(19.4499 -5.43809e-06 0)
(19.4533 -5.58041e-06 0)
(19.4569 -5.73011e-06 0)
(19.4606 -5.84805e-06 0)
(19.4644 -6.30268e-06 0)
(19.4683 -6.40532e-06 0)
(19.4724 -6.51962e-06 0)
(19.4765 -6.59243e-06 0)
(19.4808 -6.93624e-06 0)
(19.4852 -6.99586e-06 0)
(19.4896 -7.07853e-06 0)
(19.4942 -7.1143e-06 0)
(19.4989 -7.60295e-06 0)
(19.5036 -7.63547e-06 0)
(19.5085 -7.69123e-06 0)
(19.5134 -7.6915e-06 0)
(19.5184 -8.01428e-06 0)
(19.5235 -8.01444e-06 0)
(19.5287 -8.04765e-06 0)
(19.5339 -8.03131e-06 0)
(19.5392 -8.41914e-06 0)
(19.5445 -8.41743e-06 0)
(19.5499 -8.43807e-06 0)
(19.5554 -8.41636e-06 0)
(19.5609 -8.58421e-06 0)
(19.5664 -8.5835e-06 0)
(19.572 -8.59647e-06 0)
(19.5775 -8.59879e-06 0)
(19.5831 -8.63985e-06 0)
(19.5887 -8.67872e-06 0)
(19.5943 -8.69184e-06 0)
(19.5999 -8.73268e-06 0)
(19.6055 -8.65197e-06 0)
(19.6111 -8.55399e-06 0)
(19.6165 -8.50078e-06 0)
(19.622 -4.3522e-06 0)
(28.9497 0.0984766 0)
(26.1304 0.00639105 0)
(24.9213 0.0023381 0)
(24.2467 0.00142134 0)
(23.7932 0.00101461 0)
(23.4561 0.000782724 0)
(23.1903 0.000632589 0)
(22.9724 0.000526935 0)
(22.7892 0.000448384 0)
(22.6322 0.000387799 0)
(22.4957 0.000339736 0)
(22.3756 0.000300713 0)
(22.2689 0.000268424 0)
(22.1734 0.000241289 0)
(22.0873 0.000218186 0)
(22.0093 0.000198295 0)
(21.9383 0.000181002 0)
(21.8733 0.00016584 0)
(21.8137 0.000152447 0)
(21.7589 0.000140538 0)
(21.7083 0.000129885 0)
(21.6615 0.000120305 0)
(21.6181 0.000111651 0)
(21.5778 0.000103794 0)
(21.5403 9.6635e-05 0)
(21.5054 9.00872e-05 0)
(21.4728 8.40845e-05 0)
(21.4424 7.85542e-05 0)
(21.414 7.34489e-05 0)
(21.3874 6.87229e-05 0)
(21.3625 6.43458e-05 0)
(21.3392 6.02673e-05 0)
(21.3173 5.64658e-05 0)
(21.2969 5.29137e-05 0)
(21.2777 4.9608e-05 0)
(21.2597 4.64916e-05 0)
(21.2428 4.35649e-05 0)
(21.2271 4.08093e-05 0)
(21.2122 3.82325e-05 0)
(21.1984 3.57837e-05 0)
(21.1854 3.34721e-05 0)
(21.1733 3.12831e-05 0)
(21.1619 2.92422e-05 0)
(21.1513 2.72811e-05 0)
(21.1414 2.54224e-05 0)
(21.1322 2.36544e-05 0)
(21.1236 2.19985e-05 0)
(21.1156 2.04042e-05 0)
(21.1082 1.88891e-05 0)
(21.1014 1.74433e-05 0)
(21.0951 1.60897e-05 0)
(21.0893 1.47798e-05 0)
(21.0839 1.35295e-05 0)
(21.079 1.23315e-05 0)
(21.0746 1.12006e-05 0)
(21.0705 1.01074e-05 0)
(21.0669 9.06097e-06 0)
(21.0637 8.05456e-06 0)
(21.0608 7.09621e-06 0)
(21.0583 6.17356e-06 0)
(21.0561 5.28574e-06 0)
(21.0542 4.4278e-06 0)
(21.0527 3.60592e-06 0)
(21.0514 2.81437e-06 0)
(21.0505 2.05235e-06 0)
(21.0498 1.31438e-06 0)
(21.0494 5.82572e-07 0)
(21.0493 -9.97882e-08 0)
(21.0494 -7.59695e-07 0)
(21.0498 -1.39976e-06 0)
(21.0504 -2.04002e-06 0)
(21.0513 -2.63202e-06 0)
(21.0523 -3.20413e-06 0)
(21.0536 -3.75691e-06 0)
(21.0551 -4.37942e-06 0)
(21.0568 -4.88776e-06 0)
(21.0586 -5.38315e-06 0)
(21.0607 -5.85845e-06 0)
(21.063 -6.40901e-06 0)
(21.0654 -6.84423e-06 0)
(21.068 -7.27073e-06 0)
(21.0708 -7.67034e-06 0)
(21.0738 -8.2957e-06 0)
(21.0769 -8.65857e-06 0)
(21.0801 -9.02065e-06 0)
(21.0835 -9.3475e-06 0)
(21.0871 -9.88395e-06 0)
(21.0908 -1.01773e-05 0)
(21.0947 -1.04801e-05 0)
(21.0986 -1.07374e-05 0)
(21.1028 -1.14275e-05 0)
(21.107 -1.16584e-05 0)
(21.1114 -1.19051e-05 0)
(21.1158 -1.20937e-05 0)
(21.1205 -1.26286e-05 0)
(21.1252 -1.27938e-05 0)
(21.13 -1.29892e-05 0)
(21.1349 -1.31198e-05 0)
(21.14 -1.38254e-05 0)
(21.1451 -1.39437e-05 0)
(21.1504 -1.4093e-05 0)
(21.1557 -1.41664e-05 0)
(21.1611 -1.46466e-05 0)
(21.1666 -1.47112e-05 0)
(21.1722 -1.48175e-05 0)
(21.1778 -1.48551e-05 0)
(21.1835 -1.53994e-05 0)
(21.1893 -1.54448e-05 0)
(21.1951 -1.55173e-05 0)
(21.201 -1.55302e-05 0)
(21.2069 -1.57766e-05 0)
(21.2129 -1.58045e-05 0)
(21.2189 -1.58454e-05 0)
(21.2249 -1.58664e-05 0)
(21.2309 -1.59299e-05 0)
(21.237 -1.59845e-05 0)
(21.243 -1.60003e-05 0)
(21.2491 -1.60425e-05 0)
(21.2551 -1.59276e-05 0)
(21.2611 -1.57075e-05 0)
(21.2669 -1.56272e-05 0)
(21.2729 -8.00211e-06 0)
(30.6449 0.0459572 0)
(27.8131 0.00831863 0)
(26.4561 0.00392315 0)
(25.6943 0.0023791 0)
(25.1892 0.00168081 0)
(24.8184 0.00128803 0)
(24.5284 0.00103663 0)
(24.2922 0.000861117 0)
(24.0944 0.000731333 0)
(23.9254 0.000631615 0)
(23.7788 0.000552731 0)
(23.6501 0.000488824 0)
(23.5359 0.000436037 0)
(23.4338 0.000391738 0)
(23.3419 0.000354065 0)
(23.2586 0.00032166 0)
(23.1829 0.000293512 0)
(23.1137 0.000268849 0)
(23.0503 0.000247078 0)
(22.9919 0.00022773 0)
(22.9381 0.00021043 0)
(22.8883 0.00019488 0)
(22.8421 0.000180836 0)
(22.7993 0.000168093 0)
(22.7594 0.000156484 0)
(22.7223 0.00014587 0)
(22.6877 0.00013614 0)
(22.6554 0.00012718 0)
(22.6252 0.000118911 0)
(22.597 0.000111259 0)
(22.5705 0.00010417 0)
(22.5458 9.75688e-05 0)
(22.5226 9.1418e-05 0)
(22.5008 8.56725e-05 0)
(22.4805 8.03187e-05 0)
(22.4614 7.52804e-05 0)
(22.4434 7.05502e-05 0)
(22.4267 6.60985e-05 0)
(22.4109 6.19283e-05 0)
(22.3962 5.7974e-05 0)
(22.3824 5.42415e-05 0)
(22.3695 5.07088e-05 0)
(22.3574 4.74013e-05 0)
(22.3461 4.4236e-05 0)
(22.3356 4.12355e-05 0)
(22.3258 3.83831e-05 0)
(22.3166 3.57003e-05 0)
(22.3081 3.31262e-05 0)
(22.3002 3.0679e-05 0)
(22.2929 2.83442e-05 0)
(22.2862 2.61455e-05 0)
(22.28 2.40271e-05 0)
(22.2743 2.20045e-05 0)
(22.269 2.00676e-05 0)
(22.2643 1.82306e-05 0)
(22.26 1.64606e-05 0)
(22.2561 1.47654e-05 0)
(22.2526 1.31362e-05 0)
(22.2495 1.15779e-05 0)
(22.2468 1.00814e-05 0)
(22.2444 8.6416e-06 0)
(22.2424 7.25221e-06 0)
(22.2408 5.91656e-06 0)
(22.2394 4.6327e-06 0)
(22.2384 3.39597e-06 0)
(22.2376 2.20007e-06 0)
(22.2372 1.01754e-06 0)
(22.237 -9.14674e-08 0)
(22.2371 -1.16416e-06 0)
(22.2374 -2.20233e-06 0)
(22.2381 -3.23556e-06 0)
(22.2389 -4.19867e-06 0)
(22.24 -5.1306e-06 0)
(22.2413 -6.03062e-06 0)
(22.2428 -7.01261e-06 0)
(22.2446 -7.84529e-06 0)
(22.2466 -8.65654e-06 0)
(22.2487 -9.43568e-06 0)
(22.2511 -1.03033e-05 0)
(22.2536 -1.10225e-05 0)
(22.2564 -1.1727e-05 0)
(22.2593 -1.23921e-05 0)
(22.2624 -1.33281e-05 0)
(22.2656 -1.39393e-05 0)
(22.269 -1.45465e-05 0)
(22.2726 -1.51044e-05 0)
(22.2763 -1.59134e-05 0)
(22.2802 -1.64227e-05 0)
(22.2843 -1.69413e-05 0)
(22.2884 -1.73985e-05 0)
(22.2928 -1.83747e-05 0)
(22.2972 -1.87925e-05 0)
(22.3018 -1.92281e-05 0)
(22.3065 -1.95868e-05 0)
(22.3113 -2.03598e-05 0)
(22.3163 -2.06826e-05 0)
(22.3214 -2.10407e-05 0)
(22.3265 -2.13136e-05 0)
(22.3318 -2.22733e-05 0)
(22.3372 -2.25233e-05 0)
(22.3427 -2.28091e-05 0)
(22.3483 -2.2996e-05 0)
(22.354 -2.36667e-05 0)
(22.3598 -2.38334e-05 0)
(22.3656 -2.40474e-05 0)
(22.3716 -2.41705e-05 0)
(22.3776 -2.48934e-05 0)
(22.3836 -2.50144e-05 0)
(22.3897 -2.51633e-05 0)
(22.3959 -2.52321e-05 0)
(22.4021 -2.55721e-05 0)
(22.4084 -2.56449e-05 0)
(22.4147 -2.5726e-05 0)
(22.421 -2.57745e-05 0)
(22.4274 -2.58641e-05 0)
(22.4337 -2.59369e-05 0)
(22.4401 -2.59541e-05 0)
(22.4464 -2.59918e-05 0)
(22.4527 -2.58349e-05 0)
(22.459 -2.54382e-05 0)
(22.4651 -2.5332e-05 0)
(22.4714 -1.29733e-05 0)
(31.9342 0.0469921 0)
(29.2283 0.0125097 0)
(27.7543 0.00606046 0)
(26.9065 0.00365718 0)
(26.348 0.00255943 0)
(25.9421 0.00194752 0)
(25.6273 0.00155993 0)
(25.3724 0.00129158 0)
(25.1601 0.00109436 0)
(24.9793 0.000943498 0)
(24.8229 0.000824555 0)
(24.6858 0.000728447 0)
(24.5645 0.000649228 0)
(24.4562 0.00058286 0)
(24.3587 0.000526501 0)
(24.2706 0.00047808 0)
(24.1905 0.000436062 0)
(24.1174 0.00039928 0)
(24.0504 0.000366835 0)
(23.9888 0.00033802 0)
(23.9319 0.000312272 0)
(23.8794 0.000289139 0)
(23.8308 0.000268258 0)
(23.7856 0.000249318 0)
(23.7436 0.000232072 0)
(23.7045 0.00021631 0)
(23.6681 0.000201863 0)
(23.634 0.000188566 0)
(23.6022 0.000176298 0)
(23.5725 0.000164948 0)
(23.5447 0.000154433 0)
(23.5186 0.000144648 0)
(23.4942 0.000135533 0)
(23.4713 0.000127021 0)
(23.4498 0.000119084 0)
(23.4297 0.000111623 0)
(23.4108 0.000104621 0)
(23.3932 9.80331e-05 0)
(23.3766 9.18556e-05 0)
(23.3611 8.60061e-05 0)
(23.3465 8.04852e-05 0)
(23.3329 7.52616e-05 0)
(23.3202 7.03591e-05 0)
(23.3083 6.56784e-05 0)
(23.2971 6.12412e-05 0)
(23.2868 5.7024e-05 0)
(23.2771 5.3048e-05 0)
(23.2682 4.92406e-05 0)
(23.2598 4.56195e-05 0)
(23.2521 4.21653e-05 0)
(23.245 3.89021e-05 0)
(23.2384 3.57652e-05 0)
(23.2323 3.27694e-05 0)
(23.2268 2.99012e-05 0)
(23.2217 2.71744e-05 0)
(23.2172 2.45513e-05 0)
(23.213 2.20382e-05 0)
(23.2093 1.96239e-05 0)
(23.206 1.7311e-05 0)
(23.2031 1.50911e-05 0)
(23.2006 1.29554e-05 0)
(23.1984 1.08962e-05 0)
(23.1966 8.91451e-06 0)
(23.1951 7.01027e-06 0)
(23.194 5.17531e-06 0)
(23.1931 3.40258e-06 0)
(23.1926 1.65652e-06 0)
(23.1924 1.01543e-08 0)
(23.1924 -1.5828e-06 0)
(23.1927 -3.12268e-06 0)
(23.1933 -4.64734e-06 0)
(23.1942 -6.07804e-06 0)
(23.1953 -7.46335e-06 0)
(23.1966 -8.80084e-06 0)
(23.1981 -1.02265e-05 0)
(23.1999 -1.14683e-05 0)
(23.2019 -1.26778e-05 0)
(23.2041 -1.38403e-05 0)
(23.2065 -1.50996e-05 0)
(23.2091 -1.61777e-05 0)
(23.2119 -1.72334e-05 0)
(23.2149 -1.82344e-05 0)
(23.2181 -1.9544e-05 0)
(23.2215 -2.04706e-05 0)
(23.225 -2.13885e-05 0)
(23.2287 -2.22406e-05 0)
(23.2325 -2.33792e-05 0)
(23.2365 -2.41645e-05 0)
(23.2407 -2.49579e-05 0)
(23.245 -2.56717e-05 0)
(23.2494 -2.69801e-05 0)
(23.254 -2.76393e-05 0)
(23.2588 -2.83168e-05 0)
(23.2636 -2.88961e-05 0)
(23.2686 -2.99504e-05 0)
(23.2737 -3.04792e-05 0)
(23.279 -3.10469e-05 0)
(23.2843 -3.15065e-05 0)
(23.2898 -3.27524e-05 0)
(23.2954 -3.31765e-05 0)
(23.3011 -3.36394e-05 0)
(23.3068 -3.39775e-05 0)
(23.3127 -3.48677e-05 0)
(23.3187 -3.51713e-05 0)
(23.3247 -3.55256e-05 0)
(23.3309 -3.57635e-05 0)
(23.3371 -3.66833e-05 0)
(23.3433 -3.69057e-05 0)
(23.3497 -3.71538e-05 0)
(23.356 -3.7298e-05 0)
(23.3625 -3.77446e-05 0)
(23.3689 -3.78766e-05 0)
(23.3754 -3.80089e-05 0)
(23.382 -3.80923e-05 0)
(23.3885 -3.8211e-05 0)
(23.3951 -3.83029e-05 0)
(23.4016 -3.83193e-05 0)
(23.4082 -3.83455e-05 0)
(23.4147 -3.81392e-05 0)
(23.4212 -3.75141e-05 0)
(23.4275 -3.73873e-05 0)
(23.434 -1.91545e-05 0)
(32.9266 0.0603716 0)
(30.4695 0.0174492 0)
(28.9196 0.00880607 0)
(27.99 0.00533475 0)
(27.3757 0.00370684 0)
(26.9322 0.00280126 0)
(26.5909 0.00223227 0)
(26.3162 0.00184147 0)
(26.0885 0.00155607 0)
(25.8954 0.00133881 0)
(25.7288 0.00116817 0)
(25.5832 0.0010307 0)
(25.4546 0.000917671 0)
(25.3399 0.000823165 0)
(25.2369 0.000743045 0)
(25.1439 0.000674308 0)
(25.0594 0.000614733 0)
(24.9824 0.000562637 0)
(24.9118 0.000516727 0)
(24.847 0.000475984 0)
(24.7873 0.000439606 0)
(24.7321 0.000406944 0)
(24.6809 0.000377476 0)
(24.6335 0.000350764 0)
(24.5894 0.000326452 0)
(24.5484 0.000304242 0)
(24.5101 0.000283891 0)
(24.4744 0.000265169 0)
(24.4411 0.000247901 0)
(24.4099 0.000231932 0)
(24.3807 0.000217139 0)
(24.3533 0.000203381 0)
(24.3277 0.000190568 0)
(24.3037 0.000178607 0)
(24.2812 0.00016745 0)
(24.2601 0.000156972 0)
(24.2403 0.00014714 0)
(24.2218 0.000137893 0)
(24.2044 0.000129216 0)
(24.1881 0.000121008 0)
(24.1728 0.000113263 0)
(24.1585 0.000105936 0)
(24.1451 9.90487e-05 0)
(24.1326 9.24837e-05 0)
(24.1209 8.62599e-05 0)
(24.11 8.03457e-05 0)
(24.0999 7.47606e-05 0)
(24.0904 6.94196e-05 0)
(24.0817 6.43387e-05 0)
(24.0735 5.94925e-05 0)
(24.066 5.49044e-05 0)
(24.059 5.05007e-05 0)
(24.0527 4.62944e-05 0)
(24.0468 4.22682e-05 0)
(24.0415 3.84345e-05 0)
(24.0366 3.47504e-05 0)
(24.0322 3.12202e-05 0)
(24.0283 2.78301e-05 0)
(24.0247 2.45794e-05 0)
(24.0216 2.14606e-05 0)
(24.0189 1.846e-05 0)
(24.0166 1.55689e-05 0)
(24.0146 1.27852e-05 0)
(24.013 1.01107e-05 0)
(24.0118 7.53302e-06 0)
(24.0108 5.04456e-06 0)
(24.0102 2.60155e-06 0)
(24.0099 2.88965e-07 0)
(24.0098 -1.94943e-06 0)
(24.0101 -4.11182e-06 0)
(24.0106 -6.24393e-06 0)
(24.0114 -8.25438e-06 0)
(24.0125 -1.02019e-05 0)
(24.0138 -1.20815e-05 0)
(24.0153 -1.40509e-05 0)
(24.0171 -1.57998e-05 0)
(24.0191 -1.7503e-05 0)
(24.0213 -1.91406e-05 0)
(24.0237 -2.08795e-05 0)
(24.0264 -2.24029e-05 0)
(24.0292 -2.3894e-05 0)
(24.0322 -2.53119e-05 0)
(24.0355 -2.70707e-05 0)
(24.0389 -2.83896e-05 0)
(24.0424 -2.96933e-05 0)
(24.0462 -3.09116e-05 0)
(24.0501 -3.24476e-05 0)
(24.0542 -3.35773e-05 0)
(24.0584 -3.47129e-05 0)
(24.0628 -3.57472e-05 0)
(24.0674 -3.74448e-05 0)
(24.0721 -3.84068e-05 0)
(24.0769 -3.93864e-05 0)
(24.0819 -4.02433e-05 0)
(24.087 -4.16304e-05 0)
(24.0922 -4.24192e-05 0)
(24.0976 -4.32497e-05 0)
(24.103 -4.39456e-05 0)
(24.1086 -4.55185e-05 0)
(24.1143 -4.61639e-05 0)
(24.1201 -4.68493e-05 0)
(24.126 -4.73804e-05 0)
(24.132 -4.85258e-05 0)
(24.1381 -4.90046e-05 0)
(24.1443 -4.95355e-05 0)
(24.1506 -4.99208e-05 0)
(24.1569 -5.10614e-05 0)
(24.1633 -5.14137e-05 0)
(24.1698 -5.17863e-05 0)
(24.1764 -5.20275e-05 0)
(24.1829 -5.25965e-05 0)
(24.1895 -5.28034e-05 0)
(24.1962 -5.2999e-05 0)
(24.2029 -5.31257e-05 0)
(24.2096 -5.32778e-05 0)
(24.2163 -5.339e-05 0)
(24.223 -5.34031e-05 0)
(24.2297 -5.34098e-05 0)
(24.2364 -5.31458e-05 0)
(24.243 -5.22354e-05 0)
(24.2494 -5.20893e-05 0)
(24.2561 -2.67006e-05 0)
(33.6709 0.0694784 0)
(31.5724 0.022704 0)
(30.0008 0.0122434 0)
(28.9993 0.00751391 0)
(28.3282 0.00520146 0)
(27.8445 0.00390705 0)
(27.4742 0.0030974 0)
(27.1779 0.00254503 0)
(26.9335 0.00214413 0)
(26.727 0.00184048 0)
(26.5495 0.00160295 0)
(26.3948 0.00141223 0)
(26.2583 0.00125585 0)
(26.137 0.00112539 0)
(26.0282 0.00101501 0)
(25.93 0.000920465 0)
(25.841 0.000838639 0)
(25.7598 0.000767173 0)
(25.6856 0.00070426 0)
(25.6174 0.000648484 0)
(25.5547 0.000598723 0)
(25.4967 0.000554081 0)
(25.443 0.000513831 0)
(25.3933 0.000477368 0)
(25.347 0.000444201 0)
(25.304 0.000413917 0)
(25.2639 0.000386179 0)
(25.2265 0.000360674 0)
(25.1915 0.000337162 0)
(25.1589 0.000315425 0)
(25.1283 0.000295295 0)
(25.0996 0.000276581 0)
(25.0728 0.000259159 0)
(25.0477 0.000242901 0)
(25.0241 0.000227734 0)
(25.002 0.000213501 0)
(24.9813 0.000200147 0)
(24.9618 0.000187593 0)
(24.9436 0.000175809 0)
(24.9265 0.000164671 0)
(24.9105 0.000154161 0)
(24.8955 0.000144222 0)
(24.8815 0.000134867 0)
(24.8684 0.000125962 0)
(24.8561 0.00011752 0)
(24.8446 0.000109499 0)
(24.834 0.000101915 0)
(24.824 9.46702e-05 0)
(24.8148 8.7777e-05 0)
(24.8062 8.12031e-05 0)
(24.7983 7.49698e-05 0)
(24.791 6.89939e-05 0)
(24.7842 6.32854e-05 0)
(24.778 5.78224e-05 0)
(24.7724 5.26151e-05 0)
(24.7672 4.76153e-05 0)
(24.7626 4.28239e-05 0)
(24.7584 3.82241e-05 0)
(24.7546 3.38112e-05 0)
(24.7513 2.95785e-05 0)
(24.7484 2.55066e-05 0)
(24.7459 2.15854e-05 0)
(24.7437 1.78092e-05 0)
(24.7419 1.41816e-05 0)
(24.7405 1.0685e-05 0)
(24.7395 7.31155e-06 0)
(24.7387 4.00846e-06 0)
(24.7383 8.73052e-07 0)
(24.7381 -2.16284e-06 0)
(24.7383 -5.09472e-06 0)
(24.7388 -7.97593e-06 0)
(24.7395 -1.07024e-05 0)
(24.7405 -1.33441e-05 0)
(24.7417 -1.58929e-05 0)
(24.7432 -1.85285e-05 0)
(24.745 -2.09032e-05 0)
(24.7469 -2.32155e-05 0)
(24.7491 -2.54392e-05 0)
(24.7516 -2.7765e-05 0)
(24.7542 -2.98376e-05 0)
(24.757 -3.1866e-05 0)
(24.7601 -3.37984e-05 0)
(24.7633 -3.60995e-05 0)
(24.7667 -3.79028e-05 0)
(24.7703 -3.96827e-05 0)
(24.7741 -4.13536e-05 0)
(24.7781 -4.33697e-05 0)
(24.7822 -4.49256e-05 0)
(24.7865 -4.6484e-05 0)
(24.7909 -4.79153e-05 0)
(24.7955 -5.00734e-05 0)
(24.8002 -5.14111e-05 0)
(24.8051 -5.27645e-05 0)
(24.8102 -5.39666e-05 0)
(24.8153 -5.575e-05 0)
(24.8206 -5.68628e-05 0)
(24.8261 -5.8019e-05 0)
(24.8316 -5.90099e-05 0)
(24.8373 -6.0962e-05 0)
(24.8431 -6.18841e-05 0)
(24.849 -6.28458e-05 0)
(24.855 -6.36193e-05 0)
(24.8611 -6.5064e-05 0)
(24.8673 -6.57629e-05 0)
(24.8735 -6.65136e-05 0)
(24.8799 -6.70848e-05 0)
(24.8864 -6.84773e-05 0)
(24.8929 -6.89929e-05 0)
(24.8994 -6.95203e-05 0)
(24.9061 -6.9884e-05 0)
(24.9128 -7.05958e-05 0)
(24.9195 -7.08963e-05 0)
(24.9262 -7.117e-05 0)
(24.933 -7.13505e-05 0)
(24.9398 -7.15419e-05 0)
(24.9466 -7.16766e-05 0)
(24.9535 -7.16844e-05 0)
(24.9603 -7.16638e-05 0)
(24.9671 -7.13323e-05 0)
(24.9738 -7.00717e-05 0)
(24.9803 -6.99071e-05 0)
(24.9871 -3.58614e-05 0)
(34.1947 0.0755308 0)
(32.5411 0.0282332 0)
(31.0182 0.016421 0)
(29.9639 0.010304 0)
(29.2379 0.00713877 0)
(28.712 0.00533865 0)
(28.3102 0.0042121 0)
(27.9902 0.003447 0)
(27.7273 0.00289469 0)
(27.5061 0.00247839 0)
(27.3165 0.00215409 0)
(27.1518 0.00189463 0)
(27.0068 0.0016825 0)
(26.8782 0.001506 0)
(26.763 0.00135697 0)
(26.6593 0.00122956 0)
(26.5653 0.00111947 0)
(26.4798 0.00102346 0)
(26.4016 0.000939042 0)
(26.3299 0.000864282 0)
(26.2639 0.000797652 0)
(26.203 0.000737928 0)
(26.1466 0.000684123 0)
(26.0944 0.000635416 0)
(26.0459 0.000591141 0)
(26.0007 0.000550739 0)
(25.9587 0.000513752 0)
(25.9194 0.000479763 0)
(25.8828 0.000448445 0)
(25.8486 0.000419505 0)
(25.8165 0.000392711 0)
(25.7865 0.000367817 0)
(25.7584 0.000344649 0)
(25.7321 0.000323038 0)
(25.7074 0.000302876 0)
(25.6842 0.000283969 0)
(25.6625 0.000266236 0)
(25.6421 0.000249569 0)
(25.623 0.000233921 0)
(25.6051 0.000219141 0)
(25.5883 0.000205197 0)
(25.5725 0.000192013 0)
(25.5578 0.000179594 0)
(25.544 0.000167784 0)
(25.5311 0.000156588 0)
(25.5191 0.000145952 0)
(25.5079 0.000135888 0)
(25.4974 0.000126281 0)
(25.4877 0.00011714 0)
(25.4787 0.000108424 0)
(25.4703 0.000100149 0)
(25.4626 9.22248e-05 0)
(25.4554 8.46544e-05 0)
(25.4489 7.74112e-05 0)
(25.4429 7.05017e-05 0)
(25.4374 6.38724e-05 0)
(25.4324 5.75192e-05 0)
(25.428 5.14222e-05 0)
(25.4239 4.55713e-05 0)
(25.4204 3.99608e-05 0)
(25.4172 3.45641e-05 0)
(25.4145 2.937e-05 0)
(25.4122 2.43675e-05 0)
(25.4102 1.95627e-05 0)
(25.4086 1.49314e-05 0)
(25.4074 1.04658e-05 0)
(25.4065 6.1028e-06 0)
(25.4059 1.95327e-06 0)
(25.4056 -2.06567e-06 0)
(25.4057 -5.94653e-06 0)
(25.406 -9.75021e-06 0)
(25.4067 -1.33592e-05 0)
(25.4076 -1.68563e-05 0)
(25.4087 -2.02292e-05 0)
(25.4102 -2.36807e-05 0)
(25.4119 -2.68257e-05 0)
(25.4138 -2.98878e-05 0)
(25.4159 -3.28325e-05 0)
(25.4183 -3.58761e-05 0)
(25.4209 -3.86244e-05 0)
(25.4237 -4.13134e-05 0)
(25.4267 -4.38788e-05 0)
(25.4299 -4.68362e-05 0)
(25.4333 -4.92355e-05 0)
(25.4369 -5.16009e-05 0)
(25.4407 -5.38288e-05 0)
(25.4447 -5.64263e-05 0)
(25.4488 -5.85071e-05 0)
(25.4531 -6.05853e-05 0)
(25.4576 -6.25061e-05 0)
(25.4622 -6.5212e-05 0)
(25.467 -6.70133e-05 0)
(25.4719 -6.88268e-05 0)
(25.4769 -7.04554e-05 0)
(25.4821 -7.27129e-05 0)
(25.4875 -7.42264e-05 0)
(25.493 -7.57839e-05 0)
(25.4986 -7.71403e-05 0)
(25.5043 -7.95363e-05 0)
(25.5101 -8.08014e-05 0)
(25.5161 -8.2104e-05 0)
(25.5221 -8.31791e-05 0)
(25.5283 -8.4978e-05 0)
(25.5345 -8.59509e-05 0)
(25.5409 -8.6973e-05 0)
(25.5473 -8.77764e-05 0)
(25.5538 -8.94607e-05 0)
(25.5604 -9.01798e-05 0)
(25.567 -9.08987e-05 0)
(25.5737 -9.1416e-05 0)
(25.5805 -9.22966e-05 0)
(25.5873 -9.27139e-05 0)
(25.5941 -9.30845e-05 0)
(25.601 -9.33323e-05 0)
(25.6079 -9.35717e-05 0)
(25.6148 -9.37331e-05 0)
(25.6217 -9.37346e-05 0)
(25.6286 -9.36792e-05 0)
(25.6354 -9.32701e-05 0)
(25.6423 -9.15856e-05 0)
(25.6489 -9.14019e-05 0)
(25.6557 -4.69255e-05 0)
(34.5334 0.0801402 0)
(33.3602 0.0337828 0)
(31.9723 0.0212954 0)
(30.8975 0.0138032 0)
(30.1241 0.00962831 0)
(29.5557 0.00718745 0)
(29.1205 0.00564902 0)
(28.7745 0.00460536 0)
(28.4912 0.00385485 0)
(28.2535 0.00329155 0)
(28.0506 0.00285446 0)
(27.8746 0.00250599 0)
(27.7203 0.00222198 0)
(27.5835 0.00198631 0)
(27.4613 0.00178778 0)
(27.3515 0.00161841 0)
(27.2521 0.00147232 0)
(27.1617 0.00134511 0)
(27.0792 0.00123342 0)
(27.0035 0.00113463 0)
(26.934 0.00104669 0)
(26.8699 0.000967937 0)
(26.8106 0.000897055 0)
(26.7556 0.000832943 0)
(26.7046 0.000774711 0)
(26.6572 0.000721609 0)
(26.6131 0.000673025 0)
(26.5719 0.000628407 0)
(26.5334 0.000587318 0)
(26.4975 0.00054937 0)
(26.4638 0.000514249 0)
(26.4323 0.000481637 0)
(26.4029 0.0004513 0)
(26.3752 0.000423013 0)
(26.3493 0.000396624 0)
(26.325 0.000371894 0)
(26.3022 0.000348708 0)
(26.2808 0.000326923 0)
(26.2607 0.000306468 0)
(26.2419 0.00028716 0)
(26.2243 0.000268947 0)
(26.2077 0.000251732 0)
(26.1922 0.000235505 0)
(26.1778 0.000220088 0)
(26.1642 0.000205473 0)
(26.1515 0.000191592 0)
(26.1397 0.000178448 0)
(26.1287 0.000165911 0)
(26.1184 0.000153982 0)
(26.1089 0.000142609 0)
(26.1 0.000131803 0)
(26.0918 0.000121463 0)
(26.0843 0.000111585 0)
(26.0773 0.000102137 0)
(26.0709 9.31191e-05 0)
(26.0651 8.44726e-05 0)
(26.0598 7.61866e-05 0)
(26.055 6.82375e-05 0)
(26.0507 6.06081e-05 0)
(26.0468 5.32945e-05 0)
(26.0434 4.62606e-05 0)
(26.0404 3.94941e-05 0)
(26.0379 3.29774e-05 0)
(26.0357 2.67199e-05 0)
(26.0339 2.06885e-05 0)
(26.0325 1.48759e-05 0)
(26.0314 9.20743e-06 0)
(26.0306 3.8088e-06 0)
(26.0302 -1.42036e-06 0)
(26.0301 -6.47011e-06 0)
(26.0303 -1.14093e-05 0)
(26.0308 -1.6105e-05 0)
(26.0316 -2.06553e-05 0)
(26.0327 -2.50421e-05 0)
(26.034 -2.94933e-05 0)
(26.0356 -3.35857e-05 0)
(26.0374 -3.75693e-05 0)
(26.0395 -4.14003e-05 0)
(26.0418 -4.53219e-05 0)
(26.0443 -4.89004e-05 0)
(26.0471 -5.24006e-05 0)
(26.05 -5.57435e-05 0)
(26.0532 -5.94971e-05 0)
(26.0566 -6.26285e-05 0)
(26.0602 -6.57123e-05 0)
(26.0639 -6.86246e-05 0)
(26.0678 -7.1927e-05 0)
(26.072 -7.46526e-05 0)
(26.0762 -7.73685e-05 0)
(26.0807 -7.98912e-05 0)
(26.0853 -8.32527e-05 0)
(26.0901 -8.56239e-05 0)
(26.095 -8.80019e-05 0)
(26.1001 -9.01557e-05 0)
(26.1053 -9.29825e-05 0)
(26.1106 -9.49897e-05 0)
(26.1161 -9.70398e-05 0)
(26.1217 -9.88474e-05 0)
(26.1275 -0.000101768 0)
(26.1333 -0.000103456 0)
(26.1393 -0.000105178 0)
(26.1454 -0.000106626 0)
(26.1516 -0.000108847 0)
(26.1579 -0.000110159 0)
(26.1643 -0.000111516 0)
(26.1707 -0.000112608 0)
(26.1773 -0.000114634 0)
(26.1839 -0.000115606 0)
(26.1906 -0.000116562 0)
(26.1974 -0.000117272 0)
(26.2042 -0.000118354 0)
(26.211 -0.000118918 0)
(26.2179 -0.000119409 0)
(26.2248 -0.000119743 0)
(26.2318 -0.000120043 0)
(26.2387 -0.000120238 0)
(26.2457 -0.000120234 0)
(26.2526 -0.000120138 0)
(26.2595 -0.000119641 0)
(26.2665 -0.00011745 0)
(26.2731 -0.000117242 0)
(26.28 -6.02435e-05 0)
(34.7383 0.0835127 0)
(34.0044 0.0389143 0)
(32.8456 0.0266757 0)
(31.8006 0.0180607 0)
(30.9964 0.0127823 0)
(30.3892 0.00956164 0)
(29.9198 0.00749911 0)
(29.546 0.00609464 0)
(29.2402 0.00508589 0)
(28.9844 0.00433095 0)
(28.7664 0.0037471 0)
(28.578 0.00328316 0)
(28.413 0.00290619 0)
(28.2672 0.00259424 0)
(28.1371 0.0023321 0)
(28.0204 0.00210894 0)
(27.9149 0.00191683 0)
(27.8191 0.00174984 0)
(27.7318 0.00160345 0)
(27.6518 0.00147415 0)
(27.5783 0.00135918 0)
(27.5106 0.00125635 0)
(27.4481 0.0011639 0)
(27.3901 0.00108035 0)
(27.3364 0.00100453 0)
(27.2864 0.000935443 0)
(27.2399 0.000872279 0)
(27.1966 0.000814315 0)
(27.1561 0.000760967 0)
(27.1183 0.000711728 0)
(27.0829 0.000666178 0)
(27.0498 0.000623908 0)
(27.0188 0.000584605 0)
(26.9897 0.000547976 0)
(26.9624 0.000513811 0)
(26.9369 0.000481815 0)
(26.9129 0.000451827 0)
(26.8904 0.000423663 0)
(26.8692 0.000397217 0)
(26.8494 0.00037227 0)
(26.8308 0.000348743 0)
(26.8134 0.000326511 0)
(26.7971 0.000305547 0)
(26.7818 0.000285644 0)
(26.7675 0.000266779 0)
(26.7541 0.000248865 0)
(26.7416 0.000231894 0)
(26.73 0.000215719 0)
(26.7191 0.000200327 0)
(26.709 0.000185657 0)
(26.6996 0.000171709 0)
(26.6909 0.000158373 0)
(26.6829 0.000145634 0)
(26.6755 0.000133452 0)
(26.6686 0.00012182 0)
(26.6624 0.000110675 0)
(26.6567 9.99951e-05 0)
(26.6515 8.97531e-05 0)
(26.6469 7.99228e-05 0)
(26.6427 7.05025e-05 0)
(26.639 6.14443e-05 0)
(26.6357 5.27344e-05 0)
(26.6329 4.43471e-05 0)
(26.6304 3.62954e-05 0)
(26.6284 2.85356e-05 0)
(26.6267 2.1061e-05 0)
(26.6254 1.37833e-05 0)
(26.6245 6.84485e-06 0)
(26.6239 1.2565e-07 0)
(26.6236 -6.36357e-06 0)
(26.6236 -1.27016e-05 0)
(26.624 -1.87363e-05 0)
(26.6246 -2.45836e-05 0)
(26.6255 -3.02188e-05 0)
(26.6267 -3.58965e-05 0)
(26.6282 -4.11543e-05 0)
(26.6299 -4.62712e-05 0)
(26.6319 -5.11918e-05 0)
(26.6341 -5.61886e-05 0)
(26.6365 -6.07873e-05 0)
(26.6392 -6.5284e-05 0)
(26.6421 -6.95821e-05 0)
(26.6452 -7.43039e-05 0)
(26.6485 -7.83343e-05 0)
(26.652 -8.22998e-05 0)
(26.6557 -8.60527e-05 0)
(26.6595 -9.02117e-05 0)
(26.6636 -9.37294e-05 0)
(26.6679 -9.72272e-05 0)
(26.6723 -0.00010049 0)
(26.6769 -0.000104639 0)
(26.6816 -0.00010771 0)
(26.6865 -0.000110781 0)
(26.6916 -0.000113581 0)
(26.6968 -0.000117093 0)
(26.7021 -0.000119708 0)
(26.7076 -0.000122363 0)
(26.7132 -0.000124727 0)
(26.719 -0.00012827 0)
(26.7248 -0.00013048 0)
(26.7308 -0.000132716 0)
(26.7369 -0.000134627 0)
(26.7431 -0.000137353 0)
(26.7494 -0.000139086 0)
(26.7558 -0.000140854 0)
(26.7623 -0.000142305 0)
(26.7689 -0.000144736 0)
(26.7755 -0.000146023 0)
(26.7822 -0.000147272 0)
(26.789 -0.000148223 0)
(26.7959 -0.00014955 0)
(26.8028 -0.000150298 0)
(26.8097 -0.000150943 0)
(26.8166 -0.000151387 0)
(26.8236 -0.000151765 0)
(26.8306 -0.000152006 0)
(26.8376 -0.000152003 0)