/*--------------------------------*- C++ -*----------------------------------*\
  =========                 |
  \\      /  F ield         | OpenFOAM: The Open Source CFD Toolbox
   \\    /   O peration     | Website:  https://openfoam.org
    \\  /    A nd           | Version:  7
     \\/     M anipulation  |
\*---------------------------------------------------------------------------*/
FoamFile
{
    version     2.0;
    format      ascii;
    class       volScalarField;
    location    "2.8";
    object      T;
}
// * * * * * * * * * * * * * * * * * * * * * * * * * * * * * * * * * * * * * //

dimensions      [0 0 0 1 0 0 0];

internalField   nonuniform List<scalar> 
32100
(
1.02901e+77
-1.32276e+76
4.18219e+74
9.97345e+73
-1.3282e+73
-1.30024e+72
2.13142e+71
-6.99339e+69
-1.84608e+69
2.43852e+68
1.56063e+67
-9.03254e+65
4.24084e+63
3.05639e+63
1.14867e+63
-1.44569e+76
4.16486e+74
1.07591e+74
-1.35938e+73
-1.36945e+72
2.1964e+71
-7.01276e+69
-1.89722e+69
2.60916e+68
3.356e+67
3.2652e+66
-1.1469e+66
1.89154e+64
2.39015e+63
8.24834e+62
3.95331e+74
1.19279e+74
-1.40721e+73
-1.45574e+72
2.28879e+71
-7.20815e+69
-2.01004e+69
2.58782e+68
2.48164e+67
-5.84555e+66
-1.81941e+65
-7.09106e+65
2.44829e+64
2.66051e+63
6.71141e+62
1.36249e+74
-1.4752e+73
-1.65393e+72
2.4326e+71
-6.06697e+69
-2.29758e+69
2.19969e+68
2.69542e+67
-5.76901e+66
-2.92838e+65
-4.89373e+65
-3.14363e+65
2.38883e+64
3.23803e+63
4.91605e+62
-1.37386e+73
-1.95878e+72
1.84692e+71
-2.5987e+69
-1.26022e+69
3.31266e+67
-1.5685e+67
-5.10056e+66
3.43849e+65
-1.65213e+65
-1.85042e+65
-9.62804e+64
1.96687e+64
3.18322e+63
2.79395e+62
-1.00258e+72
1.11927e+71
-7.42209e+70
1.34538e+69
1.19955e+69
-1.86719e+68
-4.98733e+67
4.91559e+65
2.23778e+65
-5.73832e+64
-1.81657e+64
-1.20979e+64
1.37188e+64
2.41345e+63
9.97452e+61
1.25613e+72
-1.46455e+71
-6.90633e+70
3.21742e+69
9.89487e+68
-2.0157e+68
-4.43441e+67
-1.23896e+65
2.00434e+65
-2.54888e+64
9.80204e+63
8.06886e+63
7.87613e+63
1.38021e+63
-1.57032e+61
8.71854e+71
-1.21519e+71
-6.49659e+70
2.25139e+69
9.74393e+68
-1.73539e+68
-4.47384e+67
-5.65803e+65
2.13398e+65
-2.4744e+64
8.03077e+63
6.89258e+63
3.52343e+63
5.4734e+62
-6.46271e+61
7.95186e+71
-9.79144e+70
-6.34867e+70
1.46903e+69
9.93105e+68
-1.50948e+68
-4.45815e+67
-9.57331e+65
2.16196e+65
-2.58681e+64
2.89144e+63
3.03259e+63
1.12218e+63
9.64059e+61
-6.50194e+61
7.24154e+71
-7.85855e+70
-6.14916e+70
7.26028e+68
9.95006e+68
-1.27737e+68
-4.40222e+67
-1.35253e+66
2.15149e+65
-2.34244e+64
4.49282e+62
1.45703e+63
2.04579e+62
-5.226e+61
-4.36753e+61
6.55829e+71
-6.06193e+70
-5.92927e+70
-1.76681e+67
9.8717e+68
-1.04567e+68
-4.313e+67
-1.73666e+66
2.08877e+65
-1.93374e+64
-4.80988e+62
1.05412e+63
8.73657e+60
-5.57452e+61
-2.14784e+61
5.92518e+71
-4.55303e+70
-5.66709e+70
-7.25728e+68
9.7152e+68
-8.19646e+67
-4.19392e+67
-2.09907e+66
1.96458e+65
-1.49793e+64
-9.23238e+62
8.80228e+62
3.08843e+61
-2.58808e+61
-7.23081e+60
5.26059e+71
-3.7118e+70
-5.19834e+70
-1.28558e+69
9.39071e+68
-6.05427e+67
-4.05259e+67
-2.42928e+66
1.781e+65
-1.09181e+64
-1.18728e+63
7.11509e+62
4.71736e+61
-7.8076e+60
-1.33964e+60
4.16798e+71
-2.88883e+70
-4.09984e+70
-1.54191e+69
8.08925e+68
-4.26858e+67
-3.85289e+67
-2.70199e+66
1.54014e+65
-7.26314e+63
-1.42339e+63
6.00299e+62
4.21363e+61
-3.54733e+60
-2.17297e+59
2.54151e+71
-1.61486e+70
-3.20603e+70
-1.61487e+69
6.42153e+68
-2.56413e+67
-3.3343e+67
-2.78221e+66
1.25498e+65
-3.94141e+63
-1.69254e+63
6.13588e+62
5.06478e+61
-2.65513e+60
3.70522e+58
2.00586e+71
-3.66465e+69
-2.72232e+70
-1.73157e+69
5.40732e+68
-9.4809e+66
-2.86004e+67
-2.86886e+66
9.78868e+64
-6.42046e+62
-1.98673e+63
6.33076e+62
7.14078e+61
-2.66387e+60
1.13643e+59
1.86397e+71
2.75321e+69
-2.43917e+70
-1.88437e+69
4.92014e+68
4.09779e+66
-2.61882e+67
-3.07479e+66
7.0049e+64
2.58004e+63
-2.22291e+63
5.82363e+62
8.73962e+61
-2.47583e+60
9.90031e+58
1.62695e+71
6.3168e+69
-2.2736e+70
-2.08017e+69
4.57355e+68
1.50734e+67
-2.44478e+67
-3.32283e+66
3.72007e+64
5.74592e+63
-2.37062e+63
5.00793e+62
9.75705e+61
-1.78397e+60
2.57928e+58
1.42722e+71
8.96971e+69
-2.10881e+70
-2.274e+69
4.16527e+68
2.5318e+67
-2.27559e+67
-3.59219e+66
-1.72044e+63
8.74583e+63
-2.42461e+63
4.04717e+62
1.03406e+62
-7.09154e+59
-7.40434e+58
1.24714e+71
1.11839e+70
-1.93423e+70
-2.45237e+69
3.69407e+68
3.51634e+67
-2.08911e+67
-3.85479e+66
-4.71631e+64
1.14036e+64
-2.38059e+63
3.09627e+62
1.09406e+62
6.11244e+59
-1.83369e+59
1.07545e+71
1.28236e+70
-1.74997e+70
-2.60822e+69
3.16841e+68
4.44378e+67
-1.87926e+67
-4.09582e+66
-9.94625e+64
1.36081e+64
-2.23944e+63
2.092e+62
1.12258e+62
2.1078e+60
-2.85825e+59
9.13418e+70
1.39103e+70
-1.56393e+70
-2.743e+69
2.59028e+68
5.29266e+67
-1.64417e+67
-4.31427e+66
-1.59282e+65
1.52609e+64
-2.00684e+63
1.07178e+62
1.09349e+62
3.59113e+60
-3.55318e+59
7.66143e+70
1.45415e+70
-1.38258e+70
-2.851e+69
1.96191e+68
6.03101e+67
-1.38409e+67
-4.50712e+66
-2.2784e+65
1.62316e+64
-1.68809e+63
1.19536e+61
1.0568e+62
5.02672e+60
-3.86158e+59
6.35125e+70
1.48035e+70
-1.20671e+70
-2.92638e+69
1.28388e+68
6.60109e+67
-1.10085e+67
-4.66959e+66
-3.0651e+65
1.62661e+64
-1.27985e+63
-7.71096e+61
1.02715e+62
6.50428e+60
-3.87579e+59
5.21145e+70
1.47854e+70
-1.03966e+70
-2.97126e+69
5.62747e+67
6.97755e+67
-7.96018e+66
-4.7874e+66
-3.96712e+65
1.49604e+64
-7.67311e+62
-1.6295e+62
9.98337e+61
8.12224e+60
-3.6902e+59
4.2322e+70
1.44983e+70
-8.80261e+69
-2.98144e+69
-1.93004e+67
7.14359e+67
-4.72218e+66
-4.83892e+66
-4.99771e+65
1.18625e+64
-1.39038e+62
-2.48703e+62
9.67334e+61
1.00428e+61
-3.35132e+59
3.41494e+70
1.40346e+70
-7.28972e+69
-2.95804e+69
-9.77203e+67
7.07158e+67
-1.33292e+66
-4.80696e+66
-6.16223e+65
6.36823e+63
6.13204e+62
-3.31019e+62
9.12483e+61
1.22306e+61
-2.7347e+59
2.72965e+70
1.35283e+70
-5.89156e+69
-2.9098e+69
-1.78175e+68
6.72871e+67
2.16106e+66
-4.67041e+66
-7.44085e+65
-2.33923e+63
1.47585e+63
-3.97892e+62
8.04721e+61
1.4293e+61
-1.67348e+59
2.13671e+70
1.29256e+70
-4.6275e+69
-2.83795e+69
-2.59559e+68
6.0878e+67
5.69763e+66
-4.4106e+66
-8.82005e+65
-1.5442e+64
2.40481e+63
-4.43583e+62
6.56132e+61
1.62827e+61
-1.61864e+58
1.62155e+70
1.2043e+70
-3.49817e+69
-2.73155e+69
-3.39864e+68
5.11491e+67
9.18771e+66
-4.00402e+66
-1.03071e+66
-3.41543e+64
3.32361e+63
-4.60361e+62
4.66862e+61
1.82724e+61
1.82199e+59
1.19213e+70
1.08043e+70
-2.49227e+69
-2.5789e+69
-4.16937e+68
3.77373e+67
1.25112e+67
-3.4187e+66
-1.18823e+66
-6.03176e+64
4.13201e+63
-4.295e+62
2.2552e+61
1.96826e+61
4.18756e+59
8.61853e+69
9.45264e+69
-1.58502e+69
-2.38713e+69
-4.88439e+68
2.03353e+67
1.54771e+67
-2.61568e+66
-1.34776e+66
-9.60857e+64
4.64442e+63
-3.37954e+62
-3.59043e+60
2.0603e+61
6.89172e+59
6.18213e+69
8.34254e+69
-7.77496e+68
-2.16356e+69
-5.51013e+68
-1.33857e+66
1.7796e+67
-1.55538e+66
-1.49327e+66
-1.44278e+65
4.50197e+63
-1.8385e+62
-3.20687e+61
2.20661e+61
1.05881e+60
4.1833e+69
7.49496e+69
-6.5114e+67
-1.91312e+69
-6.03782e+68
-2.74322e+67
1.91176e+67
-2.3147e+65
-1.59914e+66
-2.07331e+65
3.01978e+63
7.44384e+61
-6.89855e+61
2.43748e+61
1.66869e+60
2.49515e+69
6.60137e+69
5.23049e+68
-1.64197e+69
-6.46512e+68
-5.80177e+67
1.89615e+67
1.31446e+66
-1.63303e+66
-2.87195e+65
-9.9153e+62
4.94491e+62
-1.14581e+62
2.64031e+61
2.69459e+60
1.2028e+69
5.56966e+69
9.78267e+68
-1.35471e+69
-6.7682e+68
-9.28543e+67
1.66553e+67
2.99535e+66
-1.55774e+66
-3.82697e+65
-9.40197e+63
1.11539e+63
-1.63075e+62
2.61725e+61
4.36584e+60
2.41989e+68
4.60145e+69
1.3345e+69
-1.05999e+69
-6.91995e+68
-1.30717e+68
1.18598e+67
4.68767e+66
-1.34101e+66
-4.87317e+65
-2.45385e+64
1.89855e+63
-1.94701e+62
1.99761e+61
6.90592e+60
-4.7712e+68
3.74005e+69
1.60842e+69
-7.61648e+68
-6.87902e+68
-1.69148e+68
4.43326e+66
6.21089e+66
-9.5812e+65
-5.90025e+65
-4.85192e+64
2.49074e+63
-1.62197e+62
3.64711e+60
1.01692e+61
-9.81555e+68
2.93644e+69
1.78763e+69
-4.59679e+68
-6.56982e+68
-2.0378e+68
-5.73411e+66
7.32656e+66
-4.01131e+65
-6.70731e+65
-8.19421e+64
2.30356e+63
-1.33994e+61
-2.45079e+61
1.34322e+61
-1.29284e+69
2.17737e+69
1.86201e+69
-1.67317e+68
-5.89875e+68
-2.31099e+68
-1.83907e+67
7.74121e+66
2.98522e+65
-7.02478e+65
-1.23235e+65
5.58531e+62
3.13839e+62
-6.40396e+61
1.51188e+61
-1.41351e+69
1.45989e+69
1.80801e+69
9.31099e+67
-4.93036e+68
-2.48828e+68
-3.27076e+67
7.10931e+66
1.07389e+66
-6.674e+65
-1.68587e+65
-3.58697e+63
8.75451e+62
-1.04896e+62
1.18241e+61
-1.3597e+69
8.37961e+68
1.63046e+69
3.00592e+68
-3.82545e+68
-2.55862e+68
-4.74577e+67
5.38617e+66
1.86848e+66
-5.64295e+65
-2.10523e+65
-1.05697e+64
1.41508e+63
-1.09087e+62
1.4708e+60
-1.19732e+69
3.77569e+68
1.37311e+69
4.48664e+68
-2.69334e+68
-2.5221e+68
-6.13452e+67
2.54048e+66
2.61357e+66
-3.9863e+65
-2.35493e+65
-1.88209e+64
1.70959e+63
-5.98119e+61
-1.37186e+61
-1.00545e+69
8.2077e+67
1.10906e+69
5.43646e+68
-1.60114e+68
-2.3898e+68
-7.34691e+67
-1.16466e+66
2.97949e+66
-1.91096e+65
-2.46468e+65
-2.71501e+64
1.7615e+63
3.0976e+61
-3.05014e+61
-8.25848e+68
-9.66358e+67
8.80062e+68
5.93834e+68
-5.93227e+67
-2.18411e+68
-8.33509e+67
-5.24572e+66
3.00411e+66
2.19713e+64
-2.51266e+65
-3.40106e+64
1.43179e+63
1.57107e+62
-6.66402e+61
-6.73489e+68
-2.07227e+68
6.82526e+68
6.09214e+68
3.04389e+67
-1.92925e+68
-9.12742e+67
-9.43386e+66
2.86313e+66
2.14693e+65
-2.24636e+65
-3.56893e+64
7.98242e+62
2.1175e+62
-3.98588e+61
-5.4577e+68
-2.76576e+68
5.11719e+68
6.01459e+68
1.07905e+68
-1.64423e+68
-9.77925e+67
-1.3868e+67
2.57451e+66
3.81552e+65
-1.90867e+65
-3.51021e+64
2.95711e+62
1.76671e+62
-1.84831e+61
-4.36966e+68
-3.14766e+68
3.58128e+68
5.73229e+68
1.72484e+68
-1.32951e+68
-1.02532e+68
-1.8515e+67
2.23251e+66
5.24811e+65
-1.70568e+65
-3.5938e+64
-2.25216e+61
1.65991e+62
-1.31513e+61
-3.43048e+68
-3.27894e+68
2.20669e+68
5.25268e+68
2.2348e+68
-9.81052e+67
-1.04187e+68
-2.32345e+67
1.76735e+66
6.65001e+65
-1.5467e+65
-3.78078e+64
-2.91485e+62
1.72567e+62
-1.33455e+61
-2.63629e+68
-3.19446e+68
1.0665e+68
4.65979e+68
2.62276e+68
-6.09352e+67
-1.02507e+68
-2.78694e+67
1.11441e+66
7.98852e+65
-1.38827e+65
-4.00154e+64
-5.65836e+62
1.84792e+62
-1.60429e+61
-1.98093e+68
-2.97288e+68
1.51661e+67
3.99007e+68
2.90239e+68
-2.30959e+67
-9.89143e+67
-3.25067e+67
2.59443e+65
9.21032e+65
-1.2089e+65
-4.17474e+64
-8.48392e+62
1.84114e+62
-2.01577e+61
-1.44722e+68
-2.66462e+68
-5.93882e+67
3.22161e+68
3.07345e+68
1.52378e+67
-9.34558e+67
-3.7415e+67
-8.32525e+65
1.0266e+66
-9.9082e+64
-4.1869e+64
-1.10409e+63
1.54442e+62
-2.57296e+61
-1.03104e+68
-2.28431e+68
-1.13707e+68
2.42834e+68
3.14052e+68
5.44531e+67
-8.48406e+67
-4.24593e+67
-2.20036e+66
1.11205e+66
-7.47695e+64
-4.01044e+64
-1.2899e+63
9.66125e+61
-3.69805e+61
-7.17743e+67
-1.88332e+68
-1.45746e+68
1.66891e+68
3.11729e+68
9.395e+67
-7.24613e+67
-4.72861e+67
-3.87267e+66
1.16698e+66
-5.05764e+64
-3.66851e+64
-1.38474e+63
1.97013e+61
-6.41618e+61
-4.81852e+67
-1.50843e+68
-1.61433e+68
9.46075e+67
2.96097e+68
1.32028e+68
-5.56986e+67
-5.15032e+67
-5.86212e+66
1.18386e+66
-2.92272e+64
-3.15853e+64
-1.39083e+63
-6.19974e+61
-1.08216e+62
-3.06087e+67
-1.16308e+68
-1.64782e+68
2.5696e+67
2.64321e+68
1.66592e+68
-3.41355e+67
-5.46455e+67
-8.1625e+66
1.15679e+66
-1.44168e+64
-2.44071e+64
-1.34711e+63
-1.01184e+62
-1.2034e+62
-1.79087e+67
-8.4795e+67
-1.56653e+68
-3.59621e+67
2.18876e+68
1.94881e+68
-7.75202e+66
-5.65755e+67
-1.07367e+67
1.0476e+66
-7.74906e+63
-1.4692e+64
-1.14548e+63
-1.01998e+62
-1.11791e+62
-9.39632e+66
-5.75579e+67
-1.38758e+68
-8.53357e+67
1.6158e+68
2.13207e+68
2.3409e+67
-5.66558e+67
-1.35165e+67
8.64851e+65
-6.88002e+63
-4.84621e+63
-1.18864e+63
-1.65546e+62
-1.14972e+62
-4.27729e+66
-3.55151e+67
-1.13878e+68
-1.19794e+68
9.6109e+67
2.18398e+68
5.90692e+67
-5.36491e+67
-1.65316e+67
6.48414e+65
-6.29114e+63
1.22915e+63
-1.71187e+63
-3.39267e+62
-1.6819e+62
-1.54462e+66
-1.91369e+67
-8.51934e+67
-1.37572e+68
2.8124e+67
2.07836e+68
9.79715e+67
-4.61937e+67
-2.00056e+67
5.97616e+65
1.945e+64
1.42984e+63
-1.96849e+63
-8.43009e+62
-4.232e+62
-3.15499e+65
-8.08295e+66
-5.58312e+67
-1.38827e+68
-3.77566e+67
1.7872e+68
1.37504e+68
-3.26464e+67
-2.32487e+67
6.3492e+65
5.13573e+64
-1.88156e+64
-8.13592e+63
-5.42128e+63
-2.15599e+63
1.64907e+61
-1.84137e+66
-2.88604e+67
-1.24117e+68
-9.72453e+67
1.28328e+68
1.7267e+68
-1.17262e+67
-2.40158e+67
-4.51813e+65
2.28176e+65
-6.01357e+62
2.74295e+64
1.34124e+64
2.17625e+63
-6.48758e+64
2.04705e+65
-7.78784e+66
-9.41981e+67
-1.43978e+68
5.63741e+67
1.95122e+68
1.61575e+67
-2.51386e+67
-3.32013e+66
5.55263e+64
-1.73413e+65
-1.59903e+65
-9.28764e+64
-2.49668e+64
-6.73673e+64
1.543e+64
3.25549e+66
-5.22583e+67
-1.67968e+68
-3.048e+67
1.96168e+68
4.99024e+67
-2.39407e+67
-6.69478e+66
-2.63088e+66
-2.0347e+66
-2.52724e+66
-3.24533e+66
-2.05227e+66
1.20937e+65
2.09688e+64
3.57338e+66
-1.22928e+67
-1.57833e+68
-1.17114e+68
1.71079e+68
8.2481e+67
-1.58608e+67
-6.54049e+66
-5.77073e+66
-5.5925e+66
-7.50362e+66
-6.60522e+66
-3.48514e+66
5.57259e+64
2.50676e+64
5.85057e+66
-4.75117e+66
-1.17235e+68
-1.78669e+68
1.23826e+68
1.03198e+68
-2.36362e+66
-2.57675e+66
-1.52549e+66
-3.50935e+66
-4.35039e+66
-3.19099e+66
-3.33058e+66
8.17077e+67
3.42618e+67
1.93215e+67
-2.44833e+67
-1.1064e+68
-1.73488e+68
7.64848e+67
1.07805e+68
1.15644e+67
5.19362e+65
-6.91061e+65
-6.80576e+65
-7.43309e+65
-1.11756e+66
-2.9433e+66
-1.40549e+69
-5.60049e+68
-2.36838e+68
-1.20508e+68
-1.52879e+68
-1.34798e+68
1.05676e+68
1.04158e+68
2.73085e+67
1.73638e+66
-1.55093e+66
-1.5332e+66
-1.17637e+66
-9.34736e+65
-2.37742e+66
4.91941e+69
1.70266e+69
-4.28579e+67
-4.22693e+68
-3.69764e+68
6.48758e+67
3.41921e+68
1.67803e+68
3.91283e+67
5.15686e+66
-1.03511e+66
-1.60725e+66
-1.22804e+66
-8.56842e+65
-2.0197e+66
1.24099e+71
3.27646e+70
1.39547e+70
7.25232e+69
3.99697e+69
2.30947e+69
1.07283e+69
3.39885e+68
7.35426e+67
6.29305e+66
-3.92468e+66
-3.50144e+66
-2.15016e+66
-1.23951e+66
-1.91662e+66
1.15931e+72
2.92337e+71
1.4971e+71
7.28075e+70
3.91716e+70
2.18052e+70
8.89815e+69
2.32377e+69
5.26583e+68
1.13598e+68
2.62248e+67
8.4402e+66
4.27477e+66
2.6213e+66
6.1964e+66
-3.4781e+73
-3.83633e+72
-2.39423e+71
9.87026e+70
9.94921e+70
5.18984e+70
1.67345e+70
4.30449e+69
1.08094e+69
3.06829e+68
1.11564e+68
5.41308e+67
3.11705e+67
1.98347e+67
3.12611e+67
2.73959e+74
-8.64178e+72
-7.32954e+72
-1.50503e+72
-1.3508e+71
3.13993e+70
1.71738e+70
3.91962e+69
7.09824e+68
-3.98957e+67
-1.94829e+68
-1.8251e+68
-1.2334e+68
-5.96196e+67
-2.06029e+67
-1.14498e+74
2.52717e+74
-2.30925e+72
-2.56686e+72
-1.60114e+71
1.84475e+70
6.74659e+69
2.38068e+69
-1.94724e+68
-1.61684e+68
4.19476e+67
9.695e+67
4.8866e+67
-5.98234e+66
-4.5413e+67
-1.80821e+76
-1.58439e+74
2.80508e+74
-3.86151e+73
2.33971e+72
3.64799e+71
1.03646e+70
-1.72406e+69
-8.09873e+68
-2.97054e+69
-3.05631e+69
-2.44811e+69
-1.56994e+69
-7.74017e+68
-3.30648e+68
-1.3531e+77
-1.76007e+76
2.2921e+74
2.30926e+74
-4.31723e+73
1.79644e+72
-7.0478e+71
-9.95982e+71
-9.02671e+71
-7.65991e+71
-6.12405e+71
-4.44591e+71
-2.76865e+71
-1.37668e+71
-4.8529e+70
2.4519e+78
-1.34794e+77
-1.61698e+76
2.34175e+74
1.90064e+74
-5.52844e+73
-9.29635e+72
-9.09596e+72
-7.23227e+72
-5.35257e+72
-3.82379e+72
-2.62214e+72
-1.65034e+72
-9.00258e+71
-3.40996e+71
-1.61742e+79
2.2053e+78
-1.31591e+77
-1.56284e+76
1.92939e+74
1.61891e+74
-5.52877e+73
-1.16832e+72
3.94345e+72
7.41499e+72
8.58708e+72
7.51985e+72
4.96869e+72
2.17711e+72
7.1585e+71
1.08951e+79
-1.3867e+79
2.02314e+78
-1.28693e+77
-1.50254e+76
3.84696e+74
2.71376e+74
4.63911e+72
1.19588e+73
-1.47637e+73
-2.73483e+73
-2.74452e+73
-2.00871e+73
-1.05487e+73
-4.27016e+72
7.83079e+80
3.08007e+78
-1.22842e+79
1.90542e+78
-1.262e+77
-1.55516e+76
-1.73617e+74
-1.19421e+74
-2.06484e+74
-4.88565e+73
2.35929e+73
5.04977e+73
4.9174e+73
3.16267e+73
1.48175e+73
1.78743e+82
2.1541e+81
2.01544e+79
-3.72662e+79
5.72577e+78
-2.38675e+77
5.44275e+76
1.02286e+77
1.00745e+77
9.23785e+76
8.04717e+76
6.60207e+76
4.95971e+76
3.58016e+76
2.64619e+76
-3.55661e+83
1.6187e+82
2.04149e+81
3.48125e+79
-3.77202e+79
6.73189e+78
6.38108e+77
7.15677e+77
6.62613e+77
5.50811e+77
3.85826e+77
2.57272e+77
1.75693e+77
1.18854e+77
7.10167e+76
2.60307e+84
-3.21165e+83
1.61436e+82
2.1013e+81
5.49823e+79
-3.0799e+79
1.03163e+79
3.65226e+78
2.7529e+78
2.08559e+78
1.49964e+78
1.00124e+78
5.9746e+77
3.16987e+77
1.76518e+77
-4.13942e+84
2.22766e+84
-3.03254e+83
1.2646e+82
3.2668e+81
3.16703e+80
4.3918e+78
2.75684e+79
1.92887e+79
1.1175e+79
6.93325e+78
4.01864e+78
2.05636e+78
9.12727e+77
4.41326e+77
-1.09361e+86
-2.40424e+84
1.99032e+84
-2.76858e+83
1.35631e+82
1.62929e+81
7.4339e+79
9.42621e+78
2.20868e+79
1.2245e+79
8.29784e+78
5.70373e+78
3.65937e+78
2.04422e+78
1.153e+78
-3.51016e+84
2.18155e+84
-3.10759e+83
1.49315e+82
2.13907e+81
1.25777e+80
6.07515e+78
3.07501e+79
1.64111e+79
1.06351e+79
7.19243e+78
5.56041e+78
4.20784e+78
2.91203e+78
1.94042e+78
2.66934e+84
-3.50897e+83
5.9936e+81
1.73253e+81
2.2413e+80
3.698e+79
3.18361e+79
2.28602e+79
1.57151e+79
1.02732e+79
6.63971e+78
5.45424e+78
4.31683e+78
3.33481e+78
2.40439e+78
-2.46808e+83
-1.74706e+82
-1.56787e+81
-1.30664e+80
7.28722e+79
7.65274e+79
5.51503e+79
3.69988e+79
2.41465e+79
1.5558e+79
1.05059e+79
8.69245e+78
5.41357e+78
3.42148e+78
2.08058e+78
5.42561e+81
1.33558e+81
6.75536e+80
3.20279e+80
1.6686e+80
9.40704e+79
5.52571e+79
3.33252e+79
2.05695e+79
1.43505e+79
1.26858e+79
1.50248e+79
1.18793e+78
1.8417e+77
4.83758e+76
4.71673e+80
1.2782e+80
6.71523e+79
4.05366e+79
2.39421e+79
1.43015e+79
8.86455e+78
5.76427e+78
4.42171e+78
8.70072e+78
2.44369e+78
-2.13064e+77
5.79801e+76
7.79948e+75
2.78247e+75
3.79702e+79
1.50345e+79
3.01646e+78
-3.81186e+77
-1.0731e+78
-1.06871e+78
-9.10018e+77
-7.95803e+77
-1.20588e+78
4.59936e+78
6.91412e+78
1.68459e+77
-3.0004e+77
-1.62918e+77
-8.13833e+76
-1.05066e+79
-3.97473e+78
-1.56653e+78
-7.68893e+77
-4.30203e+77
-2.16184e+77
-1.12725e+77
-2.84159e+76
2.46754e+77
9.08882e+77
5.53037e+78
3.68561e+78
2.10946e+78
1.18213e+78
6.6216e+77
1.11312e+78
4.07508e+77
1.94721e+77
1.21281e+77
8.77989e+76
5.89953e+76
2.2277e+76
-4.68475e+75
-1.73394e+76
-8.11745e+76
2.75995e+77
6.75176e+77
7.29574e+77
6.04814e+77
4.59589e+77
-2.65645e+76
-8.90305e+75
-7.18965e+75
-5.74941e+75
-4.99545e+75
-3.978e+75
-1.2282e+75
8.49953e+74
1.40223e+75
4.36834e+75
-2.13674e+76
-3.26027e+76
-2.89531e+76
-2.36573e+76
-1.9868e+76
-5.76972e+75
-1.96468e+75
-1.17683e+75
-9.34737e+74
-8.01106e+74
-6.48363e+74
-4.54409e+74
-2.58566e+74
3.71215e+72
6.97784e+74
1.80615e+75
1.20508e+75
5.63076e+74
2.87456e+74
1.72949e+74
-5.74312e+74
-2.74937e+74
-7.49648e+73
-8.74886e+71
2.67986e+73
2.92116e+73
-7.66377e+72
-4.53509e+73
-7.21228e+73
-1.15493e+74
2.49987e+74
4.48867e+74
4.23715e+74
3.51411e+74
2.7852e+74
2.03023e+74
8.1941e+73
3.35077e+73
1.6615e+73
9.40347e+72
5.07759e+72
2.3407e+72
-1.2114e+72
-1.12962e+73
-3.86651e+73
-8.28744e+73
-8.01952e+73
-6.23648e+73
-4.7469e+73
-3.60978e+73
-2.43887e+73
-9.27238e+72
-4.55689e+72
-2.86577e+72
-2.04082e+72
-1.31053e+72
-4.63121e+71
2.41383e+71
5.51752e+71
-6.15888e+71
-4.75706e+72
-6.32926e+72
-5.65229e+72
-4.52799e+72
-3.47392e+72
6.49664e+71
2.40968e+71
1.85723e+71
1.45623e+71
1.15564e+71
6.76452e+70
-3.36976e+69
-3.20402e+70
4.85397e+70
3.23564e+71
7.67299e+71
8.09547e+71
6.61226e+71
5.0632e+71
3.76291e+71
1.32418e+71
4.59437e+70
2.86131e+70
2.29353e+70
1.93789e+70
1.45164e+70
6.71809e+69
-5.99237e+69
-2.58818e+70
-4.25253e+70
-4.24087e+70
-2.74688e+70
-1.78581e+70
-1.44247e+70
-1.60289e+70
1.42494e+70
6.08474e+69
1.47413e+69
-1.49944e+67
-3.77577e+68
5.23067e+67
1.16695e+69
1.89762e+69
9.10435e+68
-3.42314e+69
-9.95159e+69
-1.12145e+70
-9.99193e+69
-9.48324e+69
-1.13739e+70
-4.36855e+69
-1.69137e+69
-7.12334e+68
-3.82751e+68
-2.34406e+68
-1.22074e+68
1.79034e+67
2.97507e+68
8.67162e+68
1.60758e+69
1.97741e+69
1.56736e+69
7.68175e+68
-7.07726e+68
-3.72293e+69
4.00209e+68
1.49882e+68
7.88184e+67
5.30208e+67
3.83885e+67
2.21743e+67
2.82012e+66
-9.37707e+66
3.91133e+66
7.10096e+67
1.6813e+68
1.43517e+68
-7.18554e+67
-8.14945e+68
-2.79074e+69
3.11667e+66
1.42586e+66
-8.89984e+65
-1.32541e+66
-1.24094e+66
-6.86693e+65
5.30474e+64
-4.71902e+65
-4.02412e+66
-1.09802e+67
-1.60401e+67
-6.69386e+66
-1.37308e+66
-2.32953e+68
-1.24748e+69
-3.55081e+66
-1.32682e+66
-7.65827e+65
-5.6682e+65
-4.53799e+65
-3.2661e+65
-1.41693e+65
9.99538e+64
3.54632e+65
7.28591e+65
1.54862e+66
4.09899e+66
1.4358e+67
3.95038e+67
6.30684e+67
-1.89292e+65
-8.91783e+64
-1.8044e+64
6.15126e+63
1.1866e+64
5.06471e+63
-1.41316e+64
-4.96614e+64
-1.02863e+65
2.95718e+65
1.48544e+66
3.23986e+66
6.64064e+66
1.5151e+67
3.45584e+67
7.27122e+64
3.02176e+64
1.36965e+64
7.62499e+63
4.85873e+63
2.87968e+63
-1.34023e+63
-3.06473e+64
-1.16585e+65
2.80542e+65
1.55428e+66
3.41503e+66
6.15608e+66
1.04764e+67
1.76173e+67
-6.09433e+63
-2.41898e+63
-1.37237e+63
-9.55014e+62
-7.12212e+62
-5.53819e+62
-2.41703e+63
-3.081e+64
-1.18092e+65
3.66245e+65
1.89032e+66
4.10938e+66
7.31002e+66
1.19127e+67
1.84197e+67
-1.61026e+62
-7.47258e+61
-1.09074e+61
8.03263e+60
1.4524e+61
-6.44081e+61
-2.34317e+63
-3.52066e+64
-1.31503e+65
3.45266e+65
1.94191e+66
4.44601e+66
8.16251e+66
1.35731e+67
2.12494e+67
6.1437e+61
2.42908e+61
1.50844e+61
1.24787e+61
1.31862e+61
-6.10269e+61
-2.47213e+63
-4.06341e+64
-1.59581e+65
1.55882e+65
1.48278e+66
3.7393e+66
7.26611e+66
1.2527e+67
2.00999e+67
4.29686e+60
2.43345e+60
1.10758e+60
1.39159e+60
4.51326e+60
-5.71434e+61
-2.51919e+63
-4.7157e+64
-1.94585e+65
-1.59546e+65
7.31015e+65
2.32857e+66
4.82054e+66
8.51899e+66
1.38171e+67
-1.49104e+60
-4.8588e+59
2.24974e+59
1.41879e+60
5.42743e+60
-4.11631e+61
-2.38177e+63
-5.5526e+64
-2.03834e+65
-3.671e+65
3.89542e+63
8.00783e+65
2.04476e+66
3.85739e+66
6.41912e+66
2.44037e+59
3.35837e+59
7.07514e+59
1.85541e+60
6.20083e+60
-2.66739e+61
-2.06402e+63
-6.43649e+64
-2.14184e+65
-3.95382e+65
-3.98678e+65
-2.02288e+65
2.02015e+65
8.32225e+65
1.74357e+66
1.13441e+59
3.16933e+59
7.80767e+59
2.06535e+60
6.74496e+60
-1.70289e+61
-1.73175e+63
-7.69445e+64
-1.99216e+65
-3.19659e+65
-4.15086e+65
-4.60161e+65
-4.32903e+65
-3.22108e+65
-1.08825e+65
1.29844e+59
3.74644e+59
9.32373e+59
2.39414e+60
7.4754e+60
-9.87e+60
-1.7325e+63
-5.86475e+64
-1.48759e+65
-2.29806e+65
-3.09201e+65
-3.84224e+65
-4.49038e+65
-4.97917e+65
-5.21443e+65
1.5529e+59
4.5253e+59
1.13685e+60
2.84712e+60
8.38703e+60
2.62052e+59
-1.79746e+63
-3.49556e+64
-8.67904e+64
-1.34351e+65
-1.83341e+65
-2.33837e+65
-2.8696e+65
-3.431e+65
-3.99267e+65
1.81182e+59
5.36212e+59
1.36114e+60
3.35478e+60
9.26952e+60
1.29107e+61
-1.99471e+63
-1.92061e+64
-3.97089e+64
-6.01533e+64
-8.18995e+64
-1.05328e+65
-1.31607e+65
-1.61442e+65
-1.94343e+65
2.07764e+59
6.23198e+59
1.59522e+60
3.89033e+60
1.01492e+61
2.43207e+61
-1.22318e+63
-7.48261e+63
-1.37831e+64
-2.02229e+64
-2.70821e+64
-3.48183e+64
-4.38956e+64
-5.44799e+64
-6.65322e+64
2.3786e+59
7.2296e+59
1.86677e+60
4.51962e+60
1.11971e+61
2.9107e+61
-1.82264e+62
-1.9157e+63
-3.54761e+63
-5.0695e+63
-6.64157e+63
-8.43772e+63
-1.06008e+64
-1.31603e+64
-1.61069e+64
2.71378e+59
8.37086e+59
2.18833e+60
5.29934e+60
1.26824e+61
2.92108e+61
8.84654e+60
-2.34315e+62
-5.34182e+62
-7.98631e+62
-1.05471e+63
-1.34682e+63
-1.69041e+63
-2.08619e+63
-2.53631e+63
3.06291e+59
9.5655e+59
2.53141e+60
6.17391e+60
1.49301e+61
3.48079e+61
6.51826e+61
6.44481e+61
3.55514e+61
5.35455e+60
-2.34841e+61
-5.24007e+61
-8.26034e+61
-1.14701e+62
-1.49534e+62
3.32167e+59
1.06565e+60
2.89826e+60
7.09702e+60
1.57457e+61
2.97103e+61
4.52764e+61
5.41519e+61
5.58215e+61
5.47941e+61
5.30107e+61
5.14992e+61
5.03929e+61
4.95772e+61
4.89078e+61
2.57295e+59
7.99386e+59
2.03673e+60
4.40967e+60
8.25316e+60
1.33048e+61
1.8034e+61
2.09041e+61
2.2243e+61
2.29042e+61
2.32234e+61
2.34185e+61
2.35353e+61
2.35533e+61
2.34731e+61
1.24455e+59
3.58273e+59
8.18791e+59
1.55279e+60
2.50323e+60
3.53647e+60
4.44315e+60
5.05882e+60
5.42465e+60
5.67827e+60
5.87468e+60
6.01882e+60
6.10869e+60
6.14201e+60
6.1238e+60
2.85817e+58
7.94028e+58
1.61584e+59
2.71818e+59
3.93815e+59
5.14672e+59
6.21457e+59
7.0455e+59
7.6587e+59
8.14506e+59
8.55969e+59
8.90425e+59
9.16275e+59
9.32655e+59
9.39854e+59
-1.74695e+57
4.64826e+57
1.08086e+58
1.64031e+58
2.15351e+58
2.64385e+58
3.1143e+58
3.55589e+58
3.96921e+58
4.36786e+58
4.75609e+58
5.12092e+58
5.44439e+58
5.71314e+58
5.92004e+58
-5.60518e+57
-4.36341e+57
-3.15692e+57
-2.63408e+57
-2.5498e+57
-2.67814e+57
-2.86858e+57
-3.03565e+57
-3.15323e+57
-3.22282e+57
-3.24534e+57
-3.21855e+57
-3.14239e+57
-3.01908e+57
-2.8621e+57
-3.23762e+57
-3.06796e+57
-2.48524e+57
-1.98238e+57
-1.58946e+57
-1.30232e+57
-1.09723e+57
-9.51208e+56
-8.50504e+56
-7.84644e+56
-7.4176e+56
-7.11763e+56
-6.88046e+56
-6.66403e+56
-6.4655e+56
-9.7808e+56
-1.04717e+57
-9.34166e+56
-7.96665e+56
-6.62396e+56
-5.45009e+56
-4.46422e+56
-3.64974e+56
-3.00893e+56
-2.52252e+56
-2.14144e+56
-1.83065e+56
-1.57206e+56
-1.35497e+56
-1.17502e+56
-1.51621e+56
-1.7802e+56
-1.71426e+56
-1.55928e+56
-1.37097e+56
-1.18439e+56
-1.01295e+56
-8.61705e+55
-7.37921e+55
-6.40025e+55
-5.5806e+55
-4.86447e+55
-4.23242e+55
-3.67467e+55
-3.18612e+55
-8.66333e+54
-1.16138e+55
-1.24124e+55
-1.22554e+55
-1.14915e+55
-1.04371e+55
-9.29126e+54
-8.23083e+54
-7.35339e+54
-6.6189e+54
-5.95457e+54
-5.33243e+54
-4.74951e+54
-4.20816e+54
-3.70998e+54
8.17199e+53
6.16888e+53
4.41343e+53
2.97514e+53
1.88047e+53
1.08424e+53
5.18675e+52
1.19611e+52
-1.6252e+52
-3.58322e+52
-4.87865e+52
-5.66983e+52
-6.07513e+52
-6.1949e+52
-6.07905e+52
4.03809e+53
2.77453e+53
1.94987e+53
1.47095e+53
1.15429e+53
9.27736e+52
7.57581e+52
6.30128e+52
5.34918e+52
4.5983e+52
3.96786e+52
3.42011e+52
2.93879e+52
2.51545e+52
2.15112e+52
1.23452e+53
8.29127e+52
5.05529e+52
3.25887e+52
2.21014e+52
1.56485e+52
1.15217e+52
8.84311e+51
7.04028e+51
5.74424e+51
4.75187e+51
3.95971e+51
3.31232e+51
2.776e+51
2.33738e+51
2.03341e+52
1.60144e+52
1.06241e+52
7.12228e+51
4.87415e+51
3.4264e+51
2.48345e+51
1.86413e+51
1.43988e+51
1.13038e+51
8.94702e+50
7.11564e+50
5.67822e+50
4.54442e+50
3.65449e+50
7.7648e+50
1.02454e+51
8.75925e+50
6.84132e+50
5.1855e+50
3.93669e+50
3.04561e+50
2.41653e+50
1.94461e+50
1.57064e+50
1.26836e+50
1.02338e+50
8.24984e+49
6.64845e+49
5.35773e+49
-2.78927e+50
-1.57305e+50
-7.72689e+49
-3.75406e+49
-1.77827e+49
-7.78846e+48
-2.59802e+48
1.30816e+47
1.50865e+48
2.13158e+48
2.33564e+48
2.30786e+48
2.15573e+48
1.94629e+48
1.70603e+48
-6.30054e+49
-4.07142e+49
-2.41382e+49
-1.50373e+49
-9.77444e+48
-6.65074e+48
-4.754e+48
-3.53357e+48
-2.6839e+48
-2.05985e+48
-1.58969e+48
-1.23102e+48
-9.5552e+47
-7.43141e+47
-5.80707e+47
-8.65825e+48
-5.33579e+48
-2.99225e+48
-1.79804e+48
-1.14672e+48
-7.74636e+47
-5.52797e+47
-4.11563e+47
-3.13912e+47
-2.42363e+47
-1.88414e+47
-1.47132e+47
-1.1527e+47
-9.05611e+46
-7.14811e+46
-9.31442e+47
-6.00006e+47
-3.35724e+47
-1.98234e+47
-1.23415e+47
-8.1149e+46
-5.61056e+46
-4.02308e+46
-2.94575e+46
-2.18125e+46
-1.62666e+46
-1.21969e+46
-9.1877e+45
-6.95248e+45
-5.29632e+45
-6.01663e+46
-4.23457e+46
-2.5901e+46
-1.63933e+46
-1.08295e+46
-7.50691e+45
-5.41691e+45
-4.00136e+45
-2.98985e+45
-2.24442e+45
-1.6871e+45
-1.26888e+45
-9.54764e+44
-7.193e+44
-5.43421e+44
-3.16415e+45
-1.5721e+45
-8.10084e+44
-4.85598e+44
-3.23112e+44
-2.31437e+44
-1.74482e+44
-1.35537e+44
-1.06508e+44
-8.37727e+43
-6.57006e+43
-5.1307e+43
-3.98656e+43
-3.08625e+43
-2.38619e+43
-3.35696e+44
-1.75423e+44
-6.79787e+43
-2.77664e+43
-1.10689e+43
-3.72929e+42
-4.36173e+41
1.0176e+42
1.59337e+42
1.72606e+42
1.63473e+42
1.44098e+42
1.21502e+42
9.94594e+41
8.01869e+41
4.41694e+43
1.08844e+43
1.38674e+42
-9.65373e+41
-1.36023e+42
-1.2464e+42
-1.01428e+42
-7.78319e+41
-5.72809e+41
-4.08779e+41
-2.85241e+41
-1.9556e+41
-1.32163e+41
-8.85664e+40
-5.82472e+40
1.76177e+43
9.44007e+42
4.45973e+42
2.29097e+42
1.26682e+42
7.45343e+41
4.61972e+41
2.981e+41
1.97419e+41
1.32752e+41
9.01717e+40
6.17803e+40
4.27046e+40
2.97808e+40
2.11422e+40
1.78973e+42
1.11377e+42
6.15223e+41
3.60996e+41
2.26e+41
1.49369e+41
1.02904e+41
7.29262e+40
5.24187e+40
3.78675e+40
2.73863e+40
1.98161e+40
1.43626e+40
1.04542e+40
7.69251e+39
1.80602e+41
8.33585e+40
3.96944e+40
2.16084e+40
1.3173e+40
8.71003e+39
6.09659e+39
4.42634e+39
3.27205e+39
2.43213e+39
1.80743e+39
1.34144e+39
9.95684e+38
7.41713e+38
5.58428e+38
2.94676e+40
1.36264e+40
5.60456e+39
2.63919e+39
1.37975e+39
7.80555e+38
4.69884e+38
2.96242e+38
1.92469e+38
1.2743e+38
8.55656e+37
5.82015e+37
4.00866e+37
2.79974e+37
1.99176e+37
5.18869e+38
6.45441e+38
3.92515e+38
2.54296e+38
1.69214e+38
1.1502e+38
7.94338e+37
5.53155e+37
3.85362e+37
2.67784e+37
1.85856e+37
1.29191e+37
9.02131e+36
6.36151e+36
4.53034e+36
-6.91654e+38
-3.07542e+38
-1.27535e+38
-5.73535e+37
-2.79086e+37
-1.45116e+37
-7.98384e+36
-4.60306e+36
-2.75161e+36
-1.68875e+36
-1.05691e+36
-6.7157e+35
-4.3125e+35
-2.77869e+35
-1.83862e+35
-1.25953e+38
-6.25548e+37
-2.88499e+37
-1.48119e+37
-8.33848e+36
-5.04172e+36
-3.2198e+36
-2.13645e+36
-1.45056e+36
-9.97971e+35
-6.92689e+35
-4.84361e+35
-3.41322e+35
-2.42827e+35
-1.75155e+35
-1.25378e+37
-6.13425e+36
-2.79439e+36
-1.45529e+36
-8.38201e+35
-5.19132e+35
-3.39015e+35
-2.29267e+35
-1.58141e+35
-1.10314e+35
-7.75639e+34
-5.49224e+34
-3.91892e+34
-2.82297e+34
-2.05582e+34
-4.80357e+35
-2.44691e+35
-1.07615e+35
-5.86475e+34
-3.58449e+34
-2.34111e+34
-1.59365e+34
-1.10929e+34
-7.79244e+33
-5.4992e+33
-3.90018e+33
-2.78424e+33
-2.00382e+33
-1.45656e+33
-1.06439e+33
1.11543e+35
5.07148e+34
2.26255e+34
1.09886e+34
5.82999e+33
3.33884e+33
2.03879e+33
1.30743e+33
8.66385e+32
5.86184e+32
4.02182e+32
2.78641e+32
1.94471e+32
1.36607e+32
9.74953e+31
2.40743e+34
1.1373e+34
5.0039e+33
2.48317e+33
1.36529e+33
8.14707e+32
5.17662e+32
3.4351e+32
2.34108e+32
1.62304e+32
1.13935e+32
8.07413e+31
5.77036e+31
4.15905e+31
3.02925e+31
2.53793e+33
1.17513e+33
5.06409e+32
2.47897e+32
1.35481e+32
8.05727e+31
5.0983e+31
3.36291e+31
2.27662e+31
1.5691e+31
1.09559e+31
7.72087e+30
5.48726e+30
3.93529e+30
2.84985e+30
2.17418e+32
8.40484e+31
3.23731e+31
1.5078e+31
8.14027e+30
4.8454e+30
3.07888e+30
2.03824e+30
1.38303e+30
9.54641e+29
6.67541e+29
4.71201e+29
3.35293e+29
2.40508e+29
1.7365e+29
9.92887e+30
3.36357e+30
9.24531e+29
4.07665e+29
2.23239e+29
1.32813e+29
8.25113e+28
5.24825e+28
3.3898e+28
2.22387e+28
1.482e+28
1.00049e+28
6.83707e+27