/*--------------------------------*- C++ -*----------------------------------*\
  =========                 |
  \\      /  F ield         | OpenFOAM: The Open Source CFD Toolbox
   \\    /   O peration     | Website:  https://openfoam.org
    \\  /    A nd           | Version:  8
     \\/     M anipulation  |
\*---------------------------------------------------------------------------*/
FoamFile
{
    version     2.0;
    format      ascii;
    class       volScalarField;
    location    "800";
    object      epsilon;
}
// * * * * * * * * * * * * * * * * * * * * * * * * * * * * * * * * * * * * * //

dimensions      [0 2 -3 0 0 0 0];

internalField   nonuniform List<scalar> 
7320
(
11607.3
10157.7
9314.43
8772.21
8390.2
8102.79
7875.93
7690.7
7535.77
7403.76
7289.61
7189.73
7101.46
7022.84
6952.31
6888.69
6831
6778.46
6730.43
6686.38
6645.85
6608.48
6573.93
6541.93
6512.24
6484.64
6458.97
6435.04
6412.73
6391.9
6372.45
6354.26
6337.25
6321.34
6306.45
6292.52
6279.48
6267.29
6255.87
6245.21
6235.23
6225.92
6217.23
6209.13
6201.59
6194.58
6188.07
6182.04
6176.46
6171.32
6166.59
6162.26
6158.3
6154.71
6151.46
6148.54
6145.94
6143.63
6141.62
6139.88
6138.41
6137.19
6136.21
6135.45
6134.91
6134.59
6134.46
6134.52
6134.76
6135.18
6135.77
6136.53
6137.44
6138.51
6139.73
6141.1
6142.61
6144.27
6146.07
6148.02
6150.11
6152.34
6154.71
6157.22
6159.87
6162.67
6165.6
6168.67
6171.89
6175.24
6178.73
6182.35
6186.11
6190.01
6194.03
6198.18
6202.46
6206.86
6211.37
6216.01
6220.75
6225.6
6230.55
6235.59
6240.72
6245.94
6251.23
6256.58
6262
6267.47
6272.99
6278.54
6284.11
6289.71
6295.3
6300.9
6306.48
6312.04
6317.56
6323.04
6328.32
6333.66
3749.32
3919.37
3598.69
3368.86
3210.19
3093.2
3002.11
2928.43
2867.18
2815.25
2770.5
2731.45
2697.02
2666.41
2638.99
2614.29
2591.92
2571.56
2552.97
2535.93
2520.26
2505.82
2492.48
2480.12
2468.66
2458.02
2448.11
2438.89
2430.29
2422.26
2414.76
2407.75
2401.19
2395.06
2389.33
2383.96
2378.93
2374.23
2369.83
2365.72
2361.88
2358.28
2354.93
2351.81
2348.89
2346.19
2343.67
2341.34
2339.18
2337.19
2335.36
2333.68
2332.14
2330.75
2329.48
2328.34
2327.32
2326.42
2325.63
2324.94
2324.36
2323.87
2323.48
2323.17
2322.95
2322.81
2322.75
2322.76
2322.84
2322.99
2323.21
2323.49
2323.84
2324.25
2324.71
2325.23
2325.81
2326.45
2327.14
2327.88
2328.68
2329.53
2330.43
2331.39
2332.39
2333.45
2334.56
2335.72
2336.93
2338.19
2339.5
2340.86
2342.26
2343.71
2345.21
2346.75
2348.33
2349.96
2351.63
2353.34
2355.08
2356.86
2358.68
2360.52
2362.4
2364.31
2366.24
2368.19
2370.16
2372.15
2374.16
2376.17
2378.2
2380.22
2382.25
2384.28
2386.3
2388.31
2390.31
2392.29
2394.21
2396.14
1528.99
1989.05
1884.98
1770.23
1685.89
1623.05
1574.14
1534.67
1501.95
1474.25
1450.43
1429.67
1411.39
1395.16
1380.63
1367.55
1355.71
1344.94
1335.11
1326.11
1317.83
1310.2
1303.16
1296.64
1290.59
1284.98
1279.75
1274.89
1270.35
1266.12
1262.16
1258.47
1255.01
1251.78
1248.75
1245.92
1243.27
1240.79
1238.47
1236.31
1234.28
1232.38
1230.61
1228.97
1227.43
1226
1224.67
1223.44
1222.3
1221.25
1220.28
1219.39
1218.57
1217.83
1217.16
1216.56
1216.02
1215.54
1215.12
1214.75
1214.44
1214.18
1213.97
1213.81
1213.69
1213.61
1213.57
1213.57
1213.6
1213.68
1213.78
1213.92
1214.09
1214.29
1214.52
1214.78
1215.06
1215.38
1215.72
1216.09
1216.48
1216.9
1217.35
1217.82
1218.32
1218.85
1219.4
1219.98
1220.58
1221.21
1221.87
1222.55
1223.26
1223.99
1224.75
1225.53
1226.34
1227.17
1228.03
1228.91
1229.81
1230.73
1231.67
1232.64
1233.62
1234.62
1235.64
1236.67
1237.72
1238.78
1239.85
1240.94
1242.03
1243.13
1244.23
1245.33
1246.44
1247.55
1248.65
1249.75
1250.83
1251.9
720.941
1168.15
1165.72
1105.65
1054.38
1014.75
983.61
958.429
937.557
919.91
904.751
891.558
879.953
869.656
860.45
852.168
844.676
837.868
831.656
825.967
820.741
815.927
811.482
807.369
803.556
800.014
796.721
793.654
790.795
788.127
785.635
783.306
781.129
779.092
777.187
775.403
773.734
772.172
770.71
769.343
768.064
766.87
765.754
764.714
763.744
762.841
762.002
761.224
760.504
759.838
759.225
758.662
758.147
757.678
757.252
756.869
756.525
756.221
755.952
755.719
755.52
755.352
755.215
755.106
755.025
754.97
754.94
754.932
754.947
754.982
755.038
755.113
755.207
755.318
755.447
755.593
755.754
755.932
756.126
756.336
756.562
756.804
757.061
757.335
757.624
757.931
758.254
758.593
758.95
759.323
759.714
760.123
760.548
760.992
761.453
761.931
762.427
762.941
763.472
764.02
764.584
765.165
765.762
766.374
767.001
767.643
768.299
768.968
769.648
770.341
771.044
771.756
772.477
773.206
773.941
774.681
775.425
776.172
776.921
777.669
778.406
779.14
358.82
725.629
779.829
754.392
722.982
696.536
675.147
657.664
643.11
630.786
620.195
610.98
602.879
595.694
589.274
583.502
578.284
573.544
569.221
565.264
561.63
558.284
555.195
552.337
549.689
547.229
544.943
542.813
540.829
538.977
537.247
535.631
534.12
532.707
531.384
530.146
528.987
527.903
526.888
525.938
525.05
524.22
523.445
522.722
522.047
521.419
520.835
520.293
519.791
519.328
518.9
518.507
518.147
517.819
517.521
517.253
517.012
516.797
516.608
516.444
516.302
516.182
516.083
516.003
515.942
515.898
515.87
515.858
515.86
515.876
515.905
515.947
516
516.065
516.141
516.228
516.326
516.434
516.552
516.681
516.821
516.971
517.132
517.305
517.489
517.685
517.892
518.112
518.345
518.59
518.848
519.12
519.404
519.703
520.015
520.341
520.681
521.035
521.403
521.784
522.179
522.588
523.01
523.444
523.891
524.351
524.822
525.304
525.797
526.3
526.813
527.334
527.864
528.4
528.943
529.492
530.045
530.602
531.161
531.721
532.277
532.828
180.95
454.606
539.365
539.228
522.289
504.944
489.985
477.422
466.83
457.801
450.016
443.23
437.258
431.96
427.226
422.969
419.121
415.626
412.44
409.523
406.846
404.381
402.106
400.001
398.051
396.241
394.557
392.99
391.529
390.166
388.893
387.704
386.592
385.551
384.577
383.666
382.813
382.014
381.266
380.567
379.913
379.301
378.729
378.196
377.698
377.234
376.803
376.402
376.031
375.688
375.371
375.08
374.813
374.569
374.348
374.148
373.968
373.808
373.666
373.542
373.434
373.342
373.265
373.203
373.153
373.116
373.09
373.075
373.07
373.074
373.087
373.11
373.14
373.178
373.224
373.277
373.338
373.407
373.482
373.566
373.657
373.756
373.863
373.979
374.103
374.237
374.38
374.532
374.695
374.867
375.05
375.244
375.449
375.665
375.892
376.13
376.38
376.641
376.914
377.198
377.494
377.801
378.119
378.448
378.787
379.137
379.497
379.866
380.244
380.632
381.027
381.43
381.84
382.256
382.678
383.105
383.536
383.97
384.407
384.845
385.282
385.713
91.0616
278.177
374.321
393.387
388.302
378.207
368.135
359.167
351.387
344.653
338.793
333.658
329.123
325.091
321.482
318.234
315.297
312.628
310.193
307.964
305.918
304.034
302.295
300.686
299.195
297.811
296.524
295.326
294.209
293.167
292.194
291.284
290.434
289.638
288.893
288.195
287.542
286.931
286.359
285.823
285.321
284.853
284.414
284.005
283.623
283.267
282.936
282.628
282.343
282.078
281.834
281.61
281.403
281.215
281.044
280.888
280.748
280.623
280.512
280.415
280.329
280.256
280.194
280.142
280.1
280.067
280.043
280.026
280.017
280.015
280.019
280.029
280.046
280.068
280.096
280.129
280.168
280.213
280.263
280.319
280.382
280.45
280.525
280.606
280.695
280.791
280.894
281.006
281.125
281.253
281.389
281.535
281.689
281.853
282.026
282.208
282.4
282.602
282.813
283.034
283.264
283.504
283.753
284.011
284.278
284.553
284.837
285.129
285.429
285.735
286.049
286.369
286.694
287.025
287.361
287.7
288.043
288.389
288.737
289.086
289.434
289.777
46.0967
162.189
254.261
286.985
292.083
288.344
282.427
276.399
270.841
265.871
261.463
257.553
254.072
250.96
248.165
245.642
243.355
241.274
239.374
237.632
236.033
234.559
233.198
231.938
230.77
229.686
228.677
227.738
226.862
226.045
225.281
224.568
223.9
223.275
222.69
222.142
221.629
221.149
220.699
220.278
219.883
219.514
219.169
218.847
218.546
218.265
218.003
217.76
217.534
217.325
217.132
216.954
216.79
216.641
216.504
216.38
216.268
216.168
216.078
215.999
215.929
215.869
215.817
215.773
215.737
215.708
215.685
215.668
215.657
215.65
215.649
215.653
215.661
215.673
215.69
215.711
215.737
215.767
215.801
215.841
215.885
215.934
215.988
216.048
216.114
216.185
216.263
216.348
216.439
216.537
216.643
216.755
216.876
217.004
217.14
217.284
217.435
217.595
217.763
217.939
218.122
218.314
218.513
218.719
218.933
219.154
219.382
219.616
219.856
220.103
220.355
220.612
220.873
221.139
221.409
221.681
221.956
222.234
222.512
222.792
223.071
223.344
24.139
88.6484
164.986
205.253
218.887
220.976
218.885
215.492
211.862
208.378
205.161
202.236
199.59
197.197
195.031
193.064
191.273
189.637
188.14
186.765
185.499
184.331
183.252
182.251
181.323
180.461
179.658
178.91
178.212
177.561
176.952
176.382
175.849
175.35
174.883
174.445
174.035
173.65
173.29
172.953
172.637
172.341
172.064
171.805
171.564
171.338
171.128
170.932
170.75
170.582
170.426
170.282
170.149
170.028
169.917
169.816
169.725
169.642
169.569
169.503
169.445
169.395
169.351
169.313
169.282
169.255
169.234
169.218
169.206
169.197
169.193
169.193
169.196
169.202
169.212
169.226
169.243
169.264
169.288
169.316
169.348
169.385
169.426
169.471
169.521
169.576
169.637
169.703
169.774
169.852
169.935
170.025
170.12
170.223
170.331
170.447
170.568
170.697
170.832
170.974
171.122
171.276
171.437
171.604
171.777
171.956
172.14
172.329
172.524
172.723
172.926
173.134
173.345
173.559
173.777
173.996
174.217
174.44
174.664
174.887
175.111
175.33
13.5084
45.5623
99.8141
140.768
160.687
168.047
169.612
168.74
166.918
164.789
162.633
160.564
158.629
156.839
155.192
153.678
152.288
151.01
149.834
148.749
147.746
146.819
145.959
145.161
144.42
143.729
143.086
142.486
141.925
141.401
140.911
140.452
140.022
139.62
139.243
138.889
138.557
138.246
137.955
137.681
137.425
137.185
136.961
136.751
136.554
136.371
136.2
136.04
135.892
135.754
135.627
135.509
135.4
135.301
135.209
135.126
135.051
134.982
134.921
134.866
134.817
134.774
134.737
134.704
134.677
134.653
134.634
134.619
134.606
134.598
134.592
134.589
134.589
134.592
134.598
134.607
134.618
134.633
134.651
134.672
134.696
134.724
134.755
134.79
134.829
134.873
134.921
134.973
135.03
135.092
135.159
135.231
135.308
135.39
135.478
135.572
135.67
135.775
135.884
135.999
136.119
136.245
136.375
136.511
136.651
136.796
136.945
137.099
137.256
137.418
137.582
137.75
137.92
138.093
138.268
138.445
138.623
138.802
138.981
139.16
139.339
139.513
8.23297
22.8776
55.2867
90.2281
113.178
124.85
129.856
131.463
131.425
130.618
129.473
128.204
126.919
125.67
124.481
123.362
122.317
121.343
120.436
119.594
118.81
118.08
117.401
116.769
116.178
115.627
115.113
114.631
114.181
113.759
113.364
112.994
112.647
112.321
112.016
111.729
111.46
111.207
110.97
110.747
110.539
110.343
110.16
109.988
109.828
109.677
109.537
109.406
109.285
109.172
109.067
108.97
108.88
108.798
108.722
108.653
108.59
108.533
108.481
108.435
108.394
108.358
108.326
108.298
108.273
108.253
108.235
108.221
108.21
108.201
108.195
108.191
108.189
108.19
108.194
108.199
108.207
108.218
108.231
108.247
108.266
108.287
108.312
108.339
108.371
108.405
108.444
108.486
108.532
108.581
108.636
108.694
108.756
108.823
108.895
108.971
109.051
109.135
109.224
109.318
109.416
109.518
109.624
109.734
109.848
109.965
110.087
110.211
110.339
110.469
110.602
110.738
110.875
111.015
111.155
111.297
111.44
111.584
111.727
111.87
112.013
112.152
5.47937
11.9932
28.2309
52.6649
74.495
88.7635
96.7042
100.69
102.44
102.969
102.841
102.365
101.714
100.983
100.226
99.4735
98.7429
98.0428
97.3776
96.7488
96.1563
95.5991
95.0758
94.5845
94.1235
93.6909
93.2848
92.9036
92.5457
92.2096
91.8938
91.5971
91.3182
91.0561
90.8097
90.5781
90.3604
90.1557
89.9634
89.7827
89.613
89.4537
89.3043
89.1642
89.033
88.9101
88.7953
88.6881
88.5882
88.4952
88.4089
88.3289
88.2549
88.1867
88.1241
88.0667
88.0144
87.9668
87.9238
87.885
87.8503
87.8194
87.7921
87.7681
87.7473
87.7293
87.7141
87.7014
87.691
87.6829
87.6767
87.6726
87.6704
87.6703
87.6721
87.6758
87.6817
87.6896
87.6996
87.7119
87.7265
87.7435
87.7631
87.7853
87.8103
87.8382
87.8691
87.903
87.9403
87.9808
88.0247
88.072
88.1229
88.1773
88.2353
88.297
88.3622
88.4311
88.5035
88.5795
88.6589
88.7418
88.8279
88.9173
89.0097
89.1051
89.2032
89.304
89.4072
89.5126
89.6201
89.7294
89.8402
89.9524
90.0656
90.1796
90.2941
90.4088
90.5234
90.6376
90.7515
90.8624
3.95841
6.92866
14.0447
27.7128
44.4801
58.7408
68.535
74.555
78.0226
79.9011
80.8188
81.1603
81.1575
80.9504
80.6246
80.2329
79.8081
79.3708
78.9339
78.5054
78.0901
77.6909
77.3093
76.9458
76.6006
76.2734
75.9636
75.6707
75.3939
75.1325
74.8858
74.6529
74.4332
74.2259
74.0305
73.8463
73.6726
73.509
73.3549
73.2099
73.0734
72.9451
72.8245
72.7112
72.605
72.5054
72.4122
72.325
72.2437
72.1679
72.0974
72.0319
71.9714
71.9155
71.864
71.8168
71.7736
71.7343
71.6987
71.6665
71.6376
71.6118
71.5889
71.5688
71.5511
71.5359
71.5229
71.512
71.503
71.4959
71.4904
71.4866
71.4844
71.4838
71.4849
71.4876
71.492
71.4981
71.506
71.5158
71.5274
71.5411
71.5569
71.5749
71.5951
71.6177
71.6428
71.6704
71.7007
71.7336
71.7693
71.8078
71.8492
71.8935
71.9407
71.9908
72.0439
72.0998
72.1587
72.2203
72.2848
72.352
72.4219
72.4943
72.5692
72.6464
72.7257
72.8072
72.8905
72.9756
73.0622
73.1502
73.2394
73.3295
73.4204
73.5117
73.6033
73.695
73.7864
73.8774
73.9681
74.0566
3.07723
4.48267
7.4297
13.6627
23.6765
35.0257
44.8492
52.0825
56.9685
60.1185
62.0853
63.271
63.946
64.2875
64.4108
64.3915
64.2795
64.1082
63.8999
63.6698
63.4282
63.1824
62.937
62.6954
62.4598
62.2316
62.0117
61.8007
61.5987
61.4059
61.2221
61.0473
60.8811
60.7234
60.5738
60.4321
60.2979
60.171
60.051
59.9377
59.8307
59.7298
59.6348
59.5453
59.4612
59.3822
59.3081
59.2387
59.1739
59.1133
59.0569
59.0045
58.9559
58.9109
58.8695
58.8315
58.7966
58.7649
58.736
58.71
58.6866
58.6656
58.647
58.6306
58.6163
58.6039
58.5933
58.5844
58.5771
58.5714
58.567
58.564
58.5622
58.5618
58.5627
58.565
58.5686
58.5737
58.5802
58.5882
58.5978
58.6091
58.622
58.6368
58.6534
58.6719
58.6924
58.715
58.7397
58.7666
58.7957
58.8271
58.8608
58.8969
58.9353
58.976
59.0191
59.0646
59.1123
59.1623
59.2146
59.2691
59.3256
59.3842
59.4447
59.5071
59.5712
59.6369
59.7041
59.7726
59.8423
59.913
59.9846
60.0569
60.1297
60.2028
60.276
60.3491
60.422
60.4944
60.5665
60.637
2.55068
3.21778
4.43832
6.94254
11.6103
18.4647
26.1707
33.1843
38.7612
42.8701
45.7762
47.7853
49.1524
50.0674
50.6656
51.0415
51.2609
51.37
51.4011
51.3772
51.3148
51.2258
51.1186
50.9996
50.8734
50.7434
50.6119
50.4809
50.3516
50.225
50.1018
49.9825
49.8673
49.7566
49.6503
49.5486
49.4515
49.3589
49.2708
49.187
49.1074
49.0321
48.9607
48.8933
48.8297
48.7698
48.7134
48.6604
48.6108
48.5644
48.5211
48.4808
48.4433
48.4087
48.3767
48.3473
48.3204
48.2959
48.2737
48.2536
48.2355
48.2194
48.2051
48.1926
48.1817
48.1723
48.1644
48.1579
48.1526
48.1486
48.1457
48.1439
48.143
48.1433
48.1445
48.1469
48.1504
48.155
48.1607
48.1677
48.176
48.1856
48.1965
48.2089
48.2227
48.2381
48.2552
48.2738
48.2942
48.3163
48.3402
48.3659
48.3935
48.4229
48.4542
48.4874
48.5224
48.5594
48.5981
48.6387
48.6811
48.7252
48.7709
48.8183
48.8672
48.9175
48.9692
49.0221
49.0762
49.1313
49.1873
49.244
49.3014
49.3593
49.4175
49.4759
49.5343
49.5925
49.6504
49.7079
49.7651
49.8213
2.23299
2.5213
3.02004
3.97831
5.81132
8.95327
13.4245
18.6064
23.6547
28.0086
31.4918
34.1618
36.1611
37.6393
38.7238
39.5144
40.0865
40.4959
40.7841
40.9815
41.1107
41.1886
41.2279
41.238
41.2264
41.1984
41.1584
41.1096
41.0547
40.9954
40.9335
40.87
40.806
40.7421
40.6789
40.6169
40.5563
40.4975
40.4405
40.3857
40.333
40.2825
40.2342
40.1882
40.1445
40.1031
40.0639
40.0269
39.9921
39.9595
39.9289
39.9004
39.8739
39.8494
39.8268
39.806
39.787
39.7697
39.7541
39.7401
39.7276
39.7165
39.7068
39.6984
39.6913
39.6853
39.6804
39.6765
39.6737
39.6717
39.6707
39.6706
39.6712
39.6725
39.6747
39.6777
39.6815
39.6862
39.6919
39.6984
39.706
39.7146
39.7242
39.735
39.7469
39.7601
39.7745
39.7902
39.8073
39.8257
39.8456
39.8668
39.8896
39.9138
39.9395
39.9666
39.9953
40.0254
40.057
40.09
40.1244
40.1601
40.1972
40.2355
40.275
40.3156
40.3572
40.3998
40.4433
40.4876
40.5325
40.578
40.6239
40.6702
40.7166
40.7632
40.8096
40.8559
40.9018
40.9473
40.9926
41.0373
2.04415
2.12289
2.29752
2.64296
3.30166
4.4877
6.42603
9.18516
12.5445
16.0848
19.4152
22.3108
24.7067
26.6315
28.1526
29.344
30.2729
30.9955
31.5567
31.9918
32.3282
32.5874
32.7857
32.936
33.0484
33.1307
33.1891
33.2286
33.253
33.2653
33.2683
33.2638
33.2534
33.2386
33.2203
33.1995
33.1768
33.1528
33.1281
33.1029
33.0777
33.0527
33.028
33.0039
32.9806
32.958
32.9363
32.9156
32.896
32.8774
32.8599
32.8435
32.8283
32.8141
32.8012
32.7893
32.7786
32.7689
32.7603
32.7528
32.7462
32.7406
32.736
32.7322
32.7292
32.7271
32.7257
32.725
32.7251
32.7257
32.7271
32.729
32.7316
32.7346
32.7382
32.7424
32.7472
32.7526
32.7586
32.7654
32.7729
32.7811
32.7902
32.8001
32.8109
32.8226
32.8353
32.849
32.8637
32.8794
32.8963
32.9142
32.9333
32.9535
32.9748
32.9973
33.021
33.0457
33.0716
33.0986
33.1267
33.1558
33.186
33.2171
33.2491
33.2819
33.3155
33.3499
33.3849
33.4205
33.4565
33.4929
33.5297
33.5666
33.6036
33.6406
33.6775
33.7141
33.7504
33.7863
33.822
33.8575
1.93662
1.89378
1.9091
1.99887
2.20581
2.60135
3.28857
4.38475
5.96585
7.99812
10.3235
12.7231
15.0051
17.0512
18.8156
20.3
21.5307
22.5425
23.3709
24.0479
24.6009
25.053
25.4228
25.7255
25.9736
26.1769
26.3435
26.4799
26.5915
26.6825
26.7565
26.8165
26.8647
26.9033
26.9338
26.9576
26.9759
26.9896
26.9995
27.0063
27.0106
27.0128
27.0134
27.0127
27.0111
27.0086
27.0057
27.0024
26.9989
26.9953
26.9918
26.9884
26.9852
26.9824
26.9798
26.9777
26.9759
26.9746
26.9738
26.9734
26.9735
26.9741
26.9751
26.9766
26.9785
26.9808
26.9836
26.9867
26.9903
26.9942
26.9985
27.0031
27.0082
27.0135
27.0192
27.0252
27.0315
27.0382
27.0454
27.053
27.061
27.0696
27.0788
27.0886
27.099
27.11
27.1218
27.1342
27.1474
27.1614
27.1762
27.1918
27.2083
27.2256
27.2438
27.2628
27.2827
27.3034
27.325
27.3473
27.3705
27.3945
27.4193
27.4447
27.4708
27.4976
27.5249
27.5527
27.581
27.6096
27.6386
27.6678
27.6972
27.7267
27.7561
27.7855
27.8147
27.8437
27.8723
27.9005
27.9284
27.9564
1.87971
1.76618
1.6969
1.6702
1.69599
1.79455
1.99808
2.35263
2.91532
3.74022
4.85282
6.22679
7.78258
9.41177
11.0108
12.5043
13.8504
15.0348
16.0607
16.9406
17.6911
18.3291
18.8711
19.3314
19.7227
20.0558
20.3398
20.5824
20.79
20.968
21.121
21.2527
21.3662
21.4643
21.5492
21.6228
21.6868
21.7424
21.7909
21.8332
21.8703
21.9029
21.9315
21.9568
21.9792
21.9992
22.017
22.033
22.0474
22.0606
22.0726
22.0837
22.094
22.1037
22.1129
22.1217
22.1301
22.1383
22.1463
22.1542
22.1619
22.1696
22.1773
22.185
22.1926
22.2004
22.2081
22.2159
22.2237
22.2317
22.2397
22.2478
22.2559
22.2643
22.2727
22.2812
22.2898
22.2986
22.3075
22.3166
22.326
22.3357
22.3457
22.3561
22.3668
22.378
22.3896
22.4017
22.4143
22.4274
22.4411
22.4553
22.4701
22.4855
22.5016
22.5182
22.5354
22.5533
22.5717
22.5907
22.6103
22.6304
22.6511
22.6723
22.6939
22.7159
22.7384
22.7611
22.7842
22.8074
22.8309
22.8544
22.8781
22.9017
22.9252
22.9485
22.9716
22.9945
23.0169
23.0389
23.0607
23.0827
1.85262
1.70013
1.58443
1.50014
1.44691
1.42874
1.45383
1.53512
1.69135
1.94726
2.33147
2.87025
3.57781
4.44717
5.44734
6.52935
7.63811
8.72432
9.75159
10.698
11.554
12.3183
12.995
13.5909
14.114
14.5724
14.974
15.3259
15.6346
15.9057
16.1442
16.3544
16.5401
16.7043
16.85
16.9795
17.0948
17.1977
17.2898
17.3725
17.4468
17.5138
17.5743
17.6291
17.679
17.7244
17.7659
17.8039
17.8389
17.8712
17.9011
17.9288
17.9547
17.9789
18.0016
18.0231
18.0433
18.0626
18.0809
18.0985
18.1153
18.1314
18.147
18.1621
18.1767
18.1909
18.2048
18.2182
18.2314
18.2443
18.257
18.2695
18.2817
18.2938
18.3058
18.3177
18.3294
18.341
18.3526
18.3641
18.3756
18.3871
18.3988
18.4105
18.4225
18.4346
18.4469
18.4594
18.4723
18.4854
18.4988
18.5126
18.5267
18.5412
18.5561
18.5713
18.587
18.603
18.6194
18.6361
18.6532
18.6707
18.6885
18.7066
18.7249
18.7435
18.7623
18.7813
18.8004
18.8196
18.8389
18.8581
18.8773
18.8964
18.9152
18.9339
18.9523
18.9703
18.9879
19.0051
19.022
19.0392
1.84139
1.6697
1.52946
1.4157
1.32537
1.25752
1.21298
1.19428
1.2059
1.25453
1.3495
1.50277
1.72823
2.03963
2.44734
2.95456
3.55469
4.23102
4.95936
5.71237
6.46405
7.19312
7.88439
8.52869
9.1217
9.66265
10.153
10.5957
10.9943
11.3526
11.6744
11.9636
12.2235
12.4574
12.668
12.858
13.0296
13.1849
13.3256
13.4534
13.5697
13.6757
13.7726
13.8612
13.9425
14.0172
14.0861
14.1496
14.2084
14.2629
14.3135
14.3607
14.4048
14.446
14.4846
14.521
14.5553
14.5876
14.6183
14.6474
14.675
14.7014
14.7265
14.7506
14.7737
14.7958
14.8171
14.8376
14.8574
14.8766
14.8951
14.9131
14.9305
14.9475
14.964
14.9802
14.996
15.0114
15.0266
15.0414
15.056
15.0703
15.0845
15.0986
15.1126
15.1265
15.1404
15.1544
15.1683
15.1824
15.1965
15.2108
15.2251
15.2396
15.2543
15.2692
15.2842
15.2994
15.3147
15.3303
15.346
15.3618
15.3778
15.3939
15.4102
15.4264
15.4428
15.4591
15.4755
15.4918
15.508
15.5241
15.54
15.5556
15.5711
15.5862
15.6009
15.6153
15.6292
15.6427
15.6558
15.6692
1.83747
1.65774
1.50597
1.37779
1.26982
1.17973
1.10613
1.0485
1.0071
0.982967
0.978021
0.995182
1.03851
1.11327
1.22579
1.383
1.59157
1.8566
2.1803
2.56083
2.992
3.4637
3.96324
4.47698
4.99199
5.49723
5.98422
6.44713
6.88244
7.28853
7.66513
8.01289
8.33305
8.6272
8.89711
9.14461
9.37153
9.57963
9.77058
9.94593
10.1071
10.2554
10.3921
10.5181
10.6345
10.7422
10.842
10.9346
11.0207
11.1008
11.1755
11.2453
11.3106
11.3718
11.4292
11.4832
11.534
11.582
11.6273
11.6703
11.7109
11.7496
11.7863
11.8213
11.8547
11.8866
11.9171
11.9463
11.9743
12.0012
12.027
12.0519
12.0759
12.0991
12.1214
12.1431
12.1641
12.1845
12.2043
12.2236
12.2423
12.2606
12.2784
12.2958
12.3129
12.3297
12.3462
12.3625
12.3786
12.3945
12.4103
12.426
12.4416
12.4571
12.4726
12.488
12.5034
12.5188
12.5342
12.5495
12.5648
12.5801
12.5953
12.6105
12.6256
12.6406
12.6556
12.6703
12.685
12.6994
12.7136
12.7276
12.7413
12.7546
12.7676
12.7802
12.7924
12.8041
12.8153
12.826
12.8364
12.8468
1.83635
1.65389
1.49762
1.36332
1.24761
1.14783
1.062
0.988661
0.926848
0.875995
0.835924
0.806832
0.789309
0.784375
0.793528
0.818789
0.862716
0.928351
1.01906
1.13827
1.28904
1.47355
1.69265
1.94546
2.22922
2.53944
2.87029
3.21516
3.56728
3.92031
4.26872
4.60806
4.93502
5.24734
5.54368
5.8234
6.08641
6.33298
6.56365
6.7791
6.98013
7.16758
7.34233
7.50524
7.65716
7.79889
7.9312
8.05481
8.17038
8.27855
8.37987
8.47489
8.56409
8.64792
8.72679
8.80109
8.87117
8.93734
8.99991
9.05914
9.11527
9.16853
9.21913
9.26725
9.31307
9.35674
9.39841
9.43821
9.47627
9.5127
9.5476
9.58108
9.61322
9.64412
9.67384
9.70246
9.73007
9.75671
9.78247
9.80739
9.83153
9.85494
9.87763
9.89962
9.92098
9.94176
9.96201
9.98178
10.0011
10.02
10.0386
10.0568
10.0746
10.0922
10.1095
10.1266
10.1434
10.16
10.1764
10.1925
10.2085
10.2242
10.2397
10.2549
10.27
10.2847
10.2992
10.3134
10.3273
10.3409
10.3541
10.3669
10.3794
10.3914
10.4029
10.4139
10.4244
10.4344
10.4438
10.4526
10.461
10.4694
1.8361
1.6529
1.49526
1.35888
1.24033
1.13688
1.04634
0.966998
0.8975
0.836801
0.784121
0.738903
0.700795
0.66963
0.645428
0.628393
0.618928
0.617651
0.625408
0.643286
0.672608
0.714903
0.771843
0.845141
0.936407
1.04697
1.17771
1.32885
1.49987
1.68946
1.89555
2.11545
2.34602
2.58391
2.82576
3.06842
3.30912
3.54551
3.77573
3.99839
4.21254
4.41758
4.61322
4.79938
4.97614
5.14372
5.30238
5.45248
5.59439
5.72851
5.85524
5.97499
6.08818
6.1952
6.29643
6.39223
6.48296
6.56894
6.65047
6.72785
6.80133
6.87117
6.9376
7.00083
7.06106
7.11849
7.17328
7.22561
7.27561
7.32344
7.36922
7.41307
7.45511
7.49545
7.53417
7.57139
7.60718
7.64163
7.67482
7.70682
7.7377
7.76753
7.79638
7.82429
7.8513
7.8774
7.90268
7.92718
7.95097
7.97407
7.99655
8.01842
8.03973
8.06051
8.08079
8.10058
8.1199
8.13878
8.15723
8.17525
8.19285
8.21003
8.2268
8.24316
8.25908
8.27458
8.28963
8.30424
8.31837
8.33201
8.34516
8.35778
8.36985
8.38137
8.3923
8.40262
8.41232
8.42136
8.42975
8.43746
8.44467
8.45177
1.83605
1.6527
1.49473
1.35782
1.23848
1.13393
1.04192
0.960651
0.888632
0.82467
0.767793
0.717216
0.672311
0.632587
0.597667
0.567277
0.541239
0.519467
0.501959
0.488804
0.480185
0.476377
0.477764
0.484832
0.498176
0.518492
0.546563
0.583231
0.629359
0.685782
0.753241
0.832318
0.923369
1.02647
1.14136
1.26745
1.40383
1.54927
1.70234
1.86143
2.02486
2.19096
2.35813
2.52492
2.69004
2.85242
3.0112
3.1657
3.31545
3.46011
3.5995
3.73352
3.86218
3.98552
4.10364
4.21668
4.32478
4.42813
4.52689
4.62125
4.71141
4.79755
4.87987
4.95856
5.03379
5.10574
5.17459
5.2405
5.30362
5.3641
5.42207
5.47766
5.531
5.58221
5.63139
5.67864
5.72406
5.76776
5.80981
5.85031
5.88933
5.92696
5.96326
5.99832
6.03218
6.06493
6.09659
6.12719
6.15674
6.18533
6.213
6.23979
6.26575
6.29092
6.31532
6.339
6.36196
6.38425
6.40586
6.42683
6.44716
6.46685
6.48592
6.50437
6.52219
6.53939
6.55596
6.57188
6.58717
6.60179
6.61575
6.62902
6.6416
6.65347
6.66461
6.67502
6.68468
6.69358
6.7017
6.70906
6.7158
6.72226
1.83603
1.65264
1.49462
1.3576
1.23811
1.13332
1.04098
0.959246
0.886595
0.821781
0.76377
0.711705
0.664871
0.622675
0.584622
0.550304
0.519386
0.491594
0.466712
0.444572
0.425055
0.408081
0.393614
0.381659
0.372259
0.365503
0.36152
0.360489
0.362632
0.368221
0.377575
0.391057
0.409065
0.432026
0.460379
0.49456
0.534977
0.581988
0.635878
0.696829
0.764908
0.840041
0.922014
1.01047
1.1049
1.2047
1.30914
1.41744
1.52877
1.64228
1.75715
1.87259
1.98789
2.10238
2.21553
2.32684
2.43596
2.54256
2.64645
2.74745
2.84547
2.94046
3.03239
3.12129
3.20719
3.29013
3.37018
3.44739
3.52186
3.59365
3.66285
3.72954
3.7938
3.85572
3.91539
3.9729
4.02832
4.08175
4.13327
4.18296
4.23089
4.27715
4.32181
4.36493
4.40659
4.44685
4.48576
4.5234
4.5598
4.59499
4.62898
4.66181
4.69352
4.72416
4.75378
4.7824
4.81005
4.83677
4.86258
4.88748
4.91151
4.93468
4.95699
4.97846
4.99908
5.01886
5.0378
5.0559
5.07316
5.08957
5.10512
5.11981
5.13364
5.1466
5.15867
5.16987
5.18018
5.1896
5.19812
5.20577
5.21269
5.21915
1.83602
1.65261
1.49457
1.35754
1.23801
1.13319
1.0408
0.958995
0.886239
0.821274
0.763051
0.710688
0.663449
0.620708
0.581938
0.54669
0.514581
0.485287
0.45853
0.434076
0.411723
0.391305
0.372681
0.355736
0.340378
0.326535
0.314157
0.30321
0.293681
0.285572
0.278905
0.273723
0.270083
0.268068
0.267776
0.26933
0.272873
0.278569
0.2866
0.297167
0.310483
0.326773
0.346263
0.369176
0.395724
0.426099
0.460464
0.498941
0.541609
0.588492
0.639552
0.694695
0.75376
0.816527
0.882722
0.952021
1.02406
1.09844
1.17475
1.25258
1.33149
1.41109
1.49098
1.57081
1.65025
1.72902
1.80685
1.88355
1.95893
2.03285
2.1052
2.17591
2.24492
2.31218
2.3777
2.44145
2.50344
2.5637
2.62223
2.67907
2.73424
2.78778
2.83971
2.89007
2.9389
2.98622
3.03208
3.07651
3.11955
3.16124
3.20161
3.2407
3.27852
3.31505
3.35032
3.38436
3.41721
3.44889
3.47943
3.50884
3.53714
3.56436
3.59049
3.61555
3.63955
3.66248
3.68437
3.7052
3.72499
3.74374
3.76144
3.7781
3.79372
3.80831
3.82187
3.83441
3.84592
3.85644
3.86595
3.87449
3.88218
3.88925
1.83602
1.65258
1.49453
1.35749
1.23795
1.13313
1.04073
0.958918
0.886153
0.821175
0.76293
0.710534
0.663244
0.620428
0.581551
0.546153
0.513841
0.484276
0.457165
0.432255
0.409327
0.388188
0.368672
0.350636
0.333951
0.31851
0.304216
0.290989
0.278758
0.267465
0.25706
0.247503
0.238763
0.230816
0.223648
0.217252
0.211627
0.206783
0.202736
0.199511
0.19714
0.195665
0.195138
0.195619
0.197177
0.199891
0.203849
0.209148
0.215891
0.224188
0.234154
0.245907
0.259563
0.275239
0.293043
0.313077
0.335429
0.360174
0.387365
0.417036
0.449197
0.483832
0.520899
0.560329
0.602025
0.645867
0.69171
0.739389
0.788723
0.839513
0.891554
0.944634
0.998536
1.05305
1.10796
1.16308
1.21822
1.27319
1.32784
1.38202
1.43561
1.48848
1.54056
1.59174
1.64197
1.69118
1.73935
1.78642
1.83238
1.8772
1.92089
1.96342
2.00479
2.04502
2.08409
2.12199
2.15868
2.19414
2.22839
2.26143
2.29326
2.32387
2.35329
2.3815
2.40851
2.43432
2.45894
2.48238
2.50463
2.52572
2.54564
2.56442
2.58205
2.59857
2.61398
2.6283
2.64155
2.65376
2.66494
2.67513
2.68442
2.69301
1.83601
1.65256
1.4945
1.35744
1.2379
1.13307
1.04068
0.958862
0.886097
0.821119
0.762874
0.710479
0.663188
0.620369
0.581486
0.546077
0.513746
0.484154
0.457003
0.432037
0.409031
0.387791
0.368143
0.349936
0.333036
0.317326
0.302702
0.28907
0.276348
0.264464
0.253353
0.242957
0.233225
0.224112
0.215578
0.207589
0.200113
0.193125
0.186603
0.180527
0.174883
0.169658
0.164845
0.160438
0.156435
0.152837
0.149649
0.146879
0.144537
0.142639
0.141203
0.140252
0.139811
0.139912
0.140587
0.141877
0.143823
0.146472
0.149874
0.154083
0.159153
0.165145
0.172118
0.180133
0.18925
0.199529
0.211026
0.223795
0.237884
0.253335
0.270183
0.288452
0.308161
0.329314
0.351904
0.375915
0.401316
0.428064
0.456104
0.48537
0.515783
0.547256
0.579691
0.612983
0.647022
0.681689
0.716867
0.752434
0.788267
0.824248
0.860259
0.896187
0.931924
0.967369
1.00243
1.03702
1.07107
1.10452
1.13726
1.16924
1.2004
1.23069
1.26009
1.28855
1.31607
1.34262
1.36819
1.39278
1.41639
1.43902
1.46068
1.48137
1.50111
1.5199
1.53778
1.55474
1.57082
1.58602
1.60038
1.6139
1.62665
1.63871
1.83601
1.65254
1.49448
1.35742
1.23787
1.13304
1.04064
0.958826
0.886061
0.821083
0.762838
0.710444
0.663153
0.620336
0.581454
0.546046
0.513716
0.484124
0.456972
0.432004
0.408994
0.387747
0.368088
0.349865
0.332945
0.317207
0.302545
0.288866
0.276084
0.264125
0.25292
0.24241
0.232539
0.223258
0.214524
0.206295
0.198537
0.191216
0.184303
0.177772
0.171597
0.165758
0.160235
0.155011
0.150069
0.145397
0.140981
0.136812
0.132879
0.129176
0.125696
0.122433
0.119385
0.116549
0.113924
0.11151
0.109309
0.107324
0.105559
0.104021
0.102718
0.101657
0.10085
0.10031
0.10005
0.100086
0.100436
0.101121
0.102161
0.10358
0.105402
0.107655
0.110367
0.113566
0.117284
0.121551
0.1264
0.131862
0.137968
0.144748
0.152233
0.160448
0.16942
0.179168
0.189712
0.201066
0.213239
0.226235
0.240053
0.254686
0.270122
0.286342
0.30332
0.321028
0.339428
0.35848
0.37814
0.398357
0.419084
0.44027
0.461853
0.483769
0.50595
0.528333
0.55085
0.573439
0.596036
0.618581
0.641015
0.663284
0.685335
0.70712
0.728594
0.749716
0.770447
0.790755
0.810608
0.829981
0.848849
0.867194
0.885003
0.902239
1.83601
1.65254