/*--------------------------------*- C++ -*----------------------------------*\
  =========                 |
  \\      /  F ield         | OpenFOAM: The Open Source CFD Toolbox
   \\    /   O peration     | Website:  https://openfoam.org
    \\  /    A nd           | Version:  8
     \\/     M anipulation  |
\*---------------------------------------------------------------------------*/
FoamFile
{
    version     2.0;
    format      ascii;
    class       volScalarField;
    location    "800";
    object      k;
}
// * * * * * * * * * * * * * * * * * * * * * * * * * * * * * * * * * * * * * //

dimensions      [0 2 -2 0 0 0 0];

internalField   nonuniform List<scalar> 
7320
(
6.07652
5.55942
5.24732
5.04165
4.8942
4.78178
4.69211
4.61825
4.55602
4.50265
4.45625
4.41545
4.37924
4.34686
4.31771
4.29132
4.26733
4.24542
4.22534
4.20689
4.18987
4.17415
4.15959
4.14608
4.13352
4.12184
4.11095
4.10079
4.09131
4.08244
4.07415
4.0664
4.05914
4.05234
4.04598
4.04002
4.03444
4.02921
4.02432
4.01974
4.01546
4.01146
4.00773
4.00425
4.001
3.99799
3.99518
3.99259
3.99019
3.98797
3.98593
3.98407
3.98236
3.98081
3.97941
3.97815
3.97703
3.97604
3.97517
3.97442
3.97379
3.97326
3.97284
3.97251
3.97228
3.97214
3.97209
3.97212
3.97222
3.9724
3.97266
3.97298
3.97338
3.97384
3.97436
3.97495
3.9756
3.97632
3.97709
3.97792
3.97882
3.97977
3.98079
3.98186
3.983
3.98419
3.98544
3.98676
3.98813
3.98956
3.99105
3.9926
3.99421
3.99588
3.9976
3.99937
4.0012
4.00309
4.00502
4.007
4.00903
4.01111
4.01323
4.0154
4.0176
4.01983
4.0221
4.0244
4.02673
4.02908
4.03145
4.03384
4.03624
4.03865
4.04106
4.04347
4.04588
4.04827
4.05066
4.05302
4.05531
4.05762
4.84215
5.67924
5.54001
5.36046
5.21715
5.10399
5.01225
4.93597
4.87129
4.81558
4.76697
4.72412
4.68601
4.65186
4.62109
4.59321
4.56782
4.54462
4.52335
4.50378
4.48573
4.46904
4.45358
4.43924
4.4259
4.41348
4.40191
4.39112
4.38103
4.37161
4.3628
4.35455
4.34683
4.3396
4.33284
4.3265
4.32057
4.31501
4.30981
4.30495
4.30041
4.29616
4.2922
4.2885
4.28506
4.28187
4.2789
4.27615
4.27361
4.27127
4.26912
4.26715
4.26535
4.26372
4.26225
4.26094
4.25977
4.25874
4.25784
4.25707
4.25643
4.2559
4.25548
4.25517
4.25496
4.25484
4.25481
4.25487
4.25501
4.25522
4.25551
4.25587
4.25629
4.25678
4.25734
4.25796
4.25863
4.25937
4.26017
4.26103
4.26194
4.26292
4.26396
4.26505
4.26621
4.26743
4.26872
4.27007
4.27148
4.27296
4.2745
4.27611
4.27779
4.27953
4.28134
4.28321
4.28516
4.28716
4.28924
4.29137
4.29357
4.29583
4.29815
4.30052
4.30295
4.30544
4.30797
4.31055
4.31317
4.31584
4.31854
4.32127
4.32403
4.32682
4.32962
4.33244
4.33527
4.33811
4.34094
4.34376
4.34654
4.34929
3.59581
5.0514
5.15997
5.06781
4.96411
4.87324
4.79598
4.72999
4.67307
4.62344
4.57977
4.541
4.50635
4.47517
4.44698
4.42135
4.39797
4.37656
4.35689
4.33877
4.32204
4.30655
4.29219
4.27885
4.26644
4.25488
4.2441
4.23404
4.22464
4.21585
4.20763
4.19994
4.19274
4.186
4.17969
4.17378
4.16824
4.16307
4.15822
4.15369
4.14946
4.14551
4.14182
4.13839
4.1352
4.13223
4.12948
4.12694
4.12459
4.12243
4.12045
4.11864
4.117
4.11552
4.11419
4.113
4.11195
4.11104
4.11025
4.10959
4.10904
4.1086
4.10827
4.10803
4.10788
4.10782
4.10784
4.10794
4.1081
4.10833
4.10862
4.10897
4.10938
4.10984
4.11035
4.11091
4.11152
4.11218
4.11289
4.11364
4.11445
4.11531
4.11623
4.1172
4.11823
4.11932
4.12047
4.12169
4.12297
4.12432
4.12575
4.12724
4.12881
4.13046
4.13219
4.13399
4.13587
4.13783
4.13987
4.14199
4.14419
4.14647
4.14883
4.15126
4.15377
4.15635
4.159
4.16171
4.16449
4.16734
4.17024
4.17319
4.17619
4.17924
4.18232
4.18544
4.18859
4.19176
4.19495
4.19815
4.20133
4.20445
2.74725
4.48339
4.83294
4.83938
4.78111
4.71517
4.65355
4.59832
4.54927
4.50567
4.46677
4.43188
4.40045
4.372
4.34614
4.32254
4.30093
4.28108
4.2628
4.24593
4.23032
4.21585
4.20241
4.18991
4.17828
4.16743
4.15731
4.14786
4.13902
4.13076
4.12302
4.11579
4.10901
4.10267
4.09673
4.09117
4.08597
4.0811
4.07654
4.07229
4.06832
4.06461
4.06116
4.05794
4.05495
4.05218
4.04962
4.04725
4.04507
4.04307
4.04124
4.03958
4.03807
4.03672
4.03551
4.03445
4.03352
4.03271
4.03203
4.03147
4.03101
4.03066
4.03041
4.03025
4.03017
4.03018
4.03025
4.03039
4.03059
4.03084
4.03115
4.0315
4.0319
4.03234
4.03283
4.03335
4.03391
4.03452
4.03516
4.03585
4.03658
4.03736
4.03819
4.03907
4.04001
4.04101
4.04207
4.04321
4.04441
4.04569
4.04704
4.04848
4.05
4.05161
4.05331
4.0551
4.05698
4.05896
4.06104
4.06321
4.06547
4.06784
4.0703
4.07286
4.07551
4.07825
4.08108
4.084
4.087
4.09008
4.09324
4.09647
4.09977
4.10313
4.10655
4.11002
4.11354
4.11709
4.12067
4.12428
4.12789
4.13141
2.10346
3.90602
4.48941
4.61127
4.60898
4.57387
4.53133
4.489
4.44924
4.41265
4.37922
4.34873
4.32092
4.29549
4.27219
4.2508
4.23111
4.21295
4.19616
4.18061
4.16619
4.15279
4.14032
4.12871
4.11788
4.10777
4.09833
4.08951
4.08125
4.07353
4.0663
4.05953
4.05319
4.04725
4.0417
4.03649
4.03163
4.02708
4.02282
4.01885
4.01515
4.01169
4.00848
4.00549
4.00272
4.00015
3.99778
3.9956
3.99359
3.99176
3.99009
3.98859
3.98723
3.98602
3.98495
3.98401
3.9832
3.98252
3.98195
3.9815
3.98115
3.9809
3.98074
3.98067
3.98067
3.98075
3.98089
3.98109
3.98133
3.98163
3.98196
3.98234
3.98275
3.98319
3.98366
3.98417
3.98471
3.98528
3.98588
3.98653
3.98721
3.98793
3.98871
3.98953
3.99042
3.99136
3.99237
3.99345
3.99461
3.99585
3.99718
3.9986
4.00011
4.00172
4.00343
4.00525
4.00717
4.00921
4.01135
4.01361
4.01598
4.01847
4.02106
4.02377
4.02659
4.02952
4.03256
4.0357
4.03895
4.04229
4.04572
4.04924
4.05284
4.05652
4.06028
4.06409
4.06797
4.07189
4.07586
4.07986
4.08388
4.08779
1.61624
3.30894
4.10161
4.35522
4.42201
4.42574
4.40724
4.38106
4.35281
4.32483
4.29808
4.27292
4.24944
4.22762
4.20738
4.18859
4.17115
4.15496
4.13991
4.1259
4.11285
4.10069
4.08934
4.07874
4.06884
4.05958
4.05091
4.0428
4.03521
4.02809
4.02143
4.01519
4.00935
4.00388
3.99875
3.99396
3.98947
3.98528
3.98137
3.97772
3.97432
3.97115
3.96821
3.96548
3.96295
3.96062
3.95847
3.9565
3.9547
3.95306
3.95157
3.95024
3.94905
3.94801
3.94709
3.94631
3.94565
3.9451
3.94467
3.94434
3.94412
3.94399
3.94394
3.94397
3.94407
3.94424
3.94446
3.94473
3.94504
3.94539
3.94578
3.94619
3.94663
3.9471
3.94759
3.9481
3.94864
3.94921
3.9498
3.95043
3.95109
3.95179
3.95254
3.95334
3.9542
3.95512
3.95611
3.95718
3.95833
3.95957
3.9609
3.96232
3.96386
3.9655
3.96725
3.96912
3.97111
3.97322
3.97545
3.97781
3.9803
3.98292
3.98566
3.98854
3.99153
3.99465
3.9979
4.00126
4.00473
4.00832
4.01201
4.01581
4.0197
4.02367
4.02773
4.03187
4.03607
4.04033
4.04464
4.04898
4.05336
4.05761
1.26812
2.7064
3.65726
4.05358
4.20386
4.25636
4.26838
4.26267
4.24897
4.23181
4.21339
4.19484
4.17674
4.15936
4.14285
4.12725
4.11255
4.09875
4.0858
4.07365
4.06226
4.05158
4.04157
4.03219
4.02339
4.01514
4.0074
4.00014
3.99333
3.98695
3.98096
3.97535
3.97009
3.96517
3.96055
3.95624
3.95221
3.94845
3.94493
3.94166
3.93862
3.93579
3.93317
3.93075
3.92851
3.92645
3.92457
3.92285
3.92129
3.91988
3.91862
3.91749
3.91651
3.91565
3.91492
3.91432
3.91383
3.91345
3.91318
3.91301
3.91293
3.91293
3.91302
3.91317
3.9134
3.91367
3.914
3.91437
3.91477
3.91521
3.91566
3.91614
3.91664
3.91716
3.91769
3.91824
3.91881
3.9194
3.92002
3.92066
3.92133
3.92204
3.9228
3.92361
3.92447
3.9254
3.92641
3.92749
3.92865
3.92991
3.93127
3.93273
3.93431
3.936
3.93781
3.93975
3.94181
3.94401
3.94635
3.94882
3.95143
3.95418
3.95707
3.96009
3.96326
3.96656
3.96999
3.97355
3.97724
3.98105
3.98497
3.98901
3.99314
3.99738
4.0017
4.00611
4.01059
4.01513
4.01973
4.02436
4.02904
4.03357
1.04443
2.13048
3.15609
3.69382
3.94125
4.05401
4.10457
4.12487
4.12967
4.12622
4.11833
4.10811
4.09673
4.0849
4.07304
4.06139
4.0501
4.03924
4.02888
4.01901
4.00966
4.0008
3.99243
3.98452
3.97707
3.97005
3.96343
3.95721
3.95135
3.94585
3.94068
3.93583
3.93129
3.92702
3.92303
3.9193
3.91582
3.91257
3.90954
3.90673
3.90411
3.9017
3.89947
3.89741
3.89553
3.8938
3.89224
3.89082
3.88955
3.88842
3.88742
3.88655
3.88581
3.88518
3.88468
3.88429
3.88401
3.88383
3.88375
3.88376
3.88385
3.88403
3.88428
3.88459
3.88496
3.88538
3.88584
3.88633
3.88685
3.8874
3.88796
3.88853
3.88912
3.88972
3.89033
3.89095
3.89158
3.89223
3.89289
3.89358
3.8943
3.89506
3.89586
3.8967
3.89761
3.89858
3.89962
3.90074
3.90195
3.90326
3.90467
3.90618
3.90782
3.90957
3.91146
3.91347
3.91563
3.91792
3.92035
3.92293
3.92566
3.92853
3.93156
3.93473
3.93804
3.9415
3.9451
3.94883
3.9527
3.9567
3.96082
3.96505
3.9694
3.97385
3.97839
3.98302
3.98772
3.99249
3.99732
4.00219
4.0071
4.01185
0.919762
1.62589
2.61278
3.26902
3.62244
3.80741
3.90596
3.95917
3.98747
4.00145
4.00694
4.00725
4.00438
3.99954
3.99352
3.98681
3.97977
3.97259
3.96544
3.95842
3.95158
3.94497
3.93862
3.93255
3.92675
3.92124
3.91601
3.91105
3.90637
3.90195
3.89779
3.89387
3.89019
3.88673
3.8835
3.88048
3.87766
3.87504
3.8726
3.87035
3.86827
3.86635
3.86459
3.86299
3.86153
3.86021
3.85903
3.85798
3.85707
3.85627
3.85559
3.85503
3.85458
3.85425
3.85401
3.85388
3.85385
3.85391
3.85406
3.8543
3.85461
3.85499
3.85543
3.85594
3.85649
3.85708
3.85771
3.85837
3.85904
3.85973
3.86043
3.86114
3.86185
3.86256
3.86328
3.86401
3.86474
3.86548
3.86624
3.86701
3.86781
3.86865
3.86952
3.87044
3.87141
3.87245
3.87356
3.87475
3.87603
3.8774
3.87888
3.88047
3.88218
3.88402
3.88598
3.88808
3.89032
3.89271
3.89525
3.89793
3.90076
3.90375
3.90689
3.91019
3.91363
3.91722
3.92096
3.92484
3.92886
3.93301
3.93729
3.94169
3.9462
3.95082
3.95553
3.96033
3.9652
3.97015
3.97515
3.98019
3.98528
3.9902
0.860369
1.23773
2.06198
2.78202
3.23846
3.50547
3.66218
3.75644
3.81442
3.85055
3.87304
3.88674
3.89464
3.89864
3.89999
3.89953
3.89781
3.89526
3.89213
3.88865
3.88496
3.88115
3.87732
3.87351
3.86978
3.86614
3.86262
3.85924
3.856
3.85292
3.84999
3.84722
3.8446
3.84215
3.83985
3.8377
3.8357
3.83385
3.83214
3.83057
3.82913
3.82783
3.82665
3.82559
3.82466
3.82384
3.82313
3.82254
3.82205
3.82167
3.82138
3.8212
3.82111
3.82112
3.82122
3.8214
3.82168
3.82203
3.82246
3.82297
3.82354
3.82417
3.82486
3.8256
3.82638
3.82719
3.82802
3.82888
3.82975
3.83063
3.83151
3.83238
3.83326
3.83414
3.83501
3.83588
3.83675
3.83763
3.83851
3.83941
3.84033
3.84128
3.84226
3.84328
3.84436
3.8455
3.8467
3.84799
3.84936
3.85083
3.8524
3.85408
3.85588
3.8578
3.85986
3.86205
3.86439
3.86687
3.8695
3.87228
3.87522
3.87831
3.88155
3.88495
3.88851
3.89221
3.89606
3.90006
3.90419
3.90846
3.91286
3.91738
3.92202
3.92676
3.93159
3.93652
3.94152
3.94659
3.95171
3.95688
3.96209
3.96712
0.836787
0.98815
1.55966
2.25312
2.7872
3.13869
3.36248
3.50657
3.60152
3.66555
3.70958
3.74028
3.76187
3.77709
3.78779
3.79521
3.80023
3.80349
3.80544
3.80641
3.80665
3.80636
3.80567
3.8047
3.80353
3.80223
3.80084
3.79941
3.79796
3.79654
3.79514
3.79379
3.7925
3.79127
3.79012
3.78905
3.78807
3.78716
3.78635
3.78562
3.78498
3.78443
3.78397
3.78359
3.7833
3.78309
3.78297
3.78292
3.78296
3.78308
3.78328
3.78356
3.78391
3.78434
3.78485
3.78542
3.78607
3.78678
3.78756
3.7884
3.78929
3.79023
3.79122
3.79224
3.79329
3.79437
3.79547
3.79658
3.79769
3.79881
3.79991
3.80101
3.8021
3.80318
3.80425
3.80531
3.80637
3.80742
3.80848
3.80955
3.81063
3.81173
3.81286
3.81403
3.81524
3.81651
3.81785
3.81926
3.82075
3.82233
3.82402
3.82581
3.82771
3.82974
3.8319
3.83419
3.83663
3.83921
3.84193
3.84481
3.84783
3.85102
3.85435
3.85785
3.86149
3.86528
3.86923
3.87331
3.87754
3.8819
3.88638
3.89099
3.89571
3.90054
3.90546
3.91046
3.91555
3.9207
3.9259
3.93113
3.93642
3.94152
0.830413
0.857509
1.16926
1.7285
2.28148
2.70333
2.99742
3.19899
3.33861
3.4372
3.50825
3.56042
3.59936
3.62883
3.65138
3.6688
3.68236
3.69298
3.70133
3.70792
3.71312
3.71725
3.72051
3.72309
3.72514
3.72675
3.72802
3.72903
3.72983
3.73046
3.73097
3.73139
3.73174
3.73204
3.73232
3.73259
3.73285
3.73313
3.73342
3.73373
3.73408
3.73446
3.73487
3.73533
3.73583
3.73638
3.73697
3.73761
3.7383
3.73904
3.73983
3.74068
3.74158
3.74252
3.74353
3.74458
3.74568
3.74684
3.74804
3.74928
3.75057
3.75189
3.75324
3.75461
3.75601
3.75742
3.75884
3.76026
3.76168
3.76308
3.76447
3.76585
3.76721
3.76855
3.76987
3.77118
3.77247
3.77375
3.77503
3.77631
3.7776
3.7789
3.78022
3.78158
3.78297
3.78442
3.78592
3.78748
3.78913
3.79086
3.79268
3.7946
3.79664
3.79879
3.80106
3.80347
3.80601
3.80869
3.81151
3.81448
3.8176
3.82087
3.82429
3.82786
3.83158
3.83545
3.83946
3.84362
3.84791
3.85233
3.85687
3.86154
3.86631
3.87119
3.87616
3.88121
3.88634
3.89153
3.89676
3.90204
3.90736
3.91249
0.831632
0.801461
0.924682
1.27902
1.76057
2.20994
2.5635
2.82478
3.0153
3.15518
3.2594
3.33832
3.39906
3.44651
3.48408
3.51418
3.53856
3.5585
3.57496
3.58866
3.60014
3.60984
3.61808
3.62514
3.63123
3.63651
3.64112
3.64518
3.64878
3.652
3.65489
3.65751
3.65991
3.66213
3.66418
3.66611
3.66793
3.66967
3.67134
3.67295
3.67451
3.67605
3.67755
3.67905
3.68053
3.682
3.68348
3.68497
3.68646
3.68797
3.68949
3.69104
3.6926
3.69419
3.6958
3.69745
3.69911
3.70081
3.70253
3.70428
3.70604
3.70783
3.70963
3.71144
3.71326
3.71507
3.71689
3.71869
3.72048
3.72225
3.724
3.72572
3.72741
3.72907
3.73071
3.73233
3.73392
3.73549
3.73705
3.7386
3.74015
3.7417
3.74327
3.74486
3.74648
3.74814
3.74984
3.75161
3.75344
3.75535
3.75734
3.75943
3.76162
3.76392
3.76633
3.76887
3.77153
3.77432
3.77725
3.78033
3.78354
3.7869
3.7904
3.79404
3.79783
3.80177
3.80584
3.81004
3.81438
3.81885
3.82343
3.82813
3.83293
3.83783
3.84282
3.84789
3.85303
3.85822
3.86346
3.86873
3.87405
3.87918
0.835915
0.782667
0.803403
0.968303
1.29566
1.69673
2.07275
2.38225
2.62383
2.80953
2.95259
3.06386
3.15146
3.22133
3.27774
3.32383
3.3619
3.39365
3.42038
3.44308
3.46251
3.47926
3.4938
3.50652
3.51771
3.52762
3.53644
3.54435
3.55147
3.55793
3.56381
3.5692
3.57417
3.57877
3.58305
3.58706
3.59082
3.59438
3.59776
3.60099
3.60407
3.60704
3.60991
3.61269
3.61539
3.61802
3.6206
3.62313
3.62562
3.62807
3.6305
3.63291
3.63531
3.63769
3.64006
3.64243
3.64479
3.64716
3.64952
3.65188
3.65425
3.65661
3.65896
3.66131
3.66364
3.66596
3.66826
3.67054
3.67279
3.67501
3.6772
3.67934
3.68144
3.68351
3.68554
3.68753
3.68949
3.69142
3.69333
3.69522
3.69709
3.69896
3.70083
3.70271
3.70462
3.70655
3.70851
3.71052
3.71259
3.71473
3.71693
3.71922
3.7216
3.72408
3.72666
3.72935
3.73216
3.73509
3.73815
3.74134
3.74466
3.74811
3.7517
3.75542
3.75928
3.76328
3.7674
3.77165
3.77603
3.78052
3.78513
3.78985
3.79466
3.79956
3.80455
3.80961
3.81473
3.8199
3.82512
3.83035
3.83564
3.84074
0.841165
0.780282
0.755
0.801817
0.962762
1.23783
1.56799
1.88853
2.16639
2.39488
2.57903
2.72692
2.8462
2.94319
3.02278
3.08874
3.14394
3.19054
3.23023
3.26431
3.29379
3.31947
3.34199
3.36187
3.37951
3.39527
3.40941
3.42217
3.43374
3.44429
3.45394
3.46281
3.47101
3.47861
3.48568
3.4923
3.49851
3.50435
3.50988
3.51512
3.52011
3.52487
3.52943
3.53381
3.53803
3.54211
3.54606
3.54989
3.55362
3.55726
3.56081
3.5643
3.56772
3.57108
3.5744
3.57766
3.58089
3.58409
3.58725
3.59038
3.59348
3.59655
3.59959
3.6026
3.60557
3.60851
3.61141
3.61428
3.61709
3.61987
3.62259
3.62526
3.62787
3.63043
3.63294
3.63541
3.63782
3.6402
3.64253
3.64484
3.64712
3.64938
3.65162
3.65387
3.65612
3.65839
3.66068
3.663
3.66536
3.66777
3.67025
3.67279
3.6754
3.6781
3.68089
3.68378
3.68677
3.68987
3.69308
3.69641
3.69986
3.70343
3.70712
3.71094
3.71488
3.71894
3.72313
3.72743
3.73184
3.73636
3.74099
3.74571
3.75052
3.75542
3.76038
3.76541
3.7705
3.77563
3.7808
3.78598
3.7912
3.79626
0.846372
0.784571
0.740866
0.731421
0.780818
0.913761
1.13036
1.39676
1.66969
1.92048
2.13792
2.32135
2.47447
2.60211
2.70889
2.79873
2.87484
2.93979
2.99561
3.04393
3.08604
3.12297
3.15556
3.18449
3.2103
3.23346
3.25433
3.27323
3.29043
3.30614
3.32056
3.33383
3.3461
3.35748
3.36808
3.37798
3.38726
3.39598
3.40421
3.41199
3.41936
3.42638
3.43306
3.43945
3.44558
3.45146
3.45712
3.46258
3.46786
3.47297
3.47794
3.48276
3.48747
3.49205
3.49654
3.50093
3.50524
3.50946
3.51361
3.51769
3.52171
3.52566
3.52955
3.53338
3.53715
3.54086
3.54451
3.54809
3.55161
3.55506
3.55845
3.56176
3.56501
3.56818
3.57129
3.57433
3.5773
3.58022
3.58309
3.58591
3.58869
3.59143
3.59415
3.59684
3.59953
3.60221
3.6049
3.60761
3.61034
3.6131
3.61591
3.61876
3.62168
3.62466
3.62771
3.63085
3.63407
3.63738
3.64079
3.6443
3.64791
3.65163
3.65546
3.6594
3.66344
3.6676
3.67185
3.67621
3.68068
3.68523
3.68988
3.69461
3.69942
3.7043
3.70925
3.71425
3.71929
3.72436
3.72947
3.73458
3.73972
3.74471
0.851011
0.791143
0.741126
0.708367
0.70346
0.741579
0.838108
0.996907
1.20263
1.4285
1.65059
1.85477
2.03555
2.19259
2.3279
2.44426
2.54449
2.63115
2.70642
2.77214
2.82983
2.88074
2.9259
2.96617
3.00225
3.03473
3.0641
3.09076
3.11507
3.13731
3.15775
3.17659
3.19401
3.21018
3.22523
3.23928
3.25243
3.26479
3.27642
3.28739
3.29778
3.30763
3.31699
3.32591
3.33443
3.34258
3.35039
3.3579
3.36512
3.37209
3.37882
3.38532
3.39163
3.39776
3.40371
3.4095
3.41515
3.42067
3.42606
3.43133
3.43649
3.44154
3.44649
3.45134
3.4561
3.46076
3.46533
3.46981
3.4742
3.47849
3.4827
3.48681
3.49084
3.49477
3.49861
3.50236
3.50603
3.50963
3.51315
3.5166
3.52
3.52334
3.52663
3.52989
3.53311
3.53631
3.5395
3.54269
3.54588
3.54908
3.5523
3.55556
3.55885
3.56219
3.56558
3.56903
3.57255
3.57614
3.5798
3.58355
3.58738
3.5913
3.5953
3.5994
3.60359
3.60787
3.61223
3.61668
3.62122
3.62583
3.63052
3.63527
3.64009
3.64497
3.64989
3.65486
3.65985
3.66487
3.66991
3.67494
3.67999
3.6849
0.854799
0.797919
0.746862
0.705362
0.677885
0.670753
0.692779
0.753704
0.859331
1.00619
1.18133
1.368
1.55204
1.72458
1.88152
2.02185
2.14624
2.2561
2.35311
2.43889
2.51496
2.58264
2.64307
2.69726
2.74602
2.79009
2.83005
2.86643
2.89966
2.93013
2.95815
2.98401
3.00794
3.03015
3.05083
3.07013
3.08819
3.10513
3.12106
3.13608
3.15027
3.1637
3.17645
3.18856
3.2001
3.21111
3.22164
3.23173
3.2414
3.2507
3.25964
3.26827
3.2766
3.28465
3.29245
3.30001
3.30735
3.31448
3.32142
3.32819
3.33478
3.34121
3.34749
3.35362
3.35961
3.36546
3.37119
3.37678
3.38225
3.38759
3.39282
3.39792
3.40291
3.40777
3.41253
3.41716
3.4217
3.42612
3.43046
3.4347
3.43885
3.44293
3.44694
3.45089
3.45479
3.45864
3.46245
3.46623
3.47
3.47375
3.4775
3.48126
3.48503
3.48883
3.49265
3.49651
3.50041
3.50436
3.50836
3.51242
3.51654
3.52072
3.52497
3.52929
3.53368
3.53813
3.54265
3.54724
3.55188
3.55659
3.56135
3.56616
3.57102
3.57591
3.58084
3.58578
3.59075
3.59571
3.60068
3.60563
3.61059
3.61542
0.857613
0.803838
0.754023
0.710069
0.674015
0.648368
0.636594
0.64348
0.674826
0.73588
0.828724
0.950234
1.09243
1.24518
1.3992
1.54782
1.68713
1.81538
1.93217
2.03791
2.13338
2.21952
2.29731
2.36767
2.43146
2.48942
2.54224
2.59051
2.63474
2.67539
2.71285
2.74747
2.77954
2.80934
2.83709
2.863
2.88724
2.90997
2.93134
2.95146
2.97046
2.98842
3.00544
3.02159
3.03695
3.05158
3.06554
3.07888
3.09165
3.10389
3.11565
3.12695
3.13782
3.14831
3.15844
3.16822
3.17769
3.18687
3.19577
3.20441
3.21281
3.22097
3.22892
3.23666
3.2442
3.25155
3.25872
3.26571
3.27253
3.27918
3.28567
3.29201
3.29819
3.30422
3.31011
3.31585
3.32145
3.32692
3.33226
3.33747
3.34258
3.34758
3.35248
3.35729
3.36202
3.36668
3.37127
3.3758
3.38029
3.38474
3.38916
3.39355
3.39793
3.40231
3.40668
3.41107
3.41547
3.41988
3.42433
3.4288
3.43331
3.43785
3.44243
3.44705
3.45172
3.45643
3.46117
3.46596
3.47078
3.47564
3.48053
3.48544
3.49038
3.49533
3.50029
3.50525
3.5102
3.51514
3.52006
3.52495
3.52983
3.53459
0.859482
0.808378
0.760626
0.716973
0.678334
0.645749
0.620512
0.604371
0.599722
0.609658
0.637654
0.686738
0.758296
0.851094
0.961178
1.08279
1.20982
1.33698
1.46042
1.57773
1.68765
1.78972
1.88396
1.9707
2.05043
2.12369
2.19105
2.25304
2.31019
2.36296
2.41178
2.45704
2.49907
2.5382
2.57469
2.6088
2.64074
2.6707
2.69887
2.7254
2.75044
2.7741
2.7965
2.81774
2.83793
2.85713
2.87542
2.89288
2.90956
2.92553
2.94083
2.95551
2.96961
2.98318
2.99625
3.00885
3.02101
3.03277
3.04414
3.05516
3.06583
3.07619
3.08624
3.09601
3.10551
3.11474
3.12373
3.13248
3.14099
3.14929
3.15737
3.16525
3.17293
3.18042
3.18772
3.19483
3.20177
3.20853
3.21513
3.22157
3.22786
3.23401
3.24002
3.24591
3.25168
3.25735
3.26292
3.26839
3.27379
3.27911
3.28438
3.28958
3.29474
3.29986
3.30494
3.31001
3.31505
3.32008
3.3251
3.33012
3.33514
3.34016
3.3452
3.35024
3.35529
3.36035
3.36542
3.3705
3.37559
3.38068
3.38577
3.39086
3.39594
3.40101
3.40606
3.41108
3.41608
3.42103
3.42594
3.43079
3.43562
3.44033
0.860565
0.811411
0.765711
0.723439
0.684828
0.650242
0.620147
0.595142
0.57603
0.563904
0.56022
0.566795
0.585676
0.618805
0.66751
0.731993
0.81102
0.902008
1.00149
1.10577
1.21146
1.31586
1.41705
1.51381
1.60547
1.69173
1.77257
1.84814
1.91867
1.98447
2.04585
2.10313
2.15664
2.20668
2.25353
2.29744
2.33866
2.37742
2.4139
2.44831
2.48079
2.51152
2.54061
2.5682
2.5944
2.61932
2.64305
2.66568
2.68729
2.70794
2.72771
2.74666
2.76483
2.78229
2.79908
2.81523
2.83081
2.84583
2.86033
2.87435
2.88791
2.90104
2.91376
2.92609
2.93806
2.94967
2.96095
2.97192
2.98258
2.99295
3.00304
3.01286
3.02242
3.03173
3.0408
3.04963
3.05824
3.06663
3.07481
3.08278
3.09056
3.09814
3.10555
3.1128
3.11988
3.12682
3.13361
3.14028
3.14682
3.15325
3.15958
3.16582
3.17197
3.17804
3.18403
3.18997
3.19584
3.20167
3.20745
3.21318
3.21888
3.22455
3.23019
3.23579
3.24137
3.24693
3.25245
3.25795
3.26342
3.26886
3.27426
3.27962
3.28495
3.29022
3.29544
3.30061
3.30571
3.31074
3.3157
3.32057
3.32539
3.33009
0.861099
0.813133
0.76901
0.728261
0.690673
0.656203
0.624916
0.596953
0.57254
0.551996
0.535764
0.524447
0.518835
0.519919
0.528854
0.546863
0.575059
0.614217
0.664541
0.725514
0.795886
0.873821
0.957145
1.04364
1.13129
1.21842
1.30375
1.3864
1.4658
1.54163
1.61374
1.68211
1.74682
1.80798
1.86575
1.92031
1.97184
2.02055
2.0666
2.11017
2.15144
2.19057
2.22768
2.26294
2.29646
2.32837
2.35877
2.38777
2.41546
2.44193
2.46726
2.49152
2.51478
2.53711
2.55856
2.57918
2.59904
2.61817
2.63661
2.65442
2.67162
2.68824
2.70433
2.7199
2.73499
2.74961
2.7638
2.77756
2.79093
2.80391
2.81653
2.8288
2.84073
2.85234
2.86364
2.87463
2.88534
2.89577
2.90593
2.91583
2.92548
2.93488
2.94405
2.953
2.96174
2.97027
2.97862
2.98679
2.99478
3.00262
3.0103
3.01785
3.02526
3.03254
3.03971
3.04676
3.05372
3.06057
3.06734
3.07401
3.08061
3.08712
3.09356
3.09993
3.10622
3.11245
3.1186
3.12468
3.13069
3.13662
3.14248
3.14825
3.15394
3.15955
3.16506
3.17047
3.17578
3.18098
3.18607
3.19104
3.19593
3.20068
0.861317
0.813942
0.770775
0.731184
0.694718
0.661081
0.630095
0.601662
0.575754
0.552397
0.531673
0.513721
0.498751
0.487049
0.478999
0.475087
0.475905
0.482135
0.494503
0.513718
0.540366
0.574817
0.617121
0.666952
0.72361
0.786067
0.853079
0.923307
0.99544
1.06829
1.14087
1.21238
1.28223
1.35001
1.41546
1.47841
1.53881
1.59663
1.6519
1.70469
1.75507
1.80315
1.84902
1.8928
1.93459
1.9745
2.01264
2.04911
2.08399
2.11739
2.14939
2.18007
2.2095
2.23776
2.26492
2.29103
2.31617
2.34038
2.36372
2.38623
2.40796
2.42895
2.44924
2.46887
2.48787
2.50627
2.5241
2.54139
2.55816
2.57443
2.59023
2.60558
2.6205
2.635
2.6491
2.66281
2.67616
2.68915
2.7018
2.71412
2.72612
2.73781
2.7492
2.7603
2.77113
2.78169
2.792
2.80206
2.8119
2.82152
2.83092
2.84013
2.84915
2.85799
2.86665
2.87514
2.88348
2.89167
2.89971
2.90761
2.91537
2.923
2.9305
2.93787
2.94512
2.95225
2.95925
2.96612
2.97287
2.9795
2.98599
2.99236
2.99859
3.00468
3.01063
3.01643
3.02208
3.02758
3.03293
3.03811
3.04316
3.04807
0.861389
0.814244
0.77153
0.732597
0.696917
0.664079
0.633769
0.605753
0.579862
0.555979
0.53403
0.513979
0.495828
0.479611
0.4654
0.453309
0.443493
0.436161
0.431574
0.430052
0.431968
0.437737
0.4478
0.462586
0.482476
0.507758
0.538578
0.574904
0.616512
0.66298
0.713718
0.768009
0.825062
0.88407
0.94426
1.00493
1.06548
1.12542
1.18436
1.242
1.29815
1.35266
1.40546
1.4565
1.50575
1.55324
1.59899
1.64304
1.68543
1.72622
1.76547
1.80325
1.83961
1.87462
1.90834
1.94083
1.97216
2.00237
2.03153
2.05967
2.08686
2.11313
2.13853
2.1631
2.18689
2.20992
2.23223
2.25387
2.27484
2.2952
2.31495
2.33413
2.35276
2.37086
2.38846
2.40557
2.42221
2.4384
2.45416
2.4695
2.48443
2.49898
2.51316
2.52697
2.54043
2.55354
2.56633
2.57879
2.59096
2.60283
2.61442
2.62574
2.6368
2.64761
2.65818
2.66852
2.67863
2.68852
2.69821
2.70768
2.71696
2.72603
2.73492
2.74361
2.75211
2.76043
2.76856
2.7765
2.78425
2.79181
2.79919
2.80637
2.81335
2.82014
2.82672
2.8331
2.83928
2.84524
2.851
2.85654
2.86191
2.8671
0.861406
0.814329
0.771776
0.733121
0.697834
0.665476
0.635686
0.608168
0.582682
0.559037
0.53708
0.516692
0.497782
0.480288
0.464168
0.449403
0.435996
0.423969
0.413369
0.404262
0.396745
0.390937
0.38699
0.385084
0.385432
0.38827
0.393857
0.402461
0.414344
0.429748
0.448872
0.471851
0.49874
0.5295
0.563987
0.601961
0.643088
0.68696
0.733122
0.781088
0.830373
0.880513
0.93108
0.981697
1.03204
1.08185
1.1309
1.17905
1.22617
1.27217
1.317
1.36062
1.40303
1.44421
1.48418
1.52294
1.56052
1.59694
1.63224
1.66645
1.69959
1.73171
1.76284
1.79302
1.82229
1.85067
1.87822
1.90494
1.93089
1.95609
1.98056
2.00434
2.02744
2.0499
2.07174
2.09298
2.11364
2.13374
2.1533
2.17235
2.19089
2.20896
2.22656
2.2437
2.26041
2.2767
2.29258
2.30805
2.32313
2.33783
2.35216
2.36614
2.37977
2.39307
2.40605
2.41871
2.43107
2.44314
2.45491
2.4664
2.4776
2.48854
2.4992
2.50959
2.51972
2.52958
2.53917
2.54851
2.55758
2.56639
2.57493
2.5832
2.59121
2.59895
2.60642
2.61361
2.62053
2.62718
2.63355
2.63964
2.6455
2.65115
0.861407
0.814342
0.77183
0.73326
0.698113
0.665954
0.636417
0.609191
0.584014
0.560665
0.538959
0.518737
0.499869
0.482247
0.46578
0.450397
0.43604
0.422666
0.410246
0.398762
0.388209
0.378592
0.36993
0.362255
0.355609
0.350053
0.345657
0.342512
0.340722
0.340409
0.341708
0.344772
0.349758
0.356833
0.366159
0.377891
0.392165
0.409092
0.428747
0.45116
0.476313
0.504137
0.534507
0.567251
0.602152
0.638957
0.677388
0.717155
0.757963
0.799524
0.841567
0.883844
0.926131
0.968236
1.01
1.05128
1.09198
1.132
1.1713
1.20982
1.24754
1.28443
1.32047
1.35568
1.39004
1.42356
1.45626
1.48813
1.5192
1.54948
1.57898
1.60773
1.63573
1.66302
1.6896
1.7155
1.74073
1.76532
1.78929
1.81265
1.83542
1.85761
1.87926
1.90036
1.92093
1.941
1.96056
1.97965
1.99826
2.01641
2.03409
2.05132
2.06811
2.08448
2.10042
2.11596
2.1311
2.14586
2.16022
2.17421
2.18783
2.20109
2.21398
2.2265
2.23868
2.25049
2.26195
2.27306
2.28382
2.29422
2.30427
2.31397
2.32332
2.33232
2.34096
2.34925
2.35719
2.36478
2.37202
2.37892
2.38552
2.39186
0.861405
0.814337
0.771831
0.733277
0.698164
0.666062
0.636607
0.60949
0.584448
0.561253
0.53971
0.519653
0.500935
0.483431
0.467033
0.451647
0.437194
0.423603
0.410816
0.398785
0.387468
0.376832
0.366852
0.357508
0.348789
0.340687
0.333204
0.326348
0.32013
0.314572
0.309702
0.305553
0.30217
0.299604
0.297914
0.29717
0.297449
0.298836
0.301424
0.305311
0.3106
0.317392
0.325788
0.335883
0.347762
0.361495
0.377137
0.394719
0.41425
0.435711
0.459056
0.484212
0.51108
0.539536
0.569437
0.600624
0.632926
0.666166
0.700165
0.734748
0.769746
0.805002
0.840372
0.875723
0.910943
0.945931
0.980604
1.01489
1.04874
1.0821
1.11494
1.14724
1.17897
1.21012
1.24069
1.27066
1.30003
1.32881
1.35699
1.38458
1.41157
1.43799
1.46382
1.48907
1.51376
1.53788
1.56145
1.58447
1.60696
1.62892
1.65035
1.67128
1.69169
1.71158
1.73096
1.74984
1.76823
1.78613
1.80355
1.8205
1.83698
1.85299
1.86853
1.88362
1.89825
1.91243
1.92615
1.93942
1.95224
1.96462
1.97654
1.98802
1.99906
2.00966
2.01982
2.02955
2.03885
2.04773
2.05618
2.06422
2.07189
2.07925
0.861402
0.814329
0.77182
0.733266
0.698157
0.666065
0.636627
0.609537
0.584532
0.561385
0.539902
0.519913
0.50127
0.483846
0.467525
0.45221
0.437813
0.424257
0.411474
0.399403
0.387993
0.377196
0.366972
0.357284
0.348103
0.339402
0.331157
0.323351
0.315968
0.308997
0.302429
0.296259
0.290486
0.285112
0.28014
0.275581
0.271445
0.267749
0.264512
0.261758
0.259514
0.257813
0.256693
0.256195
0.256365
0.257255
0.25892
0.261418
0.264812
0.269165
0.274542
0.281005
0.288617
0.297436
0.307513
0.318893
0.331611
0.345694
0.361153
0.377987
0.396183
0.415712
0.436529
0.458578
0.48179
0.506082
0.531365
0.557538
0.584498
0.612136
0.640344
0.669011
0.698033
0.727308
0.756738
0.786235
0.815716
0.845107
0.874341
0.903361
0.932115
0.960561
0.988661
1.01638
1.04371
1.07061
1.09707
1.12307
1.14862
1.17369
1.19828
1.22238
1.24599
1.26911
1.29173
1.31384
1.33542
1.35647
1.37699
1.39697
1.41643
1.43534
1.45372
1.47157
1.48889
1.50567
1.52192
1.53765
1.55284
1.56752
1.58167
1.59532
1.60845
1.62108
1.63322
1.64486
1.65602
1.6667
1.67692
1.68667
1.69602
1.705
0.8614
0.814321
0.77181
0.733253
0.698143
0.66605
0.636614
0.609527
0.584528
0.561391
0.53992
0.519948
0.501326
0.483926
0.467634
0.45235
0.437986
0.424462
0.411709
0.399665
0.388273
0.377484
0.367254
0.35754
0.348309
0.339526
0.331164
0.323195
0.315596
0.308347
0.301429
0.294824
0.288519
0.282502
0.27676
0.271286
0.266072
0.261112
0.256403
0.251941
0.247725
0.243758
0.24004
0.236576
0.233372
0.230436
0.227777
0.225408
0.223341
0.221593
0.220182
0.219128
0.218455
0.218189
0.218358
0.218993
0.220126
0.221793
0.224031
0.226879
0.230376
0.234563
0.23948
0.245167
0.251661
0.258998
0.267212
0.276331
0.28638
0.297378
0.309337
0.322264
0.336158
0.35101
0.366803
0.383513
0.401108
0.419548
0.438787
0.458773
0.479447
0.500745
0.522602
0.544947
0.567711
0.59082
0.614203
0.63779
0.661512
0.685303
0.709102
0.73285
0.756491
0.779978
0.803265
0.826311
0.849089
0.871561
0.89369
0.915444
0.936802
0.957746
0.978262
0.998338
1.01797
1.03714
1.05585
1.07409
1.09188
1.10919
1.12604
1.14242
1.15833
1.17379
1.18878
1.20332
1.2174
1.23104
1.24423
1.25698
1.26933
1.28127
0.861399
0.814317
0.771804
0.733245
0.698133
0.666039
0.636602
0.609515
0.584516
0.561379
0.53991
0.51994
0.501322
0.483926
0.46764
0.452363
0.438006
0.424492
0.411749
0.399716
0.388335
0.377557
0.367336
0.357631
0.348405
0.339624
0.331258
0.323279
0.315662
0.308383
0.301421
0.294758
0.288376
0.282259
0.276392
0.270762
0.265357
0.260167
0.25518
0.250389
0.245786
0.241362
0.237113
0.233033
0.229117
0.225362
0.221764
0.218323
0.215035
0.211901
0.208922
0.206097
0.20343
0.200923
0.198581
0.196407
0.194407
0.192589
0.19096
0.18953
0.188308
0.187306
0.186538
0.186016
0.185756
0.185777
0.186095
0.186731
0.187707
0.189044
0.190767
0.192901
0.195472
0.198506
0.202031
0.206073
0.210662
0.215822
0.221582
0.227964
0.234994
0.242692
0.251077
0.260164
0.269966
0.280491
0.291743
0.303722
0.316423
0.329837
0.343948
0.358738
0.374181
0.390249
0.406909
0.424125
0.441855
0.460057