/*--------------------------------*- C++ -*----------------------------------*\
  =========                 |
  \\      /  F ield         | OpenFOAM: The Open Source CFD Toolbox
   \\    /   O peration     | Website:  https://openfoam.org
    \\  /    A nd           | Version:  8
     \\/     M anipulation  |
\*---------------------------------------------------------------------------*/
FoamFile
{
    version     2.0;
    format      ascii;
    class       volScalarField;
    location    "800";
    object      nut;
}
// * * * * * * * * * * * * * * * * * * * * * * * * * * * * * * * * * * * * * //

dimensions      [0 2 -1 0 0 0 0];

internalField   nonuniform List<scalar> 
7320
(
0.000286299
0.000273847
0.000266049
0.000260783
0.000256941
0.000253973
0.00025158
0.000249592
0.000247905
0.000246449
0.000245176
0.000244051
0.000243048
0.000242148
0.000241334
0.000240596
0.000239922
0.000239306
0.000238739
0.000238217
0.000237735
0.000237288
0.000236874
0.000236489
0.000236131
0.000235797
0.000235485
0.000235194
0.000234922
0.000234667
0.000234429
0.000234206
0.000233997
0.000233801
0.000233617
0.000233445
0.000233284
0.000233132
0.000232991
0.000232858
0.000232734
0.000232618
0.00023251
0.000232409
0.000232315
0.000232227
0.000232146
0.00023207
0.000232001
0.000231936
0.000231877
0.000231823
0.000231773
0.000231728
0.000231687
0.000231651
0.000231618
0.000231589
0.000231564
0.000231542
0.000231524
0.000231508
0.000231496
0.000231487
0.00023148
0.000231476
0.000231475
0.000231476
0.000231479
0.000231484
0.000231492
0.000231501
0.000231513
0.000231526
0.000231541
0.000231558
0.000231577
0.000231597
0.00023162
0.000231643
0.000231669
0.000231696
0.000231725
0.000231756
0.000231788
0.000231822
0.000231857
0.000231895
0.000231934
0.000231974
0.000232017
0.000232061
0.000232106
0.000232154
0.000232203
0.000232253
0.000232306
0.00023236
0.000232415
0.000232472
0.00023253
0.00023259
0.000232651
0.000232713
0.000232777
0.000232842
0.000232908
0.000232974
0.000233042
0.000233111
0.00023318
0.00023325
0.00023332
0.000233391
0.000233462
0.000233533
0.000233604
0.000233675
0.000233746
0.000233816
0.000233884
0.000233953
0.000562815
0.000740638
0.000767571
0.000767651
0.000763096
0.000757975
0.000753148
0.000748779
0.000744861
0.00074135
0.000738193
0.000735345
0.000732764
0.000730416
0.000728271
0.000726307
0.000724501
0.000722838
0.000721301
0.000719879
0.00071856
0.000717334
0.000716194
0.000715131
0.00071414
0.000713215
0.00071235
0.000711541
0.000710784
0.000710076
0.000709412
0.00070879
0.000708208
0.000707662
0.000707151
0.000706672
0.000706223
0.000705803
0.000705411
0.000705044
0.000704701
0.000704381
0.000704083
0.000703806
0.000703548
0.000703309
0.000703088
0.000702884
0.000702696
0.000702525
0.000702368
0.000702225
0.000702096
0.000701981
0.000701878
0.000701788
0.00070171
0.000701642
0.000701586
0.00070154
0.000701504
0.000701477
0.000701458
0.000701448
0.000701444
0.000701448
0.000701458
0.000701473
0.000701493
0.000701518
0.000701547
0.000701579
0.000701616
0.000701655
0.000701698
0.000701744
0.000701792
0.000701844
0.000701899
0.000701957
0.000702018
0.000702084
0.000702153
0.000702227
0.000702305
0.000702388
0.000702477
0.000702572
0.000702673
0.00070278
0.000702895
0.000703016
0.000703146
0.000703283
0.000703429
0.000703583
0.000703746
0.000703918
0.000704099
0.000704289
0.000704489
0.000704697
0.000704915
0.000705142
0.000705379
0.000705624
0.000705878
0.000706141
0.000706412
0.000706692
0.000706979
0.000707273
0.000707575
0.000707883
0.000708197
0.000708517
0.000708842
0.000709171
0.000709504
0.00070984
0.000710179
0.000710505
0.00076108
0.00115457
0.00127125
0.00130573
0.00131552
0.00131688
0.00131508
0.00131204
0.00130855
0.00130497
0.00130147
0.00129811
0.00129493
0.00129193
0.00128913
0.0012865
0.00128405
0.00128176
0.00127961
0.00127761
0.00127574
0.00127398
0.00127234
0.0012708
0.00126936
0.00126801
0.00126674
0.00126555
0.00126444
0.0012634
0.00126242
0.0012615
0.00126064
0.00125983
0.00125908
0.00125837
0.00125772
0.0012571
0.00125652
0.00125599
0.00125549
0.00125502
0.00125459
0.0012542
0.00125383
0.00125349
0.00125318
0.0012529
0.00125264
0.00125241
0.0012522
0.00125201
0.00125185
0.00125171
0.00125159
0.00125149
0.00125141
0.00125134
0.0012513
0.00125127
0.00125126
0.00125126
0.00125127
0.0012513
0.00125133
0.00125138
0.00125143
0.00125149
0.00125155
0.00125161
0.00125168
0.00125175
0.00125183
0.0012519
0.00125197
0.00125205
0.00125213
0.0012522
0.00125228
0.00125237
0.00125245
0.00125254
0.00125264
0.00125275
0.00125286
0.00125298
0.00125311
0.00125326
0.00125342
0.0012536
0.00125379
0.001254
0.00125423
0.00125447
0.00125474
0.00125504
0.00125535
0.00125569
0.00125605
0.00125644
0.00125686
0.0012573
0.00125776
0.00125825
0.00125877
0.00125931
0.00125988
0.00126047
0.00126109
0.00126173
0.00126239
0.00126307
0.00126378
0.00126451
0.00126525
0.00126602
0.00126679
0.00126759
0.0012684
0.00126921
0.00127005
0.00127084
0.00094219
0.00154866
0.00180331
0.00190635
0.0019512
0.00197187
0.00198147
0.00198555
0.00198668
0.00198617
0.00198472
0.00198276
0.00198051
0.00197813
0.00197571
0.00197331
0.00197095
0.00196867
0.00196648
0.00196438
0.00196238
0.00196047
0.00195867
0.00195695
0.00195534
0.00195381
0.00195237
0.00195101
0.00194973
0.00194852
0.00194739
0.00194633
0.00194534
0.0019444
0.00194353
0.00194272
0.00194196
0.00194125
0.0019406
0.00193999
0.00193943
0.00193891
0.00193844
0.00193801
0.00193761
0.00193725
0.00193693
0.00193665
0.00193639
0.00193617
0.00193598
0.00193583
0.0019357
0.0019356
0.00193553
0.00193549
0.00193547
0.00193548
0.00193551
0.00193557
0.00193564
0.00193574
0.00193585
0.00193597
0.0019361
0.00193625
0.0019364
0.00193655
0.0019367
0.00193686
0.00193701
0.00193715
0.0019373
0.00193744
0.00193757
0.0019377
0.00193783
0.00193795
0.00193807
0.0019382
0.00193832
0.00193845
0.00193859
0.00193873
0.00193889
0.00193907
0.00193926
0.00193948
0.00193972
0.00193999
0.00194029
0.00194063
0.001941
0.00194141
0.00194186
0.00194236
0.0019429
0.00194349
0.00194412
0.0019448
0.00194554
0.00194632
0.00194716
0.00194805
0.00194899
0.00194998
0.00195102
0.00195212
0.00195326
0.00195445
0.00195568
0.00195696
0.00195829
0.00195965
0.00196105
0.00196249
0.00196396
0.00196546
0.00196699
0.00196854
0.00197012
0.00197163
0.00110978
0.00189233
0.00232606
0.0025368
0.00264438
0.00270313
0.00273713
0.00275765
0.00277031
0.00277817
0.00278296
0.00278574
0.00278718
0.00278769
0.00278758
0.00278703
0.00278618
0.00278514
0.00278397
0.00278273
0.00278144
0.00278014
0.00277885
0.00277758
0.00277634
0.00277515
0.002774
0.0027729
0.00277185
0.00277085
0.00276991
0.00276903
0.0027682
0.00276742
0.00276669
0.00276602
0.0027654
0.00276483
0.00276431
0.00276383
0.0027634
0.00276302
0.00276268
0.00276238
0.00276212
0.0027619
0.00276172
0.00276158
0.00276148
0.00276141
0.00276137
0.00276138
0.00276141
0.00276148
0.00276159
0.00276173
0.00276189
0.00276209
0.00276232
0.00276257
0.00276284
0.00276314
0.00276345
0.00276378
0.00276411
0.00276445
0.00276479
0.00276513
0.00276546
0.00276578
0.00276609
0.00276639
0.00276667
0.00276694
0.00276719
0.00276743
0.00276766
0.00276787
0.00276807
0.00276828
0.00276847
0.00276868
0.00276889
0.00276911
0.00276935
0.00276961
0.00276991
0.00277023
0.0027706
0.00277101
0.00277147
0.00277198
0.00277256
0.0027732
0.00277391
0.00277468
0.00277554
0.00277647
0.00277748
0.00277857
0.00277975
0.00278102
0.00278237
0.00278381
0.00278533
0.00278695
0.00278864
0.00279042
0.00279229
0.00279424
0.00279626
0.00279836
0.00280053
0.00280277
0.00280508
0.00280744
0.00280986
0.00281234
0.00281485
0.0028174
0.00282001
0.00282249
0.00129926
0.00216764
0.00280717
0.00316585
0.00336954
0.00349116
0.00356775
0.00361825
0.00365279
0.00367709
0.00369457
0.00370734
0.00371679
0.00372385
0.00372913
0.0037331
0.00373607
0.00373829
0.00373993
0.00374111
0.00374196
0.00374253
0.0037429
0.00374312
0.00374321
0.00374322
0.00374316
0.00374305
0.00374292
0.00374276
0.0037426
0.00374244
0.00374229
0.00374216
0.00374204
0.00374194
0.00374186
0.00374181
0.00374179
0.00374179
0.00374183
0.00374189
0.00374199
0.00374211
0.00374227
0.00374246
0.00374268
0.00374293
0.00374322
0.00374353
0.00374388
0.00374426
0.00374468
0.00374512
0.0037456
0.00374611
0.00374666
0.00374723
0.00374784
0.00374846
0.00374911
0.00374978
0.00375046
0.00375115
0.00375185
0.00375254
0.00375322
0.00375389
0.00375454
0.00375516
0.00375575
0.00375632
0.00375686
0.00375736
0.00375783
0.00375827
0.00375868
0.00375907
0.00375944
0.00375979
0.00376014
0.00376048
0.00376082
0.00376118
0.00376156
0.00376198
0.00376243
0.00376292
0.00376347
0.00376409
0.00376478
0.00376555
0.00376641
0.00376736
0.00376841
0.00376957
0.00377085
0.00377224
0.00377375
0.00377539
0.00377715
0.00377905
0.00378108
0.00378324
0.00378553
0.00378795
0.00379051
0.00379319
0.003796
0.00379894
0.00380199
0.00380516
0.00380845
0.00381183
0.00381531
0.00381889
0.00382255
0.00382629
0.0038301
0.00383396
0.00383791
0.00384166
0.00158937
0.00236976
0.00321596
0.00375923
0.00409609
0.00431112
0.00445413
0.00455312
0.00462407
0.00467641
0.00471597
0.00474649
0.00477044
0.00478951
0.00480489
0.00481744
0.00482777
0.00483636
0.00484356
0.00484964
0.00485482
0.00485926
0.00486309
0.00486643
0.00486936
0.00487194
0.00487424
0.0048763
0.00487817
0.00487987
0.00488143
0.00488288
0.00488423
0.00488551
0.00488673
0.00488789
0.00488901
0.0048901
0.00489116
0.0048922
0.00489323
0.00489425
0.00489527
0.00489628
0.0048973
0.00489832
0.00489935
0.00490039
0.00490144
0.00490251
0.00490359
0.00490469
0.00490581
0.00490696
0.00490813
0.00490932
0.00491053
0.00491177
0.00491303
0.00491431
0.00491561
0.00491691
0.00491822
0.00491952
0.00492081
0.00492209
0.00492334
0.00492456
0.00492574
0.00492687
0.00492795
0.00492897
0.00492994
0.00493084
0.0049317
0.00493249
0.00493324
0.00493394
0.0049346
0.00493523
0.00493583
0.00493642
0.00493701
0.00493761
0.00493823
0.00493888
0.00493958
0.00494034
0.00494118
0.0049421
0.00494311
0.00494424
0.00494548
0.00494686
0.00494838
0.00495005
0.00495187
0.00495386
0.00495602
0.00495836
0.00496088
0.00496359
0.00496648
0.00496956
0.00497283
0.0049763
0.00497994
0.00498378
0.00498779
0.00499198
0.00499635
0.00500088
0.00500557
0.00501041
0.0050154
0.00502051
0.00502575
0.00503111
0.00503656
0.00504209
0.00504773
0.00505311
0.00212976
0.00251869
0.00352583
0.00427893
0.00478634
0.00512981
0.00536872
0.00554022
0.00566706
0.00576335
0.00583815
0.00589739
0.00594512
0.00598413
0.00601645
0.00604352
0.00606643
0.00608601
0.00610287
0.00611753
0.00613035
0.00614164
0.00615166
0.00616061
0.00616864
0.00617589
0.00618248
0.00618849
0.00619402
0.00619911
0.00620384
0.00620825
0.00621238
0.00621626
0.00621993
0.00622341
0.00622673
0.0062299
0.00623295
0.00623588
0.00623872
0.00624147
0.00624415
0.00624677
0.00624932
0.00625183
0.00625429
0.00625672
0.00625912
0.00626149
0.00626384
0.00626619
0.00626852
0.00627085
0.00627317
0.0062755
0.00627784
0.00628017
0.00628251
0.00628485
0.00628719
0.00628952
0.00629183
0.00629411
0.00629637
0.00629858
0.00630074
0.00630284
0.00630487
0.00630681
0.00630867
0.00631043
0.0063121
0.00631368
0.00631516
0.00631655
0.00631785
0.00631908
0.00632023
0.00632133
0.00632238
0.00632339
0.00632439
0.00632539
0.0063264
0.00632745
0.00632855
0.00632972
0.00633098
0.00633234
0.00633383
0.00633545
0.00633723
0.00633919
0.00634133
0.00634366
0.00634621
0.00634898
0.00635198
0.00635521
0.0063587
0.00636243
0.00636642
0.00637066
0.00637517
0.00637993
0.00638495
0.00639022
0.00639574
0.00640151
0.00640752
0.00641375
0.00642021
0.00642687
0.00643373
0.00644078
0.006448
0.00645537
0.00646288
0.00647051
0.00647829
0.0064857
0.0031541
0.00268382
0.00372393
0.00468584
0.00539542
0.00590413
0.00627311
0.00654666
0.00675434
0.00691556
0.00704326
0.00714624
0.00723059
0.00730064
0.00735953
0.00740959
0.00745254
0.00748974
0.00752221
0.00755076
0.00757604
0.00759856
0.00761874
0.00763694
0.00765342
0.00766843
0.00768215
0.00769477
0.00770641
0.0077172
0.00772723
0.0077366
0.00774539
0.00775365
0.00776144
0.00776882
0.00777583
0.0077825
0.00778888
0.00779499
0.00780085
0.00780649
0.00781194
0.00781721
0.00782232
0.00782728
0.00783211
0.00783682
0.00784143
0.00784594
0.00785036
0.00785472
0.007859
0.00786324
0.00786742
0.00787157
0.00787567
0.00787974
0.00788378
0.00788779
0.00789175
0.00789567
0.00789954
0.00790336
0.0079071
0.00791075
0.00791432
0.00791778
0.00792112
0.00792433
0.0079274
0.00793033
0.00793311
0.00793574
0.00793823
0.00794057
0.00794278
0.00794486
0.00794682
0.00794868
0.00795046
0.00795218
0.00795385
0.0079555
0.00795715
0.00795882
0.00796055
0.00796234
0.00796424
0.00796626
0.00796843
0.00797077
0.0079733
0.00797604
0.00797902
0.00798225
0.00798575
0.00798953
0.0079936
0.00799799
0.0080027
0.00800774
0.0080131
0.00801881
0.00802486
0.00803125
0.00803797
0.00804503
0.00805243
0.00806015
0.00806818
0.00807653
0.00808517
0.00809409
0.00810327
0.0081127
0.00812236
0.00813224
0.0081423
0.00815252
0.00816294
0.00817289
0.00493181
0.00302612
0.0038337
0.00494834
0.00587406
0.00658116
0.00711649
0.00752622
0.00784508
0.00809766
0.00830115
0.00846767
0.00860586
0.00872199
0.00882068
0.0089054
0.00897879
0.0090429
0.00909931
0.00914929
0.00919386
0.00923384
0.00926988
0.00930254
0.00933229
0.00935949
0.00938448
0.00940751
0.00942883
0.00944864
0.00946709
0.00948435
0.00950053
0.00951576
0.00953012
0.0095437
0.00955658
0.00956883
0.0095805
0.00959165
0.00960232
0.00961255
0.00962239
0.00963187
0.00964101
0.00964985
0.00965841
0.00966672
0.00967479
0.00968265
0.00969032
0.00969781
0.00970514
0.00971233
0.00971939
0.00972633
0.00973317
0.0097399
0.00974653
0.00975307
0.00975952
0.00976586
0.00977209
0.00977821
0.0097842
0.00979004
0.00979573
0.00980125
0.00980659
0.00981172
0.00981664
0.00982135
0.00982583
0.0098301
0.00983414
0.00983797
0.00984159
0.00984501
0.00984826
0.00985134
0.00985429
0.00985712
0.00985986
0.00986255
0.00986521
0.00986787
0.00987056
0.00987333
0.00987619
0.00987919
0.00988236
0.00988572
0.00988931
0.00989315
0.00989727
0.00990171
0.00990647
0.00991159
0.00991707
0.00992294
0.00992922
0.0099359
0.00994301
0.00995055
0.00995853
0.00996694
0.00997578
0.00998506
0.00999476
0.0100049
0.0100154
0.0100264
0.0100377
0.0100493
0.0100614
0.0100737
0.0100864
0.0100993
0.0101125
0.0101259
0.0101395
0.0101526
0.00765447
0.00384129
0.0039599
0.0050637
0.00617752
0.00710148
0.0078361
0.00841791
0.00888249
0.00925803
0.00956562
0.00982082
0.0100351
0.0102171
0.0103732
0.0105082
0.0106262
0.0107298
0.0108217
0.0109035
0.0109768
0.0110429
0.0111028
0.0111573
0.011207
0.0112527
0.0112948
0.0113337
0.0113697
0.0114033
0.0114346
0.0114639
0.0114914
0.0115173
0.0115417
0.0115648
0.0115867
0.0116075
0.0116273
0.0116462
0.0116642
0.0116815
0.0116981
0.011714
0.0117293
0.0117441
0.0117583
0.0117721
0.0117855
0.0117984
0.011811
0.0118233
0.0118352
0.0118469
0.0118583
0.0118694
0.0118804
0.0118911
0.0119016
0.011912
0.0119221
0.011932
0.0119418
0.0119513
0.0119606
0.0119697
0.0119786
0.0119871
0.0119954
0.0120034
0.0120111
0.0120185
0.0120256
0.0120323
0.0120387
0.0120448
0.0120506
0.0120561
0.0120613
0.0120663
0.012071
0.0120756
0.01208
0.0120844
0.0120886
0.0120928
0.012097
0.0121012
0.0121055
0.01211
0.0121146
0.0121195
0.0121246
0.01213
0.0121357
0.0121418
0.0121482
0.0121551
0.0121625
0.0121703
0.0121786
0.0121874
0.0121967
0.0122065
0.0122169
0.0122278
0.0122393
0.0122513
0.0122638
0.0122769
0.0122905
0.0123046
0.0123192
0.0123342
0.0123497
0.0123656
0.0123818
0.0123985
0.0124154
0.0124327
0.0124502
0.012467
0.0113266
0.00551803
0.00435849
0.00510578
0.00628855
0.00740978
0.00836168
0.0091471
0.00979278
0.0103264
0.0107711
0.0111453
0.0114634
0.0117362
0.0119723
0.0121782
0.0123592
0.0125193
0.0126619
0.0127896
0.0129046
0.0130086
0.0131032
0.0131896
0.0132687
0.0133415
0.0134088
0.0134711
0.0135289
0.0135829
0.0136333
0.0136805
0.0137248
0.0137666
0.013806
0.0138433
0.0138786
0.0139122
0.0139441
0.0139745
0.0140036
0.0140313
0.014058
0.0140835
0.014108
0.0141317
0.0141544
0.0141764
0.0141976
0.0142182
0.0142381
0.0142574
0.0142762
0.0142945
0.0143123
0.0143297
0.0143467
0.0143633
0.0143795
0.0143954
0.014411
0.0144262
0.0144411
0.0144556
0.0144698
0.0144836
0.0144971
0.0145101
0.0145228
0.014535
0.0145468
0.0145581
0.014569
0.0145793
0.0145893
0.0145988
0.0146078
0.0146164
0.0146247
0.0146325
0.0146401
0.0146473
0.0146543
0.0146611
0.0146678
0.0146743
0.0146808
0.0146872
0.0146938
0.0147004
0.0147072
0.0147142
0.0147215
0.0147291
0.014737
0.0147454
0.0147542
0.0147635
0.0147733
0.0147836
0.0147945
0.014806
0.0148182
0.0148309
0.0148444
0.0148584
0.0148731
0.0148885
0.0149046
0.0149212
0.0149385
0.0149564
0.014975
0.0149941
0.0150137
0.0150338
0.0150544
0.0150755
0.015097
0.0151188
0.015141
0.0151623
0.0157248
0.0083437
0.00547916
0.00531275
0.00627167
0.00748282
0.00862975
0.00963244
0.0104877
0.0112134
0.0118305
0.0123582
0.0128125
0.0132064
0.0135503
0.0138528
0.0141205
0.0143588
0.0145721
0.0147641
0.0149377
0.0150955
0.0152394
0.0153712
0.0154923
0.0156041
0.0157075
0.0158035
0.0158929
0.0159763
0.0160543
0.0161275
0.0161964
0.0162612
0.0163225
0.0163804
0.0164354
0.0164875
0.0165372
0.0165845
0.0166296
0.0166728
0.0167141
0.0167537
0.0167918
0.0168283
0.0168635
0.0168975
0.0169302
0.0169618
0.0169925
0.0170221
0.0170509
0.0170788
0.017106
0.0171325
0.0171583
0.0171834
0.0172079
0.0172319
0.0172553
0.0172781
0.0173005
0.0173222
0.0173435
0.0173641
0.0173843
0.0174038
0.0174228
0.0174411
0.0174588
0.0174758
0.0174923
0.017508
0.0175231
0.0175376
0.0175515
0.0175648
0.0175775
0.0175897
0.0176014
0.0176127
0.0176235
0.0176341
0.0176443
0.0176544
0.0176643
0.0176741
0.0176839
0.0176938
0.0177038
0.0177139
0.0177244
0.0177351
0.0177462
0.0177577
0.0177697
0.0177823
0.0177954
0.0178091
0.0178235
0.0178385
0.0178543
0.0178708
0.017888
0.017906
0.0179248
0.0179444
0.0179647
0.0179858
0.0180076
0.0180302
0.0180534
0.0180774
0.018102
0.0181272
0.018153
0.0181794
0.0182062
0.0182334
0.0182611
0.0182877
0.0204365
0.0122987
0.00781877
0.0061763
0.00638132
0.00739745
0.00862145
0.00980678
0.0108762
0.0118169
0.0126375
0.0133529
0.0139782
0.0145273
0.0150118
0.0154416
0.0158248
0.0161683
0.0164775
0.0167573
0.0170115
0.0172433
0.0174556
0.0176506
0.0178304
0.0179968
0.018151
0.0182945
0.0184284
0.0185535
0.0186708
0.018781
0.0188847
0.0189825
0.0190749
0.0191624
0.0192454
0.0193243
0.0193994
0.0194709
0.0195391
0.0196044
0.0196669
0.0197267
0.0197842
0.0198394
0.0198925
0.0199436
0.0199929
0.0200406
0.0200866
0.0201311
0.0201743
0.0202161
0.0202567
0.0202962
0.0203346
0.020372
0.0204084
0.0204439
0.0204786
0.0205123
0.0205453
0.0205774
0.0206087
0.0206392
0.0206688
0.0206976
0.0207256
0.0207527
0.0207789
0.0208042
0.0208287
0.0208522
0.0208749
0.0208966
0.0209175
0.0209376
0.0209569
0.0209755
0.0209933
0.0210105
0.0210272
0.0210433
0.0210589
0.0210742
0.0210892
0.021104
0.0211186
0.0211332
0.0211479
0.0211626
0.0211776
0.0211928
0.0212083
0.0212243
0.0212408
0.0212578
0.0212754
0.0212937
0.0213126
0.0213324
0.0213529
0.0213742
0.0213963
0.0214193
0.0214432
0.021468
0.0214936
0.0215201
0.0215475
0.0215757
0.0216047
0.0216345
0.021665
0.0216963
0.0217283
0.0217608
0.021794
0.0218276
0.0218617
0.0218945
0.024966
0.017029
0.011559
0.0083344
0.00718515
0.00746836
0.008455
0.00967289
0.0108973
0.0120408
0.0130773
0.0140053
0.014833
0.0155712
0.0162309
0.0168222
0.0173542
0.0178345
0.01827
0.0186661
0.0190279
0.0193593
0.0196641
0.0199451
0.020205
0.0204461
0.0206704
0.0208795
0.0210749
0.021258
0.0214298
0.0215915
0.0217439
0.0218879
0.022024
0.0221531
0.0222755
0.022392
0.0225028
0.0226086
0.0227095
0.022806
0.0228984
0.0229869
0.0230718
0.0231535
0.023232
0.0233075
0.0233804
0.0234507
0.0235186
0.0235842
0.0236478
0.0237093
0.023769
0.023827
0.0238833
0.0239381
0.0239914
0.0240432
0.0240938
0.024143
0.024191
0.0242378
0.0242833
0.0243277
0.0243708
0.0244128
0.0244536
0.0244931
0.0245314
0.0245685
0.0246044
0.024639
0.0246725
0.0247047
0.0247358
0.0247657
0.0247945
0.0248223
0.0248491
0.024875
0.0249
0.0249242
0.0249478
0.0249707
0.0249932
0.0250152
0.0250369
0.0250584
0.0250798
0.0251012
0.0251227
0.0251443
0.0251662
0.0251884
0.0252111
0.0252343
0.0252581
0.0252825
0.0253077
0.0253336
0.0253604
0.025388
0.0254165
0.0254459
0.0254762
0.0255075
0.0255398
0.025573
0.0256072
0.0256423
0.0256783
0.0257152
0.0257529
0.0257914
0.0258306
0.0258706
0.0259111
0.0259522
0.0259939
0.0260339
0.0288721
0.0219727
0.0163572
0.0121026
0.00944208
0.00839318
0.00856599
0.00943681
0.0106072
0.0118514
0.0130626
0.0141965
0.0152393
0.0161903
0.0170549
0.0178406
0.0185555
0.0192071
0.0198026
0.0203481
0.0208492
0.0213109
0.0217373
0.0221321
0.0224988
0.02284
0.0231583
0.0234559
0.0237348
0.0239966
0.024243
0.0244751
0.0246943
0.0249016
0.025098
0.0252843
0.0254613
0.0256298
0.0257904
0.0259436
0.0260899
0.0262299
0.026364
0.0264925
0.0266158
0.0267344
0.0268484
0.0269582
0.027064
0.027166
0.0272646
0.0273598
0.027452
0.0275412
0.0276277
0.0277116
0.027793
0.0278722
0.0279491
0.028024
0.0280968
0.0281678
0.0282369
0.0283042
0.0283697
0.0284335
0.0284956
0.028556
0.0286148
0.0286718
0.0287272
0.0287809
0.0288329
0.0288833
0.028932
0.0289791
0.0290246
0.0290685
0.029111
0.029152
0.0291916
0.0292299
0.0292671
0.029303
0.029338
0.029372
0.0294052
0.0294378
0.0294697
0.0295012
0.0295323
0.0295632
0.0295939
0.0296247
0.0296556
0.0296866
0.029718
0.0297498
0.0297821
0.029815
0.0298486
0.0298829
0.0299179
0.0299539
0.0299907
0.0300284
0.0300671
0.0301068
0.0301475
0.0301891
0.0302318
0.0302754
0.03032
0.0303655
0.0304118
0.030459
0.030507
0.0305557
0.0306051
0.0306549
0.0307055
0.0307539
0.0318859
0.0265354
0.0215162
0.0170871
0.0134893
0.0110289
0.00983786
0.0097379
0.0103766
0.011418
0.0126294
0.0138773
0.0150935
0.0162465
0.0173241
0.0183239
0.0192482
0.0201018
0.0208901
0.0216189
0.0222936
0.0229193
0.0235006
0.0240417
0.0245463
0.025018
0.0254596
0.0258739
0.0262632
0.0266297
0.0269754
0.0273019
0.0276108
0.0279035
0.0281812
0.0284451
0.0286963
0.0289355
0.0291638
0.0293818
0.0295903
0.0297899
0.0299812
0.0301646
0.0303409
0.0305102
0.0306732
0.0308302
0.0309815
0.0311274
0.0312684
0.0314046
0.0315364
0.031664
0.0317876
0.0319075
0.0320238
0.0321368
0.0322465
0.0323533
0.0324571
0.0325582
0.0326566
0.0327524
0.0328457
0.0329366
0.033025
0.0331111
0.0331949
0.0332763
0.0333555
0.0334324
0.033507
0.0335793
0.0336494
0.0337174
0.0337832
0.0338469
0.0339086
0.0339683
0.0340261
0.0340822
0.0341365
0.0341892
0.0342404
0.0342903
0.0343389
0.0343864
0.0344329
0.0344786
0.0345236
0.034568
0.034612
0.0346557
0.0346993
0.0347428
0.0347864
0.0348302
0.0348743
0.0349188
0.0349638
0.0350095
0.0350558
0.0351028
0.0351507
0.0351994
0.035249
0.0352995
0.035351
0.0354034
0.0354568
0.0355111
0.0355663
0.0356224
0.0356794
0.0357372
0.0357957
0.0358549
0.0359148
0.0359751
0.036036
0.0360944
0.0339568
0.0302574
0.0262964
0.0224018
0.0187493
0.0155657
0.0131348
0.01166
0.0111401
0.0113925
0.0121663
0.0132379
0.014448
0.0156984
0.0169334
0.0181236
0.0192548
0.0203216
0.0213231
0.0222613
0.0231394
0.0239613
0.0247308
0.0254521
0.0261288
0.0267645
0.0273626
0.027926
0.0284574
0.0289594
0.0294343
0.0298842
0.0303109
0.0307161
0.0311014
0.0314683
0.0318181
0.0321518
0.0324707
0.0327757
0.0330677
0.0333475
0.033616
0.0338738
0.0341215
0.0343599
0.0345893
0.0348105
0.0350237
0.0352295
0.0354284
0.0356206
0.0358065
0.0359866
0.0361611
0.0363302
0.0364944
0.0366537
0.0368086
0.0369591
0.0371055
0.037248
0.0373867
0.0375217
0.0376532
0.0377813
0.037906
0.0380275
0.0381458
0.0382608
0.0383728
0.0384817
0.0385876
0.0386904
0.0387902
0.0388871
0.0389812
0.0390725
0.039161
0.0392469
0.0393302
0.039411
0.0394895
0.0395657
0.0396399
0.0397121
0.0397824
0.0398511
0.0399183
0.0399841
0.0400487
0.0401122
0.0401749
0.0402368
0.0402982
0.0403591
0.0404197
0.0404802
0.0405407
0.0406013
0.0406621
0.0407232
0.0407848
0.0408469
0.0409095
0.0409728
0.0410369
0.0411016
0.0411672
0.0412335
0.0413006
0.0413686
0.0414373
0.0415068
0.0415769
0.0416478
0.0417193
0.0417913
0.0418639
0.0419367
0.0420101
0.0420804
0.0352156
0.0329264
0.0301548
0.0271692
0.0241079
0.0210828
0.0182539
0.0158401
0.0140585
0.0130304
0.012737
0.0130508
0.0138009
0.0148263
0.0160022
0.0172434
0.018496
0.0197278
0.0209204
0.0220639
0.0231539
0.024189
0.0251701
0.026099
0.026978
0.0278099
0.0285976
0.0293438
0.0300513
0.0307226
0.0313602
0.0319664
0.0325433
0.0330929
0.0336169
0.0341171
0.0345949
0.035052
0.0354894
0.0359086
0.0363106
0.0366964
0.0370671
0.0374235
0.0377664
0.0380966
0.0384149
0.0387218
0.0390181
0.0393043
0.0395809
0.0398484
0.0401074
0.0403582
0.0406014
0.0408372
0.041066
0.0412882
0.0415042
0.0417141
0.0419183
0.042117
0.0423105
0.0424989
0.0426824
0.0428611
0.0430353
0.0432049
0.0433702
0.0435313
0.0436881
0.0438408
0.0439894
0.044134
0.0442746
0.0444113
0.0445442
0.0446734
0.044799
0.044921
0.0450396
0.0451548
0.0452669
0.0453759
0.0454819
0.0455852
0.0456859
0.0457842
0.0458802
0.0459741
0.0460661
0.0461564
0.0462452
0.0463326
0.0464188
0.046504
0.0465883
0.046672
0.0467551
0.0468379
0.0469204
0.0470028
0.0470851
0.0471676
0.0472503
0.0473333
0.0474166
0.0475003
0.0475844
0.047669
0.0477541
0.0478397
0.0479257
0.0480123
0.0480992
0.0481865
0.0482742
0.0483621
0.0484503
0.0485385
0.048627
0.0487117
0.0358864
0.034593
0.0328633
0.0308401
0.0286213
0.0262674
0.0238358
0.0214144
0.0191386
0.0171788
0.0156958
0.0147878
0.0144645
0.0146593
0.0152639
0.0161609
0.0172464
0.01844
0.0196844
0.0209414
0.0221859
0.0234025
0.0245816
0.025718
0.0268092
0.0278544
0.0288542
0.0298096
0.0307222
0.0315939
0.0324266
0.0332223
0.0339831
0.0347108
0.0354074
0.0360745
0.0367138
0.037327
0.0379154
0.0384806
0.0390239
0.0395463
0.0400492
0.0405335
0.0410003
0.0414505
0.0418849
0.0423045
0.0427099
0.043102
0.0434813
0.0438485
0.0442042
0.044549
0.0448834
0.0452079
0.045523
0.0458291
0.0461267
0.0464161
0.0466977
0.0469718
0.0472387
0.0474987
0.047752
0.047999
0.0482396
0.0484743
0.048703
0.048926
0.0491434
0.0493553
0.0495618
0.049763
0.049959
0.0501498
0.0503355
0.0505164
0.0506924
0.0508638
0.0510305
0.0511929
0.051351
0.0515049
0.0516548
0.051801
0.0519435
0.0520826
0.0522184
0.0523512
0.0524812
0.0526085
0.0527334
0.052856
0.0529766
0.0530954
0.0532125
0.0533282
0.0534426
0.0535558
0.0536681
0.0537796
0.0538905
0.0540007
0.0541106
0.0542201
0.0543293
0.0544384
0.0545473
0.0546562
0.0547649
0.0548737
0.0549823
0.055091
0.0551995
0.0553079
0.0554162
0.0555243
0.055632
0.0557393
0.0558466
0.0559492
0.0361963
0.0354884
0.0345011
0.0332718
0.0318469
0.0302605
0.0285351
0.0266917
0.024764
0.0228124
0.0209309
0.0192398
0.0178631
0.0168966
0.0163857
0.0163216
0.0166534
0.0173069
0.0182017
0.0192644
0.020434
0.0216643
0.0229216
0.0241827
0.0254314
0.0266568
0.0278519
0.0290123
0.0301354
0.0312203
0.0322666
0.0332747
0.0342455
0.03518
0.0360794
0.0369452
0.0377787
0.0385814
0.0393546
0.0400998
0.0408181
0.041511
0.0421797
0.0428252
0.0434487
0.0440513
0.0446339
0.0451976
0.0457432
0.0462716
0.0467835
0.0472797
0.047761
0.0482281
0.0486815
0.0491219
0.0495499
0.0499661
0.0503709
0.0507648
0.0511483
0.0515219
0.0518859
0.0522406
0.0525865
0.0529238
0.0532528
0.0535737
0.0538868
0.0541924
0.0544905
0.0547814
0.0550652
0.055342
0.0556121
0.0558754
0.0561322
0.0563825
0.0566264
0.0568643
0.0570961
0.0573221
0.0575425
0.0577573
0.0579668
0.0581712
0.0583706
0.0585654
0.0587556
0.0589415
0.0591233
0.0593012
0.0594756
0.0596465
0.0598143
0.059979
0.0601411
0.0603006
0.0604577
0.0606127
0.0607657
0.0609169
0.0610665
0.0612145
0.0613612
0.0615066
0.0616509
0.061794
0.0619362
0.0620774
0.0622177
0.0623571
0.0624956
0.0626332
0.06277
0.0629058
0.0630407
0.0631746
0.0633074
0.0634391
0.0635699
0.0636953
0.0363185
0.0358964
0.035342
0.0346443
0.0338099
0.0328502
0.0317745
0.0305881
0.0292942
0.0278982
0.0264145
0.0248739
0.0233287
0.0218531
0.0205352
0.0194615
0.0187
0.018288
0.0182293
0.0184992
0.0190539
0.0198402
0.020804
0.0218958
0.0230737
0.0243048
0.0255638
0.0268322
0.0280965
0.0293469
0.0305766
0.0317807
0.0329559
0.0341003
0.0352127
0.0362927
0.0373403
0.0383559
0.03934
0.0402934
0.041217
0.0421116
0.0429782
0.0438179
0.0446317
0.0454205
0.0461853
0.0469271
0.0476468
0.0483453
0.0490235
0.0496821
0.050322
0.0509439
0.0515487
0.0521369
0.0527092
0.0532664
0.053809
0.0543376
0.0548528
0.055355
0.0558447
0.0563225
0.0567886
0.0572436
0.0576878
0.0581215
0.058545
0.0589586
0.0593626
0.0597572
0.0601427
0.0605192
0.0608869
0.061246
0.0615966
0.061939
0.0622732
0.0625993
0.0629176
0.0632284
0.0635319
0.0638281
0.0641173
0.0643997
0.0646755
0.064945
0.0652083
0.0654657
0.0657175
0.0659639
0.0662051
0.0664413
0.0666729
0.0669
0.0671228
0.0673417
0.0675568
0.0677684
0.0679765
0.0681815
0.0683834
0.0685826
0.068779
0.0689728
0.0691641
0.0693531
0.0695398
0.0697243
0.0699066
0.0700867
0.0702648
0.0704408
0.0706147
0.0707866
0.0709562
0.0711238
0.0712892
0.0714522
0.0716135
0.0717681
0.0363591
0.0360515
0.0357024
0.0352937
0.0348163
0.0342669
0.0336458
0.0329534
0.032189
0.0313505
0.0304344
0.0294384
0.0283636
0.0272185
0.0260225
0.0248094
0.0236274
0.0225355
0.0215963
0.0208663
0.020387
0.0201807
0.0202495
0.0205783
0.0211397
0.021899
0.0228189
0.0238634
0.0249997
0.0262001
0.0274421
0.0287078
0.0299836
0.0312592
0.0325266
0.0337799
0.0350147
0.0362278
0.0374167
0.0385799
0.0397163
0.0408256
0.0419075
0.0429622
0.0439899
0.044991
0.045966
0.0469155
0.0478402
0.0487406
0.0496175
0.0504716
0.0513037
0.0521144
0.0529044
0.0536746
0.0544255
0.0551578
0.0558721
0.0565692
0.0572495
0.0579136
0.0585621
0.0591955
0.0598143
0.060419
0.06101
0.0615877
0.0621525
0.0627048
0.0632449
0.0637731
0.0642897
0.0647949
0.0652889
0.0657721
0.0662446
0.0667066
0.0671583
0.0675998
0.0680315
0.0684533
0.0688656
0.0692687
0.0696628
0.070048
0.0704247
0.070793
0.0711532
0.0715055
0.0718502
0.0721875
0.0725176
0.0728409
0.0731576
0.0734679
0.0737721
0.0740704
0.0743631
0.0746503
0.0749323
0.0752092
0.0754813
0.0757488
0.0760117
0.0762702
0.0765245
0.0767747
0.0770207
0.0772628
0.077501
0.0777354
0.0779659
0.0781927
0.0784157
0.0786349
0.0788503
0.079062
0.0792699
0.079474
0.0796748
0.0798677
0.0363702
0.0360998
0.0358287
0.035546
0.0352425
0.0349115