/*--------------------------------*- C++ -*----------------------------------*\
  =========                 |
  \\      /  F ield         | OpenFOAM: The Open Source CFD Toolbox
   \\    /   O peration     | Website:  https://openfoam.org
    \\  /    A nd           | Version:  8
     \\/     M anipulation  |
\*---------------------------------------------------------------------------*/
FoamFile
{
    version     2.0;
    format      ascii;
    class       volScalarField;
    location    "800";
    object      p;
}
// * * * * * * * * * * * * * * * * * * * * * * * * * * * * * * * * * * * * * //

dimensions      [0 2 -2 0 0 0 0];

internalField   nonuniform List<scalar> 
7320
(
159.498
153.641
151.731
149.946
148.237
146.542
144.878
143.254
141.662
140.096
138.552
137.028
135.523
134.034
132.56
131.1
129.652
128.217
126.792
125.378
123.973
122.578
121.191
119.813
118.442
117.078
115.722
114.372
113.029
111.692
110.36
109.035
107.714
106.399
105.089
103.784
102.483
101.187
99.8954
98.6079
97.3245
96.045
94.7694
93.4975
92.2291
90.9643
89.7029
88.4448
87.1899
85.9382
84.6894
83.4437
82.2008
80.9608
79.7234
78.4888
77.2568
76.0273
74.8003
73.5757
72.3535
71.1337
69.9161
68.7007
67.4875
66.2764
65.0674
63.8605
62.6556
61.4527
60.2518
59.0527
57.8556
56.6603
55.4668
54.2751
53.0852
51.897
50.7105
49.5257
48.3426
47.1611
45.9811
44.8027
43.6258
42.4504
41.2764
40.1038
38.9326
37.7627
36.5941
35.4266
34.2604
33.0952
31.9311
30.7679
29.6057
28.4443
27.2837
26.1238
24.9645
23.8057
22.6474
21.4894
20.3317
19.1742
18.0168
16.8592
15.7016
14.5438
13.3856
12.2269
11.0678
9.9079
8.74735
7.58577
6.42326
5.2596
4.09474
2.92895
1.76026
0.604937
158.699
153.628
151.732
149.947
148.238
146.542
144.878
143.254
141.662
140.096
138.552
137.028
135.523
134.034
132.56
131.1
129.652
128.217
126.792
125.378
123.974
122.578
121.191
119.813
118.442
117.078
115.722
114.372
113.029
111.692
110.36
109.035
107.714
106.399
105.089
103.784
102.483
101.187
99.8954
98.6079
97.3245
96.045
94.7694
93.4975
92.2291
90.9643
89.7029
88.4448
87.1899
85.9382
84.6894
83.4437
82.2008
80.9608
79.7234
78.4888
77.2568
76.0273
74.8003
73.5757
72.3535
71.1337
69.9161
68.7007
67.4875
66.2764
65.0674
63.8605
62.6556
61.4527
60.2518
59.0527
57.8556
56.6603
55.4668
54.2751
53.0852
51.897
50.7105
49.5257
48.3426
47.1611
45.9811
44.8027
43.6258
42.4504
41.2764
40.1038
38.9326
37.7627
36.5941
35.4266
34.2604
33.0952
31.9311
30.7679
29.6057
28.4443
27.2837
26.1238
24.9645
23.8057
22.6474
21.4894
20.3317
19.1742
18.0168
16.8592
15.7016
14.5438
13.3856
12.2269
11.0678
9.9079
8.74734
7.58577
6.42325
5.2596
4.09474
2.92894
1.76026
0.604935
158.494
153.634
151.733
149.947
148.238
146.542
144.878
143.254
141.662
140.096
138.552
137.028
135.523
134.034
132.56
131.1
129.652
128.217
126.792
125.378
123.974
122.578
121.191
119.813
118.442
117.079
115.722
114.372
113.029
111.692
110.36
109.035
107.714
106.399
105.089
103.784
102.483
101.187
99.8954
98.6079
97.3245
96.045
94.7694
93.4975
92.2292
90.9643
89.7029
88.4448
87.1899
85.9382
84.6894
83.4437
82.2008
80.9608
79.7235
78.4888
77.2568
76.0273
74.8003
73.5757
72.3535
71.1337
69.9161
68.7007
67.4875
66.2764
65.0674
63.8605
62.6556
61.4527
60.2518
59.0527
57.8556
56.6603
55.4668
54.2751
53.0852
51.897
50.7105
49.5257
48.3426
47.161
45.9811
44.8027
43.6258
42.4504
41.2764
40.1038
38.9326
37.7627
36.5941
35.4266
34.2604
33.0952
31.9311
30.7679
29.6057
28.4443
27.2837
26.1237
24.9645
23.8057
22.6474
21.4894
20.3317
19.1742
18.0168
16.8592
15.7016
14.5437
13.3856
12.2269
11.0678
9.90789
8.74733
7.58576
6.42324
5.25959
4.09473
2.92893
1.76025
0.604932
158.481
153.641
151.735
149.948
148.239
146.543
144.879
143.254
141.662
140.096
138.552
137.028
135.523
134.034
132.56
131.1
129.652
128.217
126.792
125.378
123.974
122.578
121.192
119.813
118.442
117.079
115.722
114.372
113.029
111.692
110.36
109.035
107.714
106.399
105.089
103.784
102.483
101.187
99.8954
98.6079
97.3245
96.0451
94.7694
93.4975
92.2292
90.9644
89.7029
88.4448
87.1899
85.9382
84.6895
83.4437
82.2008
80.9608
79.7235
78.4888
77.2568
76.0273
74.8003
73.5757
72.3535
71.1337
69.9161
68.7007
67.4875
66.2764
65.0674
63.8605
62.6556
61.4527
60.2518
59.0527
57.8556
56.6603
55.4668
54.2751
53.0852
51.897
50.7105
49.5257
48.3426
47.161
45.9811
44.8027
43.6258
42.4504
41.2764
40.1038
38.9326
37.7627
36.5941
35.4266
34.2603
33.0952
31.9311
30.7679
29.6057
28.4443
27.2837
26.1237
24.9644
23.8057
22.6474
21.4894
20.3317
19.1742
18.0167
16.8592
15.7016
14.5437
13.3856
12.2269
11.0678
9.90788
8.74733
7.58575
6.42324
5.25958
4.09472
2.92893
1.76024
0.604928
158.453
153.645
151.737
149.95
148.24
146.544
144.879
143.255
141.663
140.096
138.552
137.029
135.523
134.034
132.56
131.1
129.653
128.217
126.792
125.378
123.974
122.578
121.192
119.813
118.442
117.079
115.722
114.372
113.029
111.692
110.36
109.035
107.714
106.399
105.089
103.784
102.483
101.187
99.8955
98.608
97.3245
96.0451
94.7694
93.4975
92.2292
90.9644
89.703
88.4449
87.19
85.9382
84.6895
83.4437
82.2008
80.9608
79.7235
78.4888
77.2568
76.0273
74.8003
73.5757
72.3535
71.1337
69.9161
68.7007
67.4875
66.2764
65.0674
63.8605
62.6556
61.4527
60.2518
59.0527
57.8556
56.6603
55.4668
54.2751
53.0852
51.897
50.7105
49.5257
48.3426
47.161
45.9811
44.8027
43.6258
42.4504
41.2764
40.1038
38.9326
37.7627
36.5941
35.4266
34.2603
33.0952
31.9311
30.7679
29.6057
28.4443
27.2837
26.1237
24.9644
23.8057
22.6474
21.4894
20.3317
19.1741
18.0167
16.8592
15.7016
14.5437
13.3856
12.2269
11.0678
9.90788
8.74732
7.58574
6.42323
5.25958
4.09471
2.92892
1.76024
0.604923
158.412
153.649
151.739
149.951
148.241
146.544
144.88
143.255
141.663
140.097
138.553
137.029
135.523
134.034
132.56
131.1
129.653
128.217
126.793
125.378
123.974
122.578
121.192
119.813
118.442
117.079
115.722
114.372
113.029
111.692
110.36
109.035
107.714
106.399
105.089
103.784
102.483
101.187
99.8955
98.608
97.3246
96.0451
94.7695
93.4975
92.2292
90.9644
89.703
88.4449
87.19
85.9382
84.6895
83.4437
82.2009
80.9608
79.7235
78.4888
77.2568
76.0273
74.8003
73.5757
72.3535
71.1337
69.9161
68.7007
67.4875
66.2764
65.0674
63.8605
62.6556
61.4527
60.2518
59.0527
57.8556
56.6603
55.4668
54.2751
53.0852
51.897
50.7105
49.5257
48.3426
47.161
45.9811
44.8027
43.6258
42.4504
41.2764
40.1038
38.9326
37.7627
36.594
35.4266
34.2603
33.0952
31.931
30.7679
29.6057
28.4443
27.2837
26.1237
24.9644
23.8056
22.6474
21.4894
20.3317
19.1741
18.0167
16.8592
15.7016
14.5437
13.3856
12.2269
11.0677
9.90787
8.7473
7.58573
6.42322
5.25957
4.0947
2.92891
1.76023
0.604918
158.376
153.654
151.741
149.953
148.242
146.545
144.881
143.256
141.664
140.097
138.553
137.029
135.524
134.035
132.561
131.1
129.653
128.217
126.793
125.379
123.974
122.579
121.192
119.813
118.442
117.079
115.722
114.373
113.029
111.692
110.361
109.035
107.714
106.399
105.089
103.784
102.483
101.187
99.8955
98.608
97.3246
96.0451
94.7695
93.4976
92.2292
90.9644
89.703
88.4449
87.19
85.9382
84.6895
83.4437
82.2009
80.9608
79.7235
78.4888
77.2568
76.0273
74.8003
73.5758
72.3536
71.1337
69.9161
68.7007
67.4875
66.2764
65.0674
63.8605
62.6556
61.4527
60.2518
59.0527
57.8556
56.6603
55.4668
54.2751
53.0852
51.897
50.7105
49.5257
48.3426
47.161
45.9811
44.8027
43.6258
42.4504
41.2764
40.1038
38.9326
37.7627
36.594
35.4266
34.2603
33.0951
31.931
30.7679
29.6056
28.4443
27.2837
26.1237
24.9644
23.8056
22.6473
21.4893
20.3317
19.1741
18.0167
16.8592
15.7016
14.5437
13.3856
12.2269
11.0677
9.90785
8.74729
7.58572
6.4232
5.25955
4.09469
2.9289
1.76021
0.60491
158.349
153.66
151.744
149.955
148.244
146.547
144.882
143.257
141.664
140.098
138.554
137.03
135.524
134.035
132.561
131.101
129.653
128.218
126.793
125.379
123.974
122.579
121.192
119.813
118.442
117.079
115.722
114.373
113.029
111.692
110.361
109.035
107.715
106.399
105.089
103.784
102.483
101.187
99.8956
98.6081
97.3247
96.0452
94.7695
93.4976
92.2293
90.9645
89.703
88.4449
87.19
85.9383
84.6895
83.4438
82.2009
80.9608
79.7235
78.4889
77.2568
76.0273
74.8003
73.5758
72.3536
71.1337
69.9161
68.7007
67.4875
66.2764
65.0675
63.8605
62.6556
61.4527
60.2518
59.0527
57.8556
56.6603
55.4668
54.2751
53.0852
51.897
50.7105
49.5257
48.3426
47.161
45.9811
44.8026
43.6258
42.4503
41.2764
40.1038
38.9326
37.7627
36.594
35.4266
34.2603
33.0951
31.931
30.7679
29.6056
28.4442
27.2836
26.1237
24.9644
23.8056
22.6473
21.4893
20.3316
19.1741
18.0167
16.8592
15.7016
14.5437
13.3856
12.2269
11.0677
9.90784
8.74727
7.5857
6.42319
5.25954
4.09468
2.92888
1.7602
0.6049
158.327
153.666
151.747
149.958
148.246
146.548
144.883
143.258
141.665
140.098
138.554
137.03
135.525
134.035
132.561
131.101
129.654
128.218
126.793
125.379
123.974
122.579
121.192
119.814
118.443
117.079
115.723
114.373
113.029
111.692
110.361
109.035
107.715
106.399
105.089
103.784
102.483
101.187
99.8957
98.6082
97.3247
96.0452
94.7696
93.4977
92.2293
90.9645
89.7031
88.445
87.1901
85.9383
84.6896
83.4438
82.2009
80.9609
79.7235
78.4889
77.2569
76.0274
74.8004
73.5758
72.3536
71.1337
69.9161
68.7007
67.4875
66.2764
65.0675
63.8605
62.6556
61.4527
60.2518
59.0527
57.8556
56.6602
55.4668
54.2751
53.0852
51.897
50.7105
49.5257
48.3425
47.161
45.981
44.8026
43.6257
42.4503
41.2764
40.1038
38.9326
37.7627
36.594
35.4266
34.2603
33.0951
31.931
30.7678
29.6056
28.4442
27.2836
26.1237
24.9644
23.8056
22.6473
21.4893
20.3316
19.1741
18.0167
16.8591
15.7015
14.5437
13.3855
12.2269
11.0677
9.90782
8.74726
7.58568
6.42317
5.25952
4.09466
2.92887
1.76018
0.604888
158.307
153.673
151.749
149.96
148.248
146.55
144.884
143.259
141.666
140.099
138.555
137.031
135.525
134.036
132.562
131.101
129.654
128.218
126.794
125.379
123.975
122.579
121.192
119.814
118.443
117.079
115.723
114.373
113.03
111.692
110.361
109.035
107.715
106.4
105.089
103.784
102.484
101.188
99.8958
98.6082
97.3248
96.0453
94.7697
93.4977
92.2294
90.9646
89.7031
88.445
87.1901
85.9383
84.6896
83.4438
82.201
80.9609
79.7236
78.4889
77.2569
76.0274
74.8004
73.5758
72.3536
71.1337
69.9161
68.7007
67.4875
66.2764
65.0675
63.8605
62.6556
61.4527
60.2518
59.0527
57.8556
56.6602
55.4668
54.2751
53.0851
51.897
50.7105
49.5257
48.3425
47.161
45.981
44.8026
43.6257
42.4503
41.2763
40.1038
38.9325
37.7626
36.594
35.4265
34.2603
33.0951
31.931
30.7678
29.6056
28.4442
27.2836
26.1236
24.9644
23.8056
22.6473
21.4893
20.3316
19.1741
18.0167
16.8591
15.7015
14.5436
13.3855
12.2268
11.0677
9.9078
8.74723
7.58566
6.42315
5.2595
4.09464
2.92885
1.76017
0.60487
158.286
153.681
151.751
149.962
148.25
146.552
144.886
143.26
141.668
140.1
138.556
137.032
135.526
134.037
132.562
131.102
129.654
128.219
126.794
125.38
123.975
122.58
121.193
119.814
118.443
117.08
115.723
114.373
113.03
111.692
110.361
109.035
107.715
106.4
105.09
103.784
102.484
101.188
99.8959
98.6083
97.3249
96.0454
94.7697
93.4978
92.2295
90.9646
89.7032
88.4451
87.1902
85.9384
84.6897
83.4439
82.201
80.9609
79.7236
78.489
77.2569
76.0274
74.8004
73.5758
72.3536
71.1337
69.9161
68.7007
67.4875
66.2765
65.0675
63.8606
62.6557
61.4527
60.2518
59.0527
57.8556
56.6602
55.4668
54.2751
53.0851
51.897
50.7105
49.5257
48.3425
47.161
45.981
44.8026
43.6257
42.4503
41.2763
40.1037
38.9325
37.7626
36.594
35.4265
34.2602
33.0951
31.931
30.7678
29.6056
28.4442
27.2836
26.1236
24.9643
23.8056
22.6473
21.4893
20.3316
19.174
18.0166
16.8591
15.7015
14.5436
13.3855
12.2268
11.0676
9.90777
8.74721
7.58564
6.42312
5.25948
4.09461
2.92883
1.76014
0.604847
158.263
153.69
151.753
149.965
148.252
146.554
144.888
143.262
141.669
140.102
138.557
137.033
135.527
134.037
132.563
131.103
129.655
128.219
126.795
125.38
123.975
122.58
121.193
119.814
118.443
117.08
115.723
114.373
113.03
111.693
110.361
109.035
107.715
106.4
105.09
103.785
102.484
101.188
99.896
98.6085
97.325
96.0455
94.7699
93.4979
92.2296
90.9647
89.7033
88.4452
87.1903
85.9385
84.6897
83.444
82.2011
80.961
79.7237
78.489
77.257
76.0275
74.8004
73.5759
72.3537
71.1338
69.9162
68.7008
67.4876
66.2765
65.0675
63.8606
62.6557
61.4528
60.2518
59.0527
57.8556
56.6603
55.4668
54.2751
53.0851
51.897
50.7105
49.5257
48.3425
47.161
45.981
44.8026
43.6257
42.4503
41.2763
40.1037
38.9325
37.7626
36.594
35.4265
34.2602
33.0951
31.9309
30.7678
29.6055
28.4442
27.2836
26.1236
24.9643
23.8055
22.6472
21.4892
20.3316
19.174
18.0166
16.8591
15.7015
14.5436
13.3855
12.2268
11.0676
9.90775
8.74718
7.58561
6.4231
5.25945
4.09458
2.9288
1.76012
0.604816
158.237
153.7
151.755
149.966
148.254
146.556
144.89
143.264
141.671
140.103
138.558
137.034
135.528
134.038
132.564
131.103
129.656
128.22
126.795
125.381
123.976
122.58
121.194
119.815
118.444
117.08
115.724
114.374
113.03
111.693
110.362
109.036
107.715
106.4
105.09
103.785
102.484
101.188
99.8962
98.6086
97.3252
96.0457
94.77
93.498
92.2297
90.9649
89.7034
88.4453
87.1904
85.9386
84.6898
83.444
82.2011
80.9611
79.7237
78.4891
77.257
76.0275
74.8005
73.5759
72.3537
71.1338
69.9162
68.7008
67.4876
66.2765
65.0675
63.8606
62.6557
61.4528
60.2518
59.0527
57.8556
56.6603
55.4668
54.2751
53.0851
51.897
50.7105
49.5257
48.3425
47.161
45.981
44.8026
43.6257
42.4503
41.2763
40.1037
38.9325
37.7626
36.5939
35.4265
34.2602
33.095
31.9309
30.7677
29.6055
28.4441
27.2835
26.1236
24.9643
23.8055
22.6472
21.4892
20.3315
19.174
18.0166
16.859
15.7014
14.5436
13.3854
12.2268
11.0676
9.90771
8.74714
7.58557
6.42306
5.25942
4.09455
2.92877
1.76009
0.604774
158.206
153.712
151.756
149.968
148.256
146.558
144.892
143.266
141.673
140.105
138.56
137.035
135.529
134.04
132.565
131.104
129.657
128.221
126.796
125.381
123.977
122.581
121.194
119.815
118.444
117.081
115.724
114.374
113.031
111.693
110.362
109.036
107.716
106.4
105.09
103.785
102.484
101.188
99.8964
98.6089
97.3254
96.0459
94.7702
93.4982
92.2299
90.965
89.7036
88.4454
87.1905
85.9387
84.6899
83.4441
82.2012
80.9612
79.7238
78.4892
77.2571
76.0276
74.8006
73.576
72.3538
71.1339
69.9162
68.7008
67.4876
66.2766
65.0676
63.8606
62.6557
61.4528
60.2518
59.0528
57.8556
56.6603
55.4668
54.2751
53.0852
51.897
50.7105
49.5257
48.3425
47.161
45.981
44.8026
43.6257
42.4503
41.2763
40.1037
38.9325
37.7626
36.5939
35.4265
34.2602
33.095
31.9309
30.7677
29.6055
28.4441
27.2835
26.1235
24.9642
23.8055
22.6472
21.4892
20.3315
19.1739
18.0165
16.859
15.7014
14.5435
13.3854
12.2267
11.0675
9.90768
8.74711
7.58554
6.42302
5.25938
4.09451
2.92873
1.76005
0.604715
158.171
153.726
151.758
149.969
148.258
146.56
144.894
143.268
141.674
140.107
138.562
137.037
135.531
134.041
132.566
131.106
129.658
128.222
126.797
125.382
123.978
122.582
121.195
119.816
118.445
117.081
115.725
114.375
113.031
111.694
110.362
109.036
107.716
106.401
105.091
103.785
102.485
101.188
99.8967
98.6091
97.3256
96.0461
94.7704
93.4984
92.2301
90.9652
89.7037
88.4456
87.1907
85.9388
84.6901
83.4443
82.2014
80.9613
79.7239
78.4893
77.2572
76.0277
74.8007
73.5761
72.3539
71.134
69.9163
68.7009
67.4877
66.2766
65.0676
63.8607
62.6558
61.4528
60.2519
59.0528
57.8556
56.6603
55.4668
54.2751
53.0852
51.897
50.7105
49.5257
48.3425
47.161
45.981
44.8026
43.6257
42.4503
41.2763
40.1037
38.9325
37.7625
36.5939
35.4264
34.2602
33.095
31.9309
30.7677
29.6055
28.4441
27.2835
26.1235
24.9642
23.8054
22.6471
21.4891
20.3315
19.1739
18.0165
16.859
15.7014
14.5435
13.3853
12.2267
11.0675
9.90764
8.74706
7.5855
6.42298
5.25934
4.09447
2.92869
1.76001
0.604635
158.13
153.742
151.759
149.97
148.259
146.561
144.896
143.27
141.676
140.109
138.564
137.039
135.532
134.042
132.568
131.107
129.659
128.223
126.798
125.383
123.978
122.583
121.196
119.817
118.446
117.082
115.725
114.375
113.032
111.694
110.363
109.037
107.717
106.401
105.091
103.786
102.485
101.189
99.8971
98.6095
97.326
96.0464
94.7707
93.4987
92.2303
90.9655
89.704
88.4458
87.1909
85.9391
84.6903
83.4445
82.2016
80.9615
79.7241
78.4894
77.2574
76.0278
74.8008
73.5762
72.354
71.1341
69.9164
68.701
67.4878
66.2767
65.0677
63.8608
62.6558
61.4529
60.2519
59.0529
57.8557
56.6604
55.4668
54.2751
53.0852
51.897
50.7105
49.5257
48.3425
47.161
45.981
44.8026
43.6257
42.4503
41.2763
40.1037
38.9325
37.7625
36.5939
35.4264
34.2601
33.095
31.9308
30.7677
29.6054
28.444
27.2834
26.1235
24.9642
23.8054
22.6471
21.4891
20.3314
19.1739
18.0165
16.8589
15.7013
14.5434
13.3853
12.2266
11.0675
9.9076
8.74702
7.58545
6.42294
5.2593
4.09443
2.92864
1.75997
0.604524
158.082
153.761
151.76
149.971
148.26
146.562
144.897
143.271
141.678
140.11
138.565
137.041
135.534
134.044
132.569
131.109
129.66
128.224
126.799
125.385
123.98
122.584
121.197
119.818
118.447
117.083
115.726
114.376
113.033
111.695
110.364
109.038
107.717
106.402
105.092
103.786
102.486
101.189
99.8975
98.6099
97.3264
96.0468
94.7711
93.4991
92.2307
90.9658
89.7043
88.4461
87.1912
85.9393
84.6905
83.4447
82.2018
80.9617
79.7243
78.4896
77.2576
76.028
74.801
73.5764
72.3541
71.1342
69.9166
68.7012
67.4879
66.2768
65.0678
63.8609
62.6559
61.453
60.252
59.0529
57.8558
56.6604
55.4669
54.2752
53.0853
51.8971
50.7106
49.5257
48.3426
47.161
45.981
44.8026
43.6257
42.4503
41.2763
40.1037
38.9325
37.7625
36.5939
35.4264
34.2601
33.0949
31.9308
30.7677
29.6054
28.444
27.2834
26.1235
24.9642
23.8054
22.6471
21.4891
20.3314
19.1738
18.0164
16.8589
15.7013
14.5434
13.3853
12.2266
11.0674
9.90755
8.74697
7.5854
6.42289
5.25925
4.09438
2.92859
1.75992
0.60437
158.026
153.784
151.761
149.972
148.261
146.563
144.897
143.272
141.679
140.112
138.567
137.042
135.536
134.046
132.571
131.11
129.662
128.226
126.801
125.386
123.981
122.585
121.198
119.819
118.448
117.084
115.727
114.377
113.033
111.696
110.364
109.038
107.718
106.403
105.092
103.787
102.486
101.19
99.8981
98.6105
97.3269
96.0473
94.7716
93.4995
92.2311
90.9662
89.7047
88.4465
87.1915
85.9397
84.6909
83.445
82.2021
80.962
79.7246
78.4899
77.2578
76.0283
74.8012
73.5766
72.3543
71.1344
69.9168
68.7013
67.4881
66.277
65.068
63.861
62.6561
61.4531
60.2521
59.0531
57.8559
56.6605
55.467
54.2753
53.0853
51.8971
50.7106
49.5258
48.3426
47.1611
45.9811
44.8026
43.6257
42.4503
41.2763
40.1037
38.9325
37.7626
36.5939
35.4264
34.2601
33.095
31.9308
30.7676
29.6054
28.444
27.2834
26.1234
24.9641
23.8053
22.647
21.489
20.3314
19.1738
18.0164
16.8588
15.7012
14.5434
13.3852
12.2265
11.0674
9.90751
8.74693
7.58536
6.42284
5.2592
4.09433
2.92854
1.75987
0.604154
157.962
153.81
151.762
149.974
148.262
146.564
144.898
143.273
141.68
140.113
138.568
137.044
135.537
134.048
132.573
131.112
129.664
128.228
126.802
125.388
123.982
122.587
121.199
119.82
118.449
117.085
115.728
114.378
113.035
111.697
110.365
109.039
107.719
106.403
105.093
103.788
102.487
101.191
99.8988
98.6111
97.3276
96.0479
94.7722
93.5001
92.2317
90.9667
89.7052
88.447
87.192
85.9401
84.6913
83.4455
82.2025
80.9624
79.725
78.4903
77.2581
76.0286
74.8015
73.5769
72.3546
71.1347
69.917
68.7016
67.4883
66.2772
65.0682
63.8612
62.6563
61.4533
60.2523
59.0532
57.856
56.6607
55.4672
54.2754
53.0855
51.8973
50.7107
49.5259
48.3427
47.1612
45.9812
44.8027
43.6258
42.4504
41.2764
40.1038
38.9325
37.7626
36.5939
35.4265
34.2602
33.095
31.9308
30.7677
29.6054
28.444
27.2834
26.1234
24.9641
23.8053
22.647
21.489
20.3313
19.1738
18.0164
16.8588
15.7012
14.5433
13.3852
12.2265
11.0673
9.90748
8.74689
7.58532
6.4228
5.25916
4.09429
2.92848
1.75983
0.603853
157.889
153.841
151.764
149.975
148.263
146.564
144.899
143.273
141.68
140.113
138.568
137.044
135.538
134.049
132.574
131.113
129.665
128.229
126.804
125.389
123.984
122.588
121.201
119.822
118.45
117.087
115.73
114.38
113.036
111.698
110.367
109.04
107.72
106.405
105.094
103.789
102.488
101.192
99.8997
98.612
97.3284
96.0487
94.7729
93.5008
92.2324
90.9674
89.7059
88.4476
87.1926
85.9407
84.6919
83.446
82.203
80.9629
79.7254
78.4907
77.2586
76.029
74.8019
73.5773
72.355
71.1351
69.9174
68.7019
67.4887
66.2775
65.0685
63.8615
62.6566
61.4536
60.2526
59.0535
57.8563
56.6609
55.4674
54.2756
53.0857
51.8974
50.7109
49.5261
48.3429
47.1613
45.9813
44.8029
43.6259
42.4505
41.2765
40.1039
38.9326
37.7627
36.594
35.4265
34.2602
33.095
31.9309
30.7677
29.6055
28.4441
27.2834
26.1235
24.9642
23.8054
22.6471
21.489
20.3314
19.1738
18.0164
16.8588
15.7012
14.5433
13.3852
12.2265
11.0673
9.90746
8.74686
7.58529
6.42277
5.25913
4.09425
2.92844
1.75979
0.603433
157.805
153.876
151.765
149.977
148.264
146.565
144.899
143.274
141.681
140.113
138.569
137.045
135.539
134.049
132.575
131.114
129.666
128.23
126.805
125.391
123.986
122.59
121.202
119.823
118.452
117.088
115.731
114.381
113.037
111.7
110.368
109.042
107.721
106.406
105.095
103.79
102.489
101.193
99.9007
98.613
97.3293
96.0497
94.7738
93.5017
92.2332
90.9682
89.7067
88.4484
87.1933
85.9414
84.6926
83.4467
82.2037
80.9635
79.7261
78.4913
77.2592
76.0296
74.8025
73.5778
72.3555
71.1355
69.9178
68.7024
67.4891
66.2779
65.0689
63.8619
62.6569
61.454
60.2529
59.0538
57.8566
56.6612
55.4677
54.2759
53.0859
51.8977
50.7112
49.5263
48.3431
47.1615
45.9815
44.803
43.6261
42.4507
41.2766
40.104
38.9328
37.7628
36.5941
35.4267
34.2604
33.0951
31.931
30.7678
29.6056
28.4441
27.2835
26.1235
24.9642
23.8054
22.6471
21.4891
20.3314
19.1738
18.0164
16.8588
15.7012
14.5434
13.3852
12.2265
11.0673
9.90746
8.74686
7.58529
6.42276
5.25912
4.09423
2.9284
1.75976
0.602848
157.71
153.915
151.768
149.979
148.266
146.567
144.9
143.274
141.681
140.114
138.569
137.045
135.539
134.049
132.575
131.115
129.667
128.231
126.806
125.392
123.987
122.591
121.204
119.825
118.454
117.09
115.733
114.383
113.039
111.701
110.369
109.043
107.723
106.407
105.097
103.791
102.49
101.194
99.9019
98.6142
97.3305
96.0508
94.7749
93.5028
92.2343
90.9693
89.7076
88.4493
87.1943
85.9423
84.6934
83.4475
82.2045
80.9643
79.7268
78.4921
77.2599
76.0303
74.8032
73.5785
72.3562
71.1362
69.9185
68.703
67.4897
66.2785
65.0694
63.8624
62.6574
61.4544
60.2534
59.0543
57.857
56.6616
55.4681
54.2763
53.0863
51.8981
50.7115
49.5266
48.3434
47.1618
45.9818
44.8033
43.6264
42.4509
41.2769
40.1043
38.933
37.763
36.5944
35.4269
34.2605
33.0953
31.9312
30.768
29.6057
28.4443
27.2837
26.1237
24.9644
23.8055
22.6472
21.4892
20.3315
19.1739
18.0165
16.8589
15.7013
14.5434
13.3853
12.2266
11.0674
9.9075
8.7469
7.58532
6.42279
5.25914
4.09425
2.92839
1.75976
0.602035
157.603
153.959
151.77
149.981
148.268
146.568
144.901
143.275
141.682
140.114
138.57
137.045
135.539
134.05
132.575
131.115
129.667
128.231
126.806
125.392
123.987
122.592
121.205
119.826
118.455
117.091
115.734
114.384
113.04
111.703
110.371
109.045
107.724
106.409
105.098
103.793
102.492
101.195
99.9033
98.6155
97.3319
96.0521
94.7762
93.5041
92.2355
90.9705
89.7088
88.4505
87.1954
85.9434
84.6945
83.4486
82.2055
80.9653
79.7278
78.493
77.2608
76.0312
74.804
73.5793
72.357
71.137
69.9192
68.7037
67.4904
66.2792
65.0701
63.8631
62.6581
61.4551
60.254
59.0549
57.8576
56.6622
55.4686
54.2769
53.0868
51.8986
50.712
49.5271
48.3439
47.1623
45.9822
44.8038
43.6268
42.4513
41.2773
40.1046
38.9334
37.7634
36.5947
35.4272
34.2608
33.0956
31.9315
30.7682
29.606
28.4445
27.2839
26.1239
24.9646
23.8057
22.6474
21.4894
20.3317
19.1741
18.0166
16.8591
15.7014
14.5436
13.3854
12.2267
11.0675
9.90761
8.74699
7.5854
6.42286
5.25921
4.09431
2.92842
1.7598
0.600916
157.486
154.007
151.773
149.983
148.271
146.57
144.903
143.276
141.683
140.115
138.57
137.046
135.54
134.05
132.576
131.115
129.667
128.231
126.806
125.392
123.987
122.592
121.205
119.826
118.455
117.091
115.735
114.385
113.041
111.704
110.372
109.046
107.725
106.41
105.1
103.794
102.493
101.197
99.9048
98.617
97.3333
96.0536
94.7777
93.5055
92.2369
90.9718
89.7102
88.4518
87.1967
85.9447
84.6958
83.4498
82.2067
80.9665
79.729
78.4942
77.2619
76.0323
74.8051
73.5804
72.358
71.138
69.9202
68.7047
67.4914
66.2801
65.071
63.864
62.659
61.4559
60.2548
59.0557
57.8584
56.663
55.4694
54.2776
53.0875
51.8993
50.7127
49.5278
48.3445
47.1629
45.9828
44.8043
43.6274
42.4519
41.2778
40.1051
38.9339
37.7639
36.5951
35.4276
34.2613
33.096
31.9319
30.7686
29.6064
28.4449
27.2843
26.1242
24.9649
23.8061
22.6477
21.4897
20.332
19.1744
18.0169
16.8593
15.7017
14.5438
13.3856
12.2269
11.0677
9.9078
8.74716
7.58557
6.42302
5.25935
4.09444
2.92851
1.75989
0.599387
157.359
154.057
151.777
149.984
148.274
146.573
144.904
143.278
141.684
140.116
138.571
137.047
135.54
134.051
132.576
131.115
129.668
128.232
126.807
125.392
123.987
122.592
121.205
119.826
118.455
117.091
115.735
114.385
113.041
111.704
110.372
109.046
107.726
106.411
105.101
103.795
102.494
101.198
99.9062
98.6185
97.3348
96.0551
94.7792
93.507
92.2384
90.9734
89.7117
88.4533
87.1982
85.9462
84.6972
83.4512
82.2081
80.9679
79.7303
78.4955
77.2633
76.0336
74.8064
73.5816
72.3593
71.1392
69.9214
68.7059
67.4925
66.2813
65.0722
63.8651
62.66
61.457
60.2559
59.0567
57.8594
56.6639
55.4703
54.2785
53.0885
51.9002
50.7136
49.5286
48.3454
47.1637
45.9836
44.8051
43.6281
42.4526
41.2785
40.1059
38.9345
37.7645
36.5958
35.4283
34.2619
33.0966
31.9325
30.7692
29.6069
28.4454
27.2848
26.1248
24.9654
23.8065
22.6482
21.4901
20.3324
19.1748
18.0173
16.8597
15.7021
14.5442
13.3859
12.2272
11.068
9.9081
8.74746
7.58585
6.42329
5.25961
4.09468
2.92869
1.76004
0.597331
157.226
154.108
151.783
149.986
148.277
146.575
144.906
143.279
141.685
140.117
138.572
137.047
135.541
134.051
132.577
131.116
129.668
128.232
126.807
125.393
123.988
122.592
121.205
119.826
118.455
117.091
115.735
114.385
113.041
111.704
110.372
109.046
107.726
106.411
105.101
103.795
102.495
101.198
99.9066
98.619
97.3355
96.0559
94.7801
93.5081
92.2396
90.9747
89.7131
88.4548
87.1997
85.9477
84.6988
83.4528
82.2097
80.9694
79.7319
78.497
77.2648
76.0351
74.8079
73.5831
72.3607
71.1406
69.9228
68.7073
67.4939
66.2826
65.0735
63.8664
62.6614
61.4583
60.2571
59.0579
57.8606
56.6652
55.4715
54.2797
53.0896
51.9013
50.7147
49.5297
48.3464
47.1648
45.9847
44.8061
43.6291
42.4536
41.2795
40.1068
38.9355
37.7654
36.5967
35.4291
34.2628
33.0975
31.9333
30.77
29.6077
28.4462
27.2855
26.1255
24.9661
23.8072
22.6488
21.4908
20.333
19.1754
18.0179
16.8603
15.7026
14.5447
13.3865
12.2277
11.0685
9.90857
8.7479
7.58628
6.4237
5.26
4.09506
2.92898
1.76029
0.594615
157.091
154.157
151.789
149.987
148.281
146.578
144.908
143.281
141.687
140.119
138.573
137.048
135.542
134.052
132.577
131.117
129.669
128.233
126.808
125.393
123.988
122.592
121.205
119.827
118.455
117.092
115.735
114.385
113.041
111.704
110.373
109.047
107.726
106.411
105.101
103.795
102.495
101.198
99.9066
98.619
97.3355
96.056
94.7802
93.5082
92.2398
90.9749
89.7135
88.4553
87.2003
85.9485
84.6997
83.4538
82.2108
80.9707
79.7332
78.4984
77.2663
76.0366
74.8095
73.5847
72.3623
71.1423
69.9245
68.7089
67.4955
66.2842
65.0751
63.868
62.6629
61.4598
60.2586
59.0594
57.8621
56.6666
55.4729
54.2811
53.091
51.9027
50.716
49.5311
48.3478
47.1661
45.986
44.8074
43.6304
42.4548
41.2807
40.108
38.9367
37.7666
36.5978
35.4303
34.2639
33.0986
31.9343
30.7711
29.6087
28.4472
27.2865
26.1264
24.967
23.8081
22.6497
21.4917
20.3339
19.1762
18.0187
16.8611
15.7034
14.5454
13.3872
12.2284
11.0692
9.90923
8.74854
7.5869
6.42429
5.26057
4.0956
2.92944
1.76064
0.591133
156.964
154.202
151.796
149.987
148.284
146.58
144.91
143.282
141.688
140.12
138.574
137.049
135.543
134.053
132.578
131.117
129.669
128.233
126.808
125.394
123.989
122.593
121.206
119.827
118.456
117.092
115.735
114.385
113.042
111.704
110.373
109.047
107.726
106.411
105.101
103.795
102.495
101.199
99.9068
98.6191
97.3356
96.056
94.7803
93.5083
92.2399
90.975
89.7135
88.4553
87.2003
85.9485
84.6997
83.4539
82.2109
80.9708
79.7335
78.4988
77.2667
76.0371
74.8101
73.5854
72.3632
71.1432
69.9256
68.7101
67.4968
66.2856
65.0766
63.8695
62.6645
61.4614
60.2603
59.0611
57.8638
56.6683
55.4747
54.2828
53.0927
51.9044
50.7177
49.5327
48.3494
47.1677
45.9875
44.8089
43.6319
42.4563
41.2822
40.1094
38.9381
37.768
36.5992
35.4316
34.2652
33.0999
31.9356
30.7723
29.61
28.4485
27.2877
26.1277
24.9682
23.8093
22.6509
21.4928
20.335
19.1773
18.0198
16.8621
15.7044
14.5464
13.3881
12.2294
11.0701
9.91011
8.74939
7.58774
6.4251
5.26136
4.09636
2.93009
1.76113
0.586875
156.856
154.238
151.803
149.987
148.287
146.582
144.911
143.283
141.689
140.121
138.575
137.05
135.544
134.054
132.579
131.118
129.67
128.234
126.809
125.394
123.989
122.593
121.206
119.827
118.456
117.092
115.736
114.386
113.042
111.705
110.373
109.047
107.727
106.411
105.101
103.796
102.495
101.199
99.9069
98.6193
97.3358
96.0562
94.7804
93.5084
92.24
90.9751
89.7136
88.4554
87.2004
85.9486
84.6998
83.454
82.211
80.9709
79.7335
78.4988
77.2667
76.0371
74.8101
73.5855
72.3632
71.1433
69.9256
68.7102
67.4969
66.2858
65.0768
63.8698
62.6649
61.4619
60.2609
59.0618
57.8646
56.6693
55.4757
54.284
53.094
51.9057
50.7191
49.5342
48.351
47.1693
45.9892
44.8107
43.6337
42.4581
41.284
40.1113
38.9399
37.7698
36.601
35.4334
34.267
33.1016
31.9373
30.774
29.6116
28.4501
27.2893
26.1292
24.9697
23.8108
22.6523
21.4942
20.3363
19.1786
18.021
16.8634
15.7056
14.5476
13.3893
12.2305
11.0712
9.9112
8.75046
7.58878
6.42612
5.26235
4.09732
2.93094
1.76176
0.582163
156.787
154.261
151.808
149.987
148.288
146.584
144.912
143.284
141.69
140.121
138.576
137.051
135.544
134.054
132.579
131.118
129.67
128.234
126.809
125.394
123.989
122.594
121.207
119.828
118.456
117.093
115.736
114.386
113.042
111.705
110.373
109.047
107.727
106.412
105.101
103.796
102.495
101.199
99.9071
98.6195
97.3359
96.0563
94.7806
93.5086
92.2401
90.9752
89.7137
88.4555
87.2005
85.9487
84.6999
83.454
82.2111
80.971
79.7336
78.4989
77.2668
76.0372
74.8102
73.5855
72.3633
71.1433
69.9257
68.7102
67.497
66.2859
65.0768
63.8699
62.6649
61.462
60.2609
59.0618
57.8646
56.6693
55.4757
54.284
53.094
51.9058
50.7192
49.5344
48.3512
47.1696
45.9896
44.8111
43.6341
42.4586
41.2846
40.1119
38.9406
37.7706
36.6019
35.4344
34.268
33.1027
31.9385
30.7752
29.6129
28.4514
27.2906
26.1306
24.9711
23.8122
22.6538
21.4956
20.3378
19.1801
18.0225
16.8648
15.7071
14.5491
13.3907
12.2319
11.0726
9.91257
8.75179
7.59009
6.4274
5.2636
4.09854
2.93208
1.76268
0.578484
156.787
154.261
151.808
149.987
148.288
146.584
144.912
143.284
141.69
140.121
138.576
137.051
135.544
134.054
132.579
131.118
129.67
128.234
126.809
125.394
123.989
122.594
121.207
119.828
118.456
117.093
115.736
114.386
113.042
111.705
110.373
109.047
107.727
106.412
105.101
103.796
102.495
101.199
99.9071
98.6195
97.3359
96.0563
94.7806
93.5086
92.2401
90.9752
89.7137