/*--------------------------------*- C++ -*----------------------------------*\
  =========                 |
  \\      /  F ield         | OpenFOAM: The Open Source CFD Toolbox
   \\    /   O peration     | Website:  https://openfoam.org
    \\  /    A nd           | Version:  8
     \\/     M anipulation  |
\*---------------------------------------------------------------------------*/
FoamFile
{
    version     2.0;
    format      ascii;
    class       surfaceScalarField;
    location    "800";
    object      phi;
}
// * * * * * * * * * * * * * * * * * * * * * * * * * * * * * * * * * * * * * //

dimensions      [0 3 -1 0 0 0 0];

internalField   nonuniform List<scalar> 
14458
(
0.00222126
0.00139905
0.00205682
0.000164437
0.00198942
6.74046e-05
0.00194726
4.21619e-05
0.00191671
3.05478e-05
0.00189296
2.37485e-05
0.00187368
1.9277e-05
0.00185758
1.6101e-05
0.00184386
1.37262e-05
0.00183197
1.18877e-05
0.00182154
1.04248e-05
0.00181231
9.23472e-06
0.00180406
8.24835e-06
0.00179664
7.41838e-06
0.00178993
6.71078e-06
0.00178383
6.1012e-06
0.00177826
5.57082e-06
0.00177315
5.10554e-06
0.00176846
4.69397e-06
0.00176413
4.32816e-06
0.00176013
4.00078e-06
0.00175643
3.70632e-06
0.00175299
3.43986e-06
0.00174979
3.19824e-06
0.00174681
2.97797e-06
0.00174403
2.77653e-06
0.00174144
2.5912e-06
0.00173902
2.42098e-06
0.00173676
2.26377e-06
0.00173464
2.11829e-06
0.00173266
1.98295e-06
0.0017308
1.85736e-06
0.00172906
1.74023e-06
0.00172743
1.63086e-06
0.0017259
1.52813e-06
0.00172447
1.43216e-06
0.00172313
1.34198e-06
0.00172187
1.2572e-06
0.00172069
1.1771e-06
0.00171959
1.10173e-06
0.00171856
1.03048e-06
0.0017176
9.63094e-07
0.0017167
8.99137e-07
0.00171586
8.3858e-07
0.00171508
7.81063e-07
0.00171435
7.26386e-07
0.00171368
6.74365e-07
0.00171305
6.24757e-07
0.00171248
5.77451e-07
0.00171194
5.32267e-07
0.00171146
4.89346e-07
0.00171101
4.48031e-07
0.0017106
4.08548e-07
0.00171023
3.70696e-07
0.00170989
3.34794e-07
0.00170959
3.00076e-07
0.00170933
2.66929e-07
0.00170909
2.35121e-07
0.00170889
2.053e-07
0.00170871
1.76163e-07
0.00170856
1.48408e-07
0.00170844
1.21751e-07
0.00170834
9.67742e-08
0.00170827
7.24099e-08
0.00170822
4.92295e-08
0.0017082
2.69461e-08
0.00170819
6.07997e-09
0.00170821
-1.44364e-08
0.00170824
-3.40552e-08
0.00170829
-5.29987e-08
0.00170836
-7.1184e-08
0.00170845
-8.88904e-08
0.00170856
-1.06106e-07
0.00170868
-1.22821e-07
0.00170882
-1.39424e-07
0.00170898
-1.5541e-07
0.00170915
-1.71245e-07
0.00170934
-1.8663e-07
0.00170954
-2.02475e-07
0.00170976
-2.17524e-07
0.00170999
-2.32722e-07
0.00171024
-2.47498e-07
0.0017105
-2.62869e-07
0.00171078
-2.77575e-07
0.00171107
-2.92472e-07
0.00171138
-3.06862e-07
0.0017117
-3.21644e-07
0.00171204
-3.36049e-07
0.00171239
-3.5064e-07
0.00171276
-3.64822e-07
0.00171314
-3.77617e-07
0.00171353
-3.91949e-07
0.00171394
-4.06018e-07
0.00171436
-4.19864e-07
0.00171479
-4.31071e-07
0.00171524
-4.44956e-07
0.00171569
-4.58039e-07
0.00171617
-4.71321e-07
0.00171665
-4.76432e-07
0.00171714
-4.89971e-07
0.00171764
-5.01741e-07
0.00171816
-5.14667e-07
0.00171868
-5.17481e-07
0.00171921
-5.30396e-07
0.00171975
-5.402e-07
0.0017203
-5.51904e-07
0.00172085
-5.43633e-07
0.00172141
-5.55492e-07
0.00172197
-5.62916e-07
0.00172254
-5.73979e-07
0.00172311
-5.64766e-07
0.00172369
-5.75345e-07
0.00172426
-5.79428e-07
0.00172484
-5.87735e-07
0.00172541
-5.66125e-07
0.00172599
-5.73788e-07
0.00172656
-5.73515e-07
0.00172712
-5.79273e-07
0.00172768
-5.64459e-07
0.00172823
-5.59039e-07
0.00172877
-5.49356e-07
-2.92101e-07
0.00311152
0.00259572
0.00288393
0.000392018
0.00278399
0.000167352
0.00272314
0.000103006
0.0026798
7.38914e-05
0.0026464
5.71457e-05
0.00261943
4.62487e-05
0.00259697
3.85575e-05
0.00257787
3.28289e-05
0.00256135
2.84052e-05
0.00254689
2.48925e-05
0.00253408
2.20388e-05
0.00252265
1.96764e-05
0.00251238
1.76902e-05
0.00250309
1.59984e-05
0.00249465
1.45416e-05
0.00248695
1.32748e-05
0.00247989
1.21639e-05
0.0024734
1.1182e-05
0.00246742
1.03092e-05
0.00246189
9.52837e-06
0.00245677
8.8262e-06
0.00245202
8.19118e-06
0.00244761
7.61525e-06
0.00244349
7.09036e-06
0.00243966
6.61035e-06
0.00243608
6.16915e-06
0.00243274
5.76365e-06
0.00242961
5.38923e-06
0.00242669
5.04273e-06
0.00242395
4.72069e-06
0.00242139
4.42162e-06
0.00241899
4.14276e-06
0.00241673
3.88237e-06
0.00241462
3.63809e-06
0.00241265
3.40962e-06
0.00241079
3.19501e-06
0.00240906
2.9932e-06
0.00240743
2.80274e-06
0.00240591
2.62336e-06
0.00240449
2.45384e-06
0.00240316
2.29351e-06
0.00240192
2.14144e-06
0.00240076
1.99739e-06
0.00239968
1.86059e-06
0.00239867
1.73055e-06
0.00239774
1.60683e-06
0.00239688
1.48889e-06
0.00239608
1.37643e-06
0.00239534
1.26906e-06
0.00239466
1.16687e-06
0.00239404
1.06875e-06
0.00239348
9.74965e-07
0.00239296
8.85128e-07
0.0023925
7.99662e-07
0.00239208
7.17304e-07
0.00239171
6.38594e-07
0.00239138
5.63141e-07
0.00239109
4.91895e-07
0.00239085
4.22755e-07
0.00239064
3.56768e-07
0.00239047
2.93466e-07
0.00239033
2.3369e-07
0.00239023
1.7572e-07
0.00239016
1.20392e-07
0.00239012
6.72301e-08
0.00239011
1.69535e-08
0.00239012
-3.21682e-08
0.00239017
-7.92838e-08
0.00239024
-1.24779e-07
0.00239034
-1.68619e-07
0.00239046
-2.1128e-07
0.00239061
-2.52781e-07
0.00239078
-2.93123e-07
0.00239097
-3.33019e-07
0.00239119
-3.71679e-07
0.00239143
-4.09828e-07
0.00239169
-4.47026e-07
0.00239197
-4.8478e-07
0.00239227
-5.211e-07
0.0023926
-5.57452e-07
0.00239294
-5.92906e-07
0.00239331
-6.29225e-07
0.0023937
-6.6434e-07
0.0023941
-6.99544e-07
0.00239453
-7.33698e-07
0.00239498
-7.68388e-07
0.00239545
-8.02273e-07
0.00239593
-8.3624e-07
0.00239644
-8.69171e-07
0.00239696
-8.9987e-07
0.0023975
-9.32731e-07
0.00239806
-9.64904e-07
0.00239864
-9.96223e-07
0.00239923
-1.02329e-06
0.00239984
-1.05417e-06
0.00240047
-1.08354e-06
0.00240111
-1.11248e-06
0.00240176
-1.12843e-06
0.00240243
-1.15722e-06
0.00240311
-1.18293e-06
0.00240381
-1.20955e-06
0.00240451
-1.22012e-06
0.00240523
-1.2459e-06
0.00240596
-1.26656e-06
0.00240669
-1.28901e-06
0.00240743
-1.27976e-06
0.00240818
-1.30153e-06
0.00240893
-1.31608e-06
0.00240969
-1.33497e-06
0.00241045
-1.32177e-06
0.00241122
-1.33869e-06
0.00241198
-1.34525e-06
0.00241274
-1.35691e-06
0.0024135
-1.32092e-06
0.00241426
-1.3303e-06
0.00241501
-1.32697e-06
0.00241575
-1.33149e-06
0.00241649
-1.30316e-06
0.00241721
-1.2825e-06
0.00241791
-1.26492e-06
-6.64057e-07
0.00403426
0.00368821
0.00373892
0.00068736
0.00360103
0.000305244
0.00351841
0.000185629
0.00346051
0.000131791
0.00341635
0.000101301
0.00338092
8.16797e-05
0.00335155
6.79322e-05
0.00332663
5.7742e-05
0.00330514
4.98996e-05
0.00328634
4.36878e-05
0.00326973
3.86509e-05
0.00325492
3.44872e-05
0.00324162
3.09911e-05
0.0032296
2.80161e-05
0.00321869
2.54565e-05
0.00320873
2.32322e-05
0.00319961
2.12829e-05
0.00319123
1.9561e-05
0.00318351
1.8031e-05
0.00317637
1.66627e-05
0.00316977
1.54327e-05
0.00316364
1.43209e-05
0.00315794
1.33127e-05
0.00315264
1.2394e-05
0.00314769
1.15541e-05
0.00314308
1.07826e-05
0.00313877
1.00733e-05
0.00313474
9.41857e-06
0.00313097
8.81271e-06
0.00312744
8.24994e-06
0.00312414
7.72716e-06
0.00312104
7.2398e-06
0.00311814
6.78474e-06
0.00311542
6.3582e-06
0.00311287
5.95903e-06
0.00311048
5.58412e-06
0.00310824
5.2316e-06
0.00310614
4.89911e-06
0.00310418
4.58583e-06
0.00310235
4.28981e-06
0.00310063
4.00986e-06
0.00309903
3.74446e-06
0.00309753
3.49298e-06
0.00309614
3.2542e-06
0.00309484
3.02726e-06
0.00309364
2.81133e-06
0.00309252
2.60557e-06
0.00309149
2.40939e-06
0.00309053
2.22212e-06
0.00308966
2.04373e-06
0.00308885
1.87268e-06
0.00308812
1.70919e-06
0.00308745
1.55264e-06
0.00308685
1.40346e-06
0.00308631
1.25998e-06
0.00308582
1.12279e-06
0.00308539
9.91308e-07
0.00308502
8.66621e-07
0.0030847
7.4606e-07
0.00308442
6.30874e-07
0.00308419
5.20369e-07
0.00308401
4.15526e-07
0.00308387
3.14135e-07
0.00308378
2.17183e-07
0.00308372
1.23978e-07
0.0030837
3.5297e-08
0.00308372
-5.1082e-08
0.00308378
-1.34082e-07
0.00308387
-2.14253e-07
0.00308399
-2.91658e-07
0.00308414
-3.66963e-07
0.00308433
-4.40217e-07
0.00308455
-5.11461e-07
0.0030848
-5.81676e-07
0.00308508
-6.49944e-07
0.00308539
-7.17125e-07
0.00308572
-7.82696e-07
0.00308608
-8.48606e-07
0.00308648
-9.12439e-07
0.00308689
-9.75937e-07
0.00308734
-1.03792e-06
0.00308781
-1.10069e-06
0.00308831
-1.16176e-06
0.00308883
-1.22253e-06
0.00308938
-1.2816e-06
0.00308995
-1.34102e-06
0.00309055
-1.3992e-06
0.00309117
-1.45699e-06
0.00309182
-1.51304e-06
0.00309248
-1.56598e-06
0.00309317
-1.62138e-06
0.00309388
-1.67523e-06
0.00309461
-1.72756e-06
0.00309537
-1.77413e-06
0.00309614
-1.82512e-06
0.00309693
-1.87335e-06
0.00309774
-1.92053e-06
0.00309856
-1.95117e-06
0.0030994
-1.99731e-06
0.00310026
-2.03847e-06
0.00310113
-2.08027e-06
0.00310201
-2.10143e-06
0.00310291
-2.14099e-06
0.00310381
-2.17279e-06
0.00310473
-2.20629e-06
0.00310565
-2.19989e-06
0.00310658
-2.23123e-06
0.00310752
-2.25187e-06
0.00310846
-2.27746e-06
0.0031094
-2.26221e-06
0.00311035
-2.28364e-06
0.00311129
-2.29028e-06
0.00311223
-2.30281e-06
0.00311317
-2.25561e-06
0.0031141
-2.26341e-06
0.00311503
-2.25353e-06
0.00311594
-2.25261e-06
0.00311685
-2.21019e-06
0.00311773
-2.16647e-06
0.0031186
-2.13744e-06
-1.11301e-06
0.00509521
0.00469385
0.00472975
0.00105283
0.00454516
0.00048983
0.00443475
0.000296043
0.00435841
0.000208122
0.00430083
0.000158889
0.00425496
0.000127546
0.00421713
0.000105763
0.00418516
8.97078e-05
0.00415766
7.74021e-05
0.00413366
6.7685e-05
0.00411249
5.98245e-05
0.00409364
5.33392e-05
0.00407673
4.79019e-05
0.00406146
4.32811e-05
0.00404761
3.93096e-05
0.00403498
3.58616e-05
0.00402342
3.28422e-05
0.00401281
3.0177e-05
0.00400303
2.78101e-05
0.00399399
2.56946e-05
0.00398563
2.37937e-05
0.00397788
2.20764e-05
0.00397067
2.05195e-05
0.00396396
1.91014e-05
0.00395771
1.78052e-05
0.00395188
1.66153e-05
0.00394643
1.55213e-05
0.00394134
1.45117e-05
0.00393657
1.35777e-05
0.00393211
1.27105e-05
0.00392794
1.19048e-05
0.00392402
1.1154e-05
0.00392035
1.0453e-05
0.00391692
9.79621e-06
0.00391369
9.18146e-06
0.00391067
8.60421e-06
0.00390784
8.06146e-06
0.00390519
7.54975e-06
0.00390271
7.06754e-06
0.00390039
6.61198e-06
0.00389822
6.18117e-06
0.00389619
5.77289e-06
0.0038943
5.38601e-06
0.00389253
5.01872e-06
0.00389089
4.66966e-06
0.00388936
4.3376e-06
0.00388795
4.02122e-06
0.00388664
3.71962e-06
0.00388543
3.43178e-06
0.00388431
3.15746e-06
0.00388329
2.89465e-06
0.00388236
2.64345e-06
0.00388151
2.403e-06
0.00388074
2.17364e-06
0.00388004
1.95325e-06
0.00387942
1.74246e-06
0.00387888
1.54043e-06
0.00387839
1.34837e-06
0.00387798
1.16299e-06
0.00387762
9.85686e-07
0.00387733
8.15555e-07
0.00387709
6.53663e-07
0.00387691
4.97287e-07
0.00387678
3.47524e-07
0.0038767
2.03481e-07
0.00387667
6.59495e-08
0.00387668
-6.78476e-08
0.00387675
-1.96602e-07
0.00387685
-3.20971e-07
0.003877
-4.4117e-07
0.00387719
-5.58057e-07
0.00387742
-6.71729e-07
0.00387769
-7.8226e-07
0.003878
-8.90947e-07
0.00387835
-9.96714e-07
0.00387873
-1.10056e-06
0.00387915
-1.20189e-06
0.00387961
-1.30313e-06
0.0038801
-1.4014e-06
0.00388062
-1.49872e-06
0.00388118
-1.59367e-06
0.00388177
-1.68916e-06
0.00388239
-1.78219e-06
0.00388304
-1.8743e-06
0.00388372
-1.96381e-06
0.00388443
-2.05335e-06
0.00388517
-2.14093e-06
0.00388595
-2.22749e-06
0.00388674
-2.31128e-06
0.00388757
-2.39101e-06
0.00388842
-2.47317e-06
0.0038893
-2.55284e-06
0.0038902
-2.62994e-06
0.00389113
-2.69974e-06
0.00389208
-2.77418e-06
0.00389305
-2.84466e-06
0.00389404
-2.91296e-06
0.00389505
-2.96105e-06
0.00389608
-3.027e-06
0.00389713
-3.0862e-06
0.0038982
-3.14513e-06
0.00389928
-3.17888e-06
0.00390037
-3.2337e-06
0.00390148
-3.27845e-06
0.00390259
-3.32396e-06
0.00390372
-3.3212e-06
0.00390485
-3.36255e-06
0.00390599
-3.39014e-06
0.00390713
-3.4223e-06
0.00390828
-3.40494e-06
0.00390942
-3.43017e-06
0.00391057
-3.43679e-06
0.00391171
-3.44895e-06
0.00391284
-3.38883e-06
0.00391397
-3.39329e-06
0.0039151
-3.3756e-06
0.0039162
-3.36687e-06
0.0039173
-3.30776e-06
0.00391837
-3.23477e-06
0.00391942
-3.19615e-06
-1.65965e-06
0.00634387
0.00561001
0.00590982
0.00148688
0.00566913
0.000730515
0.00552327
0.000441904
0.00542325
0.000308148
0.0053485
0.000233634
0.00528942
0.000186628
0.00524096
0.00015422
0.00520019
0.000130482
0.00516522
0.000112371
0.00513478
9.81206e-05
0.00510798
8.6625e-05
0.00508416
7.71619e-05
0.00506282
6.92428e-05
0.00504358
6.25233e-05
0.00502613
5.67553e-05
0.00501024
5.17533e-05
0.0049957
4.73773e-05
0.00498236
4.35181e-05
0.00497008
4.00931e-05
0.00495874
3.70339e-05
0.00494825
3.42866e-05
0.00493852
3.18062e-05
0.00492948
2.95582e-05
0.00492107
2.75117e-05
0.00491323
2.56418e-05
0.00490592
2.3926e-05
0.00489909
2.2349e-05
0.00489271
2.08939e-05
0.00488674
1.95481e-05
0.00488115
1.82992e-05
0.00487592
1.7139e-05
0.00487102
1.60579e-05
0.00486642
1.50488e-05
0.00486211
1.41039e-05
0.00485807
1.32193e-05
0.00485429
1.23888e-05
0.00485074
1.16081e-05
0.00484742
1.08723e-05
0.00484431
1.01789e-05
0.0048414
9.52392e-06
0.00483867
8.90462e-06
0.00483613
8.31787e-06
0.00483375
7.76186e-06
0.00483154
7.23411e-06
0.00482948
6.73262e-06
0.00482756
6.2556e-06
0.00482578
5.80121e-06
0.00482413
5.36811e-06
0.00482261
4.95485e-06
0.0048212
4.56088e-06
0.00481991
4.18368e-06
0.00481873
3.82317e-06
0.00481766
3.47813e-06
0.00481668
3.14877e-06
0.0048158
2.83254e-06
0.00481502
2.52997e-06
0.00481432
2.23995e-06
0.0048137
1.9637e-06
0.00481317
1.69737e-06
0.00481271
1.44246e-06
0.00481233
1.19777e-06
0.00481202
9.64398e-07
0.00481178
7.39149e-07
0.0048116
5.23193e-07
0.00481149
3.15374e-07
0.00481144
1.16451e-07
0.00481145
-7.68891e-08
0.00481151
-2.63147e-07
0.00481164
-4.43063e-07
0.00481181
-6.17016e-07
0.00481204
-7.8608e-07
0.00481232
-9.50399e-07
0.00481265
-1.11011e-06
0.00481302
-1.2668e-06
0.00481345
-1.41932e-06
0.00481391
-1.56876e-06
0.00481443
-1.71448e-06
0.00481498
-1.85932e-06
0.00481558
-2.00008e-06
0.00481622
-2.13899e-06
0.0048169
-2.27438e-06
0.00481762
-2.40971e-06
0.00481838
-2.54168e-06
0.00481918
-2.67179e-06
0.00482002
-2.79822e-06
0.00482089
-2.92398e-06
0.00482179
-3.04696e-06
0.00482273
-3.16791e-06
0.00482371
-3.28497e-06
0.00482471
-3.39676e-06
0.00482575
-3.51076e-06
0.00482682
-3.62087e-06
0.00482792
-3.72736e-06
0.00482904
-3.82478e-06
0.0048302
-3.92684e-06
0.00483137
-4.02316e-06
0.00483258
-4.11629e-06
0.0048338
-4.18588e-06
0.00483505
-4.27486e-06
0.00483632
-4.35462e-06
0.00483761
-4.43345e-06
0.00483892
-4.48274e-06
0.00484024
-4.55506e-06
0.00484157
-4.61406e-06
0.00484292
-4.67331e-06
0.00484428
-4.67716e-06
0.00484565
-4.72962e-06
0.00484702
-4.7642e-06
0.0048484
-4.80341e-06
0.00484978
-4.78525e-06
0.00485117
-4.81411e-06
0.00485255
-4.81935e-06
0.00485393
-4.83032e-06
0.0048553
-4.75872e-06
0.00485666
-4.75822e-06
0.00485802
-4.73011e-06
0.00485936
-4.71107e-06
0.00486068
-4.63412e-06
0.00486197
-4.52458e-06
0.00486324
-4.47329e-06
-2.31671e-06
0.00782498
0.00642447
0.00732969
0.00198217
0.00702383
0.00103637
0.00683327
0.000632459
0.00670272
0.000438696
0.00660586
0.000330497
0.00652983
0.000262658
0.00646783
0.000216225
0.00641588
0.000182423
0.00637149
0.000156761
0.00633297
0.000136647
0.00629912
0.000120473
0.00626909
0.000107193
0.00624223
9.61034e-05
0.00621804
8.67108e-05
0.00619614
7.86604e-05
0.0061762
7.16882e-05
0.00615798
6.55955e-05
0.00614127
6.0228e-05
0.0061259
5.54684e-05
0.00611171
5.12204e-05
0.00609859
4.74082e-05
0.00608643
4.39687e-05
0.00607513
4.08531e-05
0.00606463
3.80181e-05
0.00605484
3.5429e-05
0.00604571
3.30547e-05
0.00603719
3.08729e-05
0.00602922
2.88607e-05
0.00602177
2.70001e-05
0.00601479
2.52742e-05
0.00600826
2.36712e-05
0.00600214
2.2178e-05
0.0059964
2.07845e-05
0.00599103
1.94802e-05
0.00598599
1.82592e-05
0.00598126
1.71132e-05
0.00597684
1.60361e-05
0.00597269
1.50212e-05
0.0059688
1.40649e-05
0.00596516
1.31618e-05
0.00596176
1.23079e-05
0.00595858
1.14992e-05
0.00595561
1.07329e-05
0.00595284
1.00057e-05
0.00595025
9.31477e-06
0.00594785
8.65764e-06
0.00594562
8.03183e-06
0.00594355
7.43542e-06
0.00594164
6.86644e-06
0.00593988
6.32394e-06
0.00593826
5.80477e-06
0.00593677
5.3086e-06
0.00593542
4.83378e-06
0.00593419
4.38033e-06
0.00593307
3.94514e-06
0.00593207
3.52863e-06
0.00593119
3.12937e-06
0.0059304
2.74854e-06
0.00592972
2.38163e-06
0.00592913
2.03023e-06
0.00592863
1.6928e-06
0.00592823
1.37047e-06
0.00592791
1.05948e-06
0.00592767
7.6106e-07
0.00592751
4.73791e-07
0.00592743
1.98399e-07
0.00592742
-6.90994e-08
0.00592749
-3.27042e-07
0.00592762
-5.76173e-07
0.00592782
-8.17048e-07
0.00592808
-1.05098e-06
0.00592841
-1.27818e-06
0.0059288
-1.49887e-06
0.00592925
-1.71497e-06
0.00592975
-1.92522e-06
0.00593032
-2.13085e-06
0.00593093
-2.33116e-06
0.0059316
-2.52949e-06
0.00593233
-2.72223e-06
0.0059331
-2.91188e-06
0.00593392
-3.09654e-06
0.00593479
-3.28031e-06
0.00593571
-3.4594e-06
0.00593667
-3.63545e-06
0.00593768
-3.80639e-06
0.00593873
-3.97581e-06
0.00593983
-4.14124e-06
0.00594096
-4.30347e-06
0.00594214
-4.46034e-06
0.00594335
-4.61056e-06
0.00594461
-4.76244e-06
0.00594589
-4.90895e-06
0.00594722
-5.0504e-06
0.00594857
-5.18086e-06
0.00594996
-5.31564e-06
0.00595138
-5.44295e-06
0.00595283
-5.56558e-06
0.00595431
-5.66085e-06
0.00595581
-5.77705e-06
0.00595734
-5.88167e-06
0.00595889
-5.9841e-06
0.00596046
-6.05228e-06
0.00596205
-6.14529e-06
0.00596366
-6.22199e-06
0.00596528
-6.29767e-06
0.00596692
-6.30976e-06
0.00596857
-6.37542e-06
0.00597022
-6.41935e-06
0.00597188
-6.46714e-06
0.00597355
-6.44888e-06
0.00597522
-6.48222e-06
0.00597688
-6.48726e-06
0.00597855
-6.49729e-06
0.0059802
-6.41262e-06
0.00598185
-6.40671e-06
0.00598349
-6.36791e-06
0.00598511
-6.33739e-06
0.00598672
-6.24027e-06
0.00598828
-6.08782e-06
0.00598982
-6.02659e-06
-3.11911e-06
0.00958315
0.0071223
0.00904307
0.00252225
0.0086654
0.00141405
0.00841974
0.00087812
0.00825013
0.000608298
0.00812471
0.000455922
0.00802681
0.000360556
0.0079474
0.000295638
0.00788117
0.000248652
0.00782478
0.000213153
0.00777598
0.000185443
0.00773322
0.000163237
0.00769536
0.000145056
0.00766155
0.00012991
0.00763115
0.000117108
0.00760366
0.000106155
0.00757866
9.66825e-05
0.00755584
8.84161e-05
0.00753493
8.11425e-05
0.0075157
7.46989e-05
0.00749796
6.89533e-05
0.00748157
6.38012e-05
0.00746638
5.91566e-05
0.00745229
5.49519e-05
0.00743917
5.11283e-05
0.00742697
4.76383e-05
0.00741558
4.44398e-05
0.00740495
4.15016e-05
0.00739502
3.87931e-05
0.00738573
3.62896e-05
0.00737704
3.39684e-05
0.00736889
3.18131e-05
0.00736127
2.9806e-05
0.00735412
2.79336e-05
0.00734742
2.61817e-05
0.00734113
2.4542e-05
0.00733524
2.30034e-05
0.00732972
2.15575e-05
0.00732455
2.01958e-05
0.0073197
1.89127e-05
0.00731516
1.77012e-05
0.00731091
1.65561e-05
0.00730694
1.54718e-05
0.00730323
1.44445e-05
0.00729976
1.34698e-05
0.00729653
1.25439e-05
0.00729353
1.16634e-05
0.00729074
1.08251e-05
0.00728814
1.00263e-05
0.00728575
9.26435e-06
0.00728353
8.53779e-06
0.00728149
7.84279e-06
0.00727962
7.17863e-06
0.00727792
6.5431e-06
0.00727636
5.93595e-06
0.00727495
5.35345e-06
0.00727368
4.79586e-06
0.00727255
4.2613e-06
0.00727155
3.75081e-06
0.00727067
3.25929e-06
0.00726991
2.78829e-06
0.00726927
2.33591e-06
0.00726874
1.90319e-06
0.00726831
1.48587e-06
0.00726799
1.08517e-06
0.00726776
6.99351e-07
0.00726763
3.29064e-07
0.00726759
-3.03256e-08
0.00726764
-3.77123e-07
0.00726778
-7.12074e-07
0.007268
-1.03584e-06
0.0072683
-1.35001e-06
0.00726867
-1.65489e-06
0.00726913
-1.95082e-06
0.00726965
-2.24004e-06
0.00727025
-2.52128e-06
0.00727091
-2.79585e-06
0.00727164
-3.06307e-06
0.00727244
-3.32672e-06
0.0072733
-3.58291e-06
0.00727423
-3.83434e-06
0.00727521
-4.07897e-06
0.00727625
-4.32137e-06
0.00727735
-4.55757e-06
0.0072785
-4.78913e-06
0.00727971
-5.01392e-06
0.00728097
-5.23588e-06
0.00728228
-5.45248e-06
0.00728364
-5.6643e-06
0.00728505
-5.86915e-06
0.00728651
-6.06564e-06
0.00728801
-6.26304e-06
0.00728955
-6.45308e-06
0.00729114
-6.63661e-06
0.00729276
-6.80695e-06
0.00729443
-6.98106e-06
0.00729613
-7.14532e-06
0.00729787
-7.30356e-06
0.00729964
-7.43083e-06
0.00730145
-7.57981e-06
0.00730328
-7.71406e-06
0.00730514
-7.84514e-06
0.00730703
-7.93727e-06
0.00730894
-8.05541e-06
0.00731087
-8.15321e-06
0.00731282
-8.24913e-06
0.00731478
-8.27428e-06
0.00731677
-8.35624e-06
0.00731876
-8.41137e-06
0.00732076
-8.47012e-06
0.00732277
-8.45461e-06
0.00732478
-8.49397e-06
0.00732679
-8.49894e-06
0.0073288
-8.50871e-06
0.0073308
-8.41353e-06
0.00733279
-8.40186e-06
0.00733478
-8.35083e-06
0.00733674
-8.30733e-06
0.00733869
-8.18962e-06
0.00734059
-7.98635e-06
0.00734247
-7.91234e-06
-4.09014e-06
0.0116649
0.00769175
0.0111083
0.00307885
0.0106583
0.00186413
0.0103471
0.00118928
0.0101283
0.000827098
0.00996616
0.000618058
0.00984002
0.0004867
0.00973813
0.000397522
0.00965352
0.000333268
0.00958173
0.000284941
0.0095198
0.000247369
0.00946568
0.000217365
0.00941786
0.000192873
0.00937524
0.000172524
0.00933699
0.000155363
0.00930244
0.000140708
0.00927106
0.000128056
0.00924245
0.000117031
0.00921625
0.000107344
0.00919217
9.87715e-05
0.00916999
9.11359e-05
0.0091495
8.42955e-05
0.00913052
7.81344e-05
0.00911291
7.25609e-05
0.00909654
6.74962e-05
0.0090813
6.28764e-05
0.0090671
5.86453e-05
0.00905384
5.47603e-05
0.00904145
5.11809e-05
0.00902987
4.7874e-05
0.00901903
4.48095e-05
0.00900888
4.19648e-05
0.00899936
3.93169e-05
0.00899045
3.68474e-05
0.00898209
3.45381e-05
0.00897426
3.2377e-05
0.00896691
3.03498e-05
0.00896003
2.84453e-05
0.00895357
2.66522e-05
0.00894752
2.4963e-05
0.00894185
2.33685e-05
0.00893655
2.18617e-05
0.00893158
2.04353e-05
0.00892694
1.90842e-05
0.00892261
1.78024e-05
0.00891857
1.65851e-05
0.0089148
1.54278e-05
0.0089113
1.43261e-05
0.00890805
1.32765e-05
0.00890504
1.22756e-05
0.00890226
1.13212e-05
0.00889969
1.04085e-05
0.00889734
9.53638e-06
0.00889518
8.70197e-06
0.00889321
7.9046e-06
0.00889142
7.13983e-06
0.00888981
6.40762e-06
0.00888837
5.7056e-06
0.00888708
5.03466e-06
0.00888595
4.3889e-06
0.00888497
3.76984e-06
0.00888413
3.17513e-06
0.00888343
2.60574e-06
0.00888286
2.05676e-06
0.00888241
1.52942e-06
0.00888209
1.02159e-06
0.00888189
5.33888e-07
0.0088818
6.09352e-08
0.00888181
-3.957e-07
0.00888194
-8.36799e-07
0.00888217
-1.26298e-06
0.00888249
-1.67616e-06
0.00888291
-2.07679e-06
0.00888343
-2.46533e-06
0.00888403
-2.84444e-06
0.00888472
-3.21277e-06
0.0088855
-3.57182e-06
0.00888636
-3.9209e-06
0.0088873
-4.26434e-06
0.00888831
-4.59789e-06
0.0088894
-4.92455e-06
0.00889057
-5.24208e-06
0.0088918
-5.55575e-06
0.0088931
-5.86115e-06
0.00889447
-6.15996e-06
0.00889591
-6.4499e-06
0.00889741
-6.73549e-06
0.00889897
-7.01386e-06
0.00890059
-7.28564e-06
0.00890227
-7.54844e-06
0.00890401
-7.80092e-06
0.0089058
-8.05318e-06
0.00890764
-8.29596e-06
0.00890954
-8.53037e-06
0.00891148
-8.74911e-06
0.00891347
-8.9708e-06
0.0089155
-9.18023e-06
0.00891758
-9.38181e-06
0.0089197
-9.54808e-06
0.00892186
-9.73701e-06
0.00892405
-9.90805e-06
0.00892628
-1.00744e-05
0.00892854
-1.01964e-05
0.00893083
-1.03457e-05
0.00893315
-1.04706e-05
0.00893549
-1.05922e-05
0.00893786
-1.0634e-05
0.00894024
-1.07369e-05
0.00894263
-1.08079e-05
0.00894504
-1.08815e-05
0.00894746
-1.08711e-05
0.00894989
-1.09195e-05
0.00895231
-1.09274e-05
0.00895474
-1.09391e-05
0.00895716
-1.08327e-05
0.00895958
-1.08165e-05
0.00896198
-1.07542e-05
0.00896437
-1.06979e-05
0.00896673
-1.05578e-05
0.00896904
-1.02968e-05
0.00897134
-1.02133e-05
-5.28024e-06
0.0141222
0.00812849
0.0135876
0.00361341
0.013076
0.0023758
0.0126916
0.00157368
0.0124125
0.00110616
0.0122038
0.000826792
0.0120413
0.000649181
0.0119104
0.000528424
0.0118021
0.000441626
0.0117104
0.000376571
0.0116316
0.000326175
0.0115629
0.000286065
0.0115024
0.000253426
0.0114485
0.00022638
0.0114002
0.000203625
0.0113567
0.000184235
0.0113172
0.000167526
0.0112813
0.00015299
0.0112484
0.000140236
0.0112182
0.000128965
0.0111904
0.000118938
0.0111647
0.000109964
0.011141
0.00010189
0.0111189
9.45919e-05
0.0110985
8.79656e-05
0.0110794
8.19257e-05
0.0110617
7.63982e-05
0.0110451
7.13259e-05
0.0110296
6.66551e-05
0.0110152
6.23423e-05
0.0110016
5.83479e-05
0.0109889
5.46416e-05
0.0109771
5.11932e-05
0.0109659
4.79785e-05
0.0109555
4.49737e-05
0.0109457
4.21627e-05
0.0109365
3.95266e-05
0.0109279
3.70509e-05
0.0109199
3.4721e-05
0.0109123
3.25265e-05
0.0109052
3.04557e-05
0.0108986
2.84993e-05
0.0108924
2.66479e-05
0.0108866
2.48945e-05
0.0108811
2.32315e-05
0.0108761
2.16526e-05
0.0108713
2.01518e-05
0.0108669
1.87235e-05
0.0108629
1.73631e-05
0.0108591
1.6066e-05
0.0108556
1.48291e-05
0.0108523
1.36468e-05
0.0108493
1.25172e-05
0.0108466
1.14365e-05
0.0108441
1.04036e-05
0.0108418
9.4132e-06
0.0108398
8.46488e-06
0.0108379
7.55561e-06
0.0108363
6.68598e-06
0.0108348
5.84933e-06
0.0108335
5.04702e-06
0.0108324
4.27616e-06
0.0108315
3.53756e-06
0.0108307
2.82567e-06
0.0108301
2.14164e-06
0.0108297
1.4829e-06
0.0108293
8.49908e-07
0.0108292
2.36728e-07
0.0108291
-3.55489e-07
0.0108292
-9.27748e-07
0.0108294
-1.4804e-06
0.0108298
-2.0157e-06
0.0108302
-2.5343e-06
0.0108308
-3.03686e-06
0.0108315
-3.52641e-06
0.0108323
-4.00166e-06
0.0108332
-4.46427e-06
0.0108342
-4.91363e-06
0.0108353
-5.35456e-06
0.0108364
-5.7826e-06
0.0108377
-6.201e-06
0.0108391
-6.60746e-06
0.0108405
-7.00776e-06
0.0108421
-7.39732e-06
0.0108437
-7.77781e-06
0.0108454
-8.14697e-06
0.0108472
-8.50969e-06
0.010849
-8.86308e-06
0.0108509
-9.20751e-06
0.0108529
-9.54076e-06
0.010855
-9.86131e-06
0.0108571
-1.01802e-05
0.0108593
-1.04869e-05
0.0108616
-1.07834e-05
0.0108639
-1.10613e-05
0.0108662
-1.1341e-05
0.0108687
-1.16053e-05
0.0108711
-1.18601e-05
0.0108737
-1.20754e-05
0.0108762
-1.23134e-05
0.0108789
-1.25295e-05
0.0108815
-1.27395e-05
0.0108842
-1.28998e-05
0.010887
-1.30879e-05
0.0108898
-1.32466e-05
0.0108926
-1.34006e-05
0.0108954
-1.3467e-05
0.0108983
-1.35968e-05
0.0109011
-1.36882e-05
0.010904
-1.37815e-05
0.0109069
-1.37817e-05
0.0109099
-1.38429e-05
0.0109128
-1.3856e-05
0.0109157
-1.38721e-05
0.0109187
-1.3759e-05
0.0109216
-1.37396e-05
0.0109245
-1.36658e-05
0.0109274
-1.35963e-05
0.0109303
-1.34344e-05
0.0109331
-1.31068e-05
0.0109359
-1.30111e-05
-6.72364e-06
0.0170157
0.00843801
0.0165448
0.00408431
0.0160001
0.0029205
0.0155424
0.00203134
0.0151931
0.00145547
0.0149266
0.00109326
0.0147179
0.000857872
0.0145497
0.000696631
0.0144107
0.000580626
0.0142935
0.000493826
0.0141929
0.000426762
0.0141054
0.00037354
0.0140285
0.000330354
0.0139602
0.000294664
0.0138991
0.000264709
0.0138441
0.000239239
0.0137943
0.000217334
0.013749
0.000198312
0.0137076
0.000181649
0.0136696
0.000166945
0.0136347
0.000153879
0.0136024
0.000142202
0.0135726
0.000131705
0.013545
0.000122228
0.0135193
0.00011363
0.0134954
0.0001058
0.0134732
9.86401e-05
0.0134524
9.20742e-05
0.0134331
8.60321e-05
0.013415
8.04567e-05
0.013398
7.5296e-05
0.0133821
7.05099e-05
0.0133673
6.60591e-05
0.0133533
6.19119e-05
0.0133403
5.80376e-05
0.013328
5.44143e-05
0.0133165
5.1018e-05
0.0133058
4.78295e-05
0.0132956
4.48299e-05
0.0132862
4.20056e-05
0.0132773
3.93413e-05
0.013269
3.6825e-05
0.0132612
3.44445e-05
0.0132539
3.21906e-05
0.013247
3.00536e-05
0.0132407
2.80251e-05
0.0132347
2.60975e-05
0.0132292
2.42635e-05
0.013224
2.25171e-05
0.0132192
2.08524e-05
0.0132148
1.92651e-05
0.0132107
1.77484e-05
0.0132069
1.62993e-05
0.0132034
1.49134e-05
0.0132003
1.35885e-05
0.0131974
1.23185e-05
0.0131947
1.11024e-05
0.0131923
9.93629e-06
0.0131902
8.82053e-06
0.0131883
7.7474e-06
0.0131866
6.71808e-06
0.0131852
5.72904e-06
0.0131839
4.78088e-06
0.0131829
3.86724e-06
0.013182
2.9892e-06
0.0131814
2.14364e-06
0.0131809
1.33089e-06
0.0131806
5.44402e-07
0.0131805
-2.15256e-07
0.0131805
-9.49583e-07
0.0131807
-1.65852e-06
0.013181
-2.34461e-06
0.0131815
-3.00873e-06
0.0131821
-3.65179e-06
0.0131828
-4.2773e-06
0.0131837
-4.88398e-06
0.0131847
-5.47376e-06
0.0131858
-6.04613e-06
0.0131871
-6.60656e-06
0.0131885
-7.15022e-06
0.0131899
-7.6808e-06
0.0131915
-8.19588e-06
0.0131932
-8.702e-06
0.013195
-9.19415e-06
0.0131969
-9.67421e-06
0.0131989
-1.01399e-05
0.013201
-1.05966e-05
0.0132032
-1.10413e-05
0.0132055
-1.14743e-05
0.0132078
-1.18934e-05
0.0132102
-1.22969e-05
0.0132128
-1.2697e-05
0.0132154
-1.3082e-05
0.013218
-1.34541e-05
0.0132208
-1.38045e-05
0.0132236
-1.41553e-05
0.0132265
-1.44874e-05
0.0132294
-1.48077e-05
0.0132324
-1.50833e-05
0.0132355
-1.5382e-05
0.0132386
-1.56545e-05
0.0132418
-1.59192e-05
0.013245
-1.61276e-05
0.0132483
-1.63645e-05
0.0132516
-1.65667e-05
0.013255
-1.67624e-05
0.0132584
-1.68603e-05
0.0132618
-1.70251e-05
0.0132653
-1.71448e-05
0.0132687
-1.7265e-05
0.0132722
-1.72808e-05
0.0132758
-1.73608e-05
0.0132793
-1.73846e-05
0.0132828
-1.74099e-05
0.0132864
-1.72912e-05
0.0132899
-1.72719e-05
0.0132934
-1.71893e-05
0.0132969
-1.71084e-05
0.0133004
-1.6924e-05
0.0133038
-1.65221e-05
0.0133072
-1.64173e-05
-8.48839e-06
0.0204181
0.00863699
0.020045
0.00445733
0.0195159
0.00344959
0.0190009
0.0025464
0.0185768
0.00187952
0.018242
0.00142811
0.0179759
0.00112395
0.0177603
0.000912207
0.017582
0.000758946
0.0174317
0.000644117
0.017303
0.000555474
0.0171913
0.000485259
0.0170932
0.000428414
0.0170063
0.000381544
0.0169288
0.000342297
0.016859
0.000308997
0.0167959
0.000280416
0.0167386
0.00025564
0.0166863
0.000233975
0.0166383
0.000214884
0.0165943
0.000197946
0.0165536
0.000182826
0.0165161
0.000169253
0.0164813
0.000157009
0.016449
0.000145914
0.016419
0.000135819
0.016391
0.000126596
0.016365
0.000118145
0.0163406
0.000110374
0.0163179
0.000103208
0.0162966
9.65796e-05
0.0162767
9.0436e-05
0.016258
8.47262e-05
0.0162405
7.94086e-05
0.0162241
7.44438e-05
0.0162087
6.98026e-05
0.0161943
6.54541e-05
0.0161807
6.13734e-05
0.016168
5.75364e-05
0.0161561
5.39247e-05
0.0161449
5.0519e-05
0.0161344
4.73036e-05
0.0161246
4.42629e-05
0.0161154
4.13847e-05
0.0161068
3.86567e-05
0.0160988
3.60681e-05
0.0160913
3.36088e-05
0.0160843
3.12697e-05
0.0160777
2.9043e-05
0.0160717
2.69209e-05
0.016066
2.48979e-05
0.0160608
2.29654e-05
0.016056
2.11195e-05
0.0160516
1.93542e-05
0.0160475
1.76668e-05
0.0160438
1.60496e-05
0.0160404
1.4501e-05
0.0160373
1.30162e-05
0.0160345
1.15948e-05
0.016032
1.02283e-05
0.0160298
8.91737e-06
0.0160279