/*--------------------------------*- C++ -*----------------------------------*\
  =========                 |
  \\      /  F ield         | OpenFOAM: The Open Source CFD Toolbox
   \\    /   O peration     | Website:  https://openfoam.org
    \\  /    A nd           | Version:  8
     \\/     M anipulation  |
\*---------------------------------------------------------------------------*/
FoamFile
{
    version     2.0;
    format      ascii;
    class       volVectorField;
    location    "800";
    object      U;
}
// * * * * * * * * * * * * * * * * * * * * * * * * * * * * * * * * * * * * * //

dimensions      [0 1 -1 0 0 0 0];

internalField   nonuniform List<vector> 
7320
(
(22.6429 -0.848127 0)
(20.2991 -0.0156863 0)
(19.4729 0.000192381 0)
(18.9932 0.000303712 0)
(18.6577 0.000223815 0)
(18.4025 0.000174267 0)
(18.1985 0.000141577 0)
(18.0298 0.000118313 0)
(17.8872 0.000100895 0)
(17.7644 8.73991e-05 0)
(17.6573 7.66536e-05 0)
(17.5629 6.79092e-05 0)
(17.4788 6.06594e-05 0)
(17.4034 5.45581e-05 0)
(17.3353 4.93545e-05 0)
(17.2736 4.48722e-05 0)
(17.2174 4.09718e-05 0)
(17.1659 3.755e-05 0)
(17.1186 3.45216e-05 0)
(17.0751 3.18313e-05 0)
(17.035 2.94235e-05 0)
(16.9978 2.72578e-05 0)
(16.9633 2.52971e-05 0)
(16.9313 2.35202e-05 0)
(16.9015 2.19001e-05 0)
(16.8737 2.04185e-05 0)
(16.8478 1.90545e-05 0)
(16.8236 1.78029e-05 0)
(16.801 1.66466e-05 0)
(16.7798 1.55766e-05 0)
(16.76 1.45809e-05 0)
(16.7415 1.36574e-05 0)
(16.7241 1.27957e-05 0)
(16.7078 1.1991e-05 0)
(16.6926 1.1236e-05 0)
(16.6783 1.05303e-05 0)
(16.6649 9.86669e-06 0)
(16.6523 9.24271e-06 0)
(16.6406 8.6543e-06 0)
(16.6296 8.09975e-06 0)
(16.6193 7.57501e-06 0)
(16.6097 7.07849e-06 0)
(16.6007 6.61099e-06 0)
(16.5923 6.16523e-06 0)
(16.5845 5.74109e-06 0)
(16.5772 5.33765e-06 0)
(16.5704 4.95727e-06 0)
(16.5641 4.5914e-06 0)
(16.5583 4.24181e-06 0)
(16.553 3.90733e-06 0)
(16.548 3.5984e-06 0)
(16.5435 3.29328e-06 0)
(16.5394 3.00063e-06 0)
(16.5356 2.71938e-06 0)
(16.5322 2.46091e-06 0)
(16.5292 2.20333e-06 0)
(16.5264 1.95676e-06 0)
(16.524 1.71863e-06 0)
(16.5219 1.51494e-06 0)
(16.52 1.29824e-06 0)
(16.5185 1.09073e-06 0)
(16.5172 8.88589e-07 0)
(16.5161 7.18879e-07 0)
(16.5153 5.34778e-07 0)
(16.5147 3.60011e-07 0)
(16.5144 1.87244e-07 0)
(16.5142 6.5204e-08 0)
(16.5142 -9.14965e-08 0)
(16.5145 -2.41683e-07 0)
(16.5149 -3.94653e-07 0)
(16.5155 -5.04067e-07 0)
(16.5163 -6.45369e-07 0)
(16.5172 -7.79956e-07 0)
(16.5183 -9.19223e-07 0)
(16.5196 -1.00024e-06 0)
(16.521 -1.12831e-06 0)
(16.5226 -1.25384e-06 0)
(16.5243 -1.38633e-06 0)
(16.5262 -1.48151e-06 0)
(16.5283 -1.6063e-06 0)
(16.5304 -1.72754e-06 0)
(16.5328 -1.85154e-06 0)
(16.5352 -1.94709e-06 0)
(16.5379 -2.06389e-06 0)
(16.5406 -2.17936e-06 0)
(16.5435 -2.29305e-06 0)
(16.5466 -2.40884e-06 0)
(16.5498 -2.51738e-06 0)
(16.5531 -2.62562e-06 0)
(16.5566 -2.72318e-06 0)
(16.5602 -2.86586e-06 0)
(16.5639 -2.96409e-06 0)
(16.5678 -3.05959e-06 0)
(16.5718 -3.13389e-06 0)
(16.5759 -3.27862e-06 0)
(16.5802 -3.35436e-06 0)
(16.5845 -3.43331e-06 0)
(16.589 -3.48177e-06 0)
(16.5936 -3.67595e-06 0)
(16.5983 -3.74151e-06 0)
(16.6032 -3.79998e-06 0)
(16.6081 -3.81349e-06 0)
(16.6131 -3.97269e-06 0)
(16.6182 -4.00065e-06 0)
(16.6234 -4.03247e-06 0)
(16.6286 -4.01557e-06 0)
(16.6339 -4.22602e-06 0)
(16.6393 -4.24648e-06 0)
(16.6447 -4.25161e-06 0)
(16.6502 -4.19663e-06 0)
(16.6557 -4.32573e-06 0)
(16.6613 -4.29611e-06 0)
(16.6668 -4.26647e-06 0)
(16.6724 -4.18185e-06 0)
(16.6779 -4.33975e-06 0)
(16.6835 -4.29595e-06 0)
(16.689 -4.23726e-06 0)
(16.6945 -4.11086e-06 0)
(16.7 -4.13173e-06 0)
(16.7054 -3.97718e-06 0)
(16.7105 -3.88135e-06 0)
(16.7158 -1.96354e-06 0)
(26.6037 0.16714 0)
(23.9491 0.00743101 0)
(22.9106 0.00132356 0)
(22.324 0.00076137 0)
(21.922 0.00054753 0)
(21.6197 0.000424673 0)
(21.3794 0.000344309 0)
(21.1815 0.000287381 0)
(21.0145 0.000244876 0)
(20.8711 0.000212001 0)
(20.7461 0.000185863 0)
(20.636 0.000164611 0)
(20.5381 0.000147004 0)
(20.4503 0.000132194 0)
(20.3712 0.000119572 0)
(20.2994 0.0001087 0)
(20.2341 9.92421e-05 0)
(20.1743 9.09467e-05 0)
(20.1194 8.36115e-05 0)
(20.0688 7.70914e-05 0)
(20.0222 7.12568e-05 0)
(19.979 6.60091e-05 0)
(19.939 6.12626e-05 0)
(19.9018 5.69574e-05 0)
(19.8672 5.3033e-05 0)
(19.835 4.94437e-05 0)
(19.8049 4.6145e-05 0)
(19.7769 4.31127e-05 0)
(19.7506 4.03122e-05 0)
(19.7261 3.77202e-05 0)
(19.7031 3.53118e-05 0)
(19.6816 3.30745e-05 0)
(19.6615 3.09879e-05 0)
(19.6426 2.90391e-05 0)
(19.6249 2.72136e-05 0)
(19.6083 2.5504e-05 0)
(19.5927 2.38975e-05 0)
(19.5782 2.23865e-05 0)
(19.5645 2.09629e-05 0)
(19.5518 1.962e-05 0)
(19.5398 1.83502e-05 0)
(19.5286 1.71489e-05 0)
(19.5182 1.60153e-05 0)
(19.5085 1.49364e-05 0)
(19.4994 1.3911e-05 0)
(19.4909 1.29359e-05 0)
(19.4831 1.2013e-05 0)
(19.4758 1.11287e-05 0)
(19.469 1.02848e-05 0)
(19.4628 9.47825e-06 0)
(19.4571 8.72173e-06 0)
(19.4518 7.9854e-06 0)
(19.447 7.28051e-06 0)
(19.4426 6.60441e-06 0)
(19.4386 5.97113e-06 0)
(19.435 5.35162e-06 0)
(19.4318 4.75898e-06 0)
(19.429 4.18906e-06 0)
(19.4265 3.67379e-06 0)
(19.4243 3.15299e-06 0)
(19.4225 2.65512e-06 0)
(19.421 2.17428e-06 0)
(19.4197 1.74316e-06 0)
(19.4187 1.30349e-06 0)
(19.418 8.84828e-07 0)
(19.4176 4.77162e-07 0)
(19.4174 1.37915e-07 0)
(19.4174 -2.36423e-07 0)
(19.4177 -5.94895e-07 0)
(19.4181 -9.5011e-07 0)
(19.4188 -1.24865e-06 0)
(19.4197 -1.58034e-06 0)
(19.4208 -1.89888e-06 0)
(19.4221 -2.21847e-06 0)
(19.4236 -2.46737e-06 0)
(19.4253 -2.76907e-06 0)
(19.4271 -3.06396e-06 0)
(19.4291 -3.36378e-06 0)
(19.4313 -3.61958e-06 0)
(19.4337 -3.90795e-06 0)
(19.4363 -4.19024e-06 0)
(19.439 -4.47287e-06 0)
(19.4419 -4.72284e-06 0)
(19.445 -4.99667e-06 0)
(19.4482 -5.2671e-06 0)
(19.4516 -5.53228e-06 0)
(19.4551 -5.80005e-06 0)
(19.4588 -6.05769e-06 0)
(19.4627 -6.31381e-06 0)
(19.4667 -6.55326e-06 0)
(19.4709 -6.84246e-06 0)
(19.4752 -7.08058e-06 0)
(19.4797 -7.31353e-06 0)
(19.4843 -7.51701e-06 0)
(19.4891 -7.79744e-06 0)
(19.494 -7.99757e-06 0)
(19.499 -8.19895e-06 0)
(19.5041 -8.35863e-06 0)
(19.5094 -8.67394e-06 0)
(19.5148 -8.84667e-06 0)
(19.5203 -9.00764e-06 0)
(19.5259 -9.11061e-06 0)
(19.5316 -9.36583e-06 0)
(19.5373 -9.47563e-06 0)
(19.5432 -9.58408e-06 0)
(19.5491 -9.62906e-06 0)
(19.5551 -9.90421e-06 0)
(19.5612 -9.97999e-06 0)
(19.5673 -1.00306e-05 0)
(19.5734 -1.0007e-05 0)
(19.5796 -1.01614e-05 0)
(19.5858 -1.01519e-05 0)
(19.592 -1.01303e-05 0)
(19.5982 -1.00406e-05 0)
(19.6044 -1.01772e-05 0)
(19.6105 -1.01162e-05 0)
(19.6167 -1.0024e-05 0)
(19.6227 -9.85104e-06 0)
(19.6288 -9.81071e-06 0)
(19.6347 -9.51072e-06 0)
(19.6404 -9.35194e-06 0)
(19.6462 -4.7506e-06 0)
(28.9497 0.0984766 0)
(26.1304 0.00639105 0)
(24.9213 0.0023381 0)
(24.2467 0.00142135 0)
(23.7932 0.00101462 0)
(23.4561 0.00078273 0)
(23.1903 0.000632594 0)
(22.9724 0.000526941 0)
(22.7892 0.00044839 0)
(22.6322 0.000387806 0)
(22.4957 0.000339741 0)
(22.3756 0.000300719 0)
(22.2689 0.000268431 0)
(22.1734 0.000241297 0)
(22.0873 0.000218192 0)
(22.0093 0.000198302 0)
(21.9383 0.00018101 0)
(21.8733 0.00016585 0)
(21.8137 0.000152453 0)
(21.7589 0.000140546 0)
(21.7083 0.000129894 0)
(21.6615 0.000120316 0)
(21.6181 0.000111658 0)
(21.5778 0.000103803 0)
(21.5403 9.66457e-05 0)
(21.5054 9.01002e-05 0)
(21.4728 8.40883e-05 0)
(21.4424 7.85598e-05 0)
(21.414 7.34552e-05 0)
(21.3874 6.87309e-05 0)
(21.3625 6.43435e-05 0)
(21.3392 6.02664e-05 0)
(21.3174 5.6465e-05 0)
(21.2969 5.29147e-05 0)
(21.2777 4.95902e-05 0)
(21.2598 4.6476e-05 0)
(21.2429 4.35503e-05 0)
(21.2271 4.07987e-05 0)
(21.2124 3.82063e-05 0)
(21.1985 3.5761e-05 0)
(21.1856 3.34498e-05 0)
(21.1735 3.12633e-05 0)
(21.1621 2.91973e-05 0)
(21.1516 2.72336e-05 0)
(21.1417 2.53682e-05 0)
(21.1325 2.35946e-05 0)
(21.124 2.19127e-05 0)
(21.1161 2.03046e-05 0)
(21.1088 1.87707e-05 0)
(21.102 1.73056e-05 0)
(21.0958 1.59223e-05 0)
(21.09 1.45848e-05 0)
(21.0848 1.33051e-05 0)
(21.08 1.20789e-05 0)
(21.0757 1.09215e-05 0)
(21.0718 9.79797e-06 0)
(21.0683 8.72314e-06 0)
(21.0651 7.69108e-06 0)
(21.0624 6.73824e-06 0)
(21.06 5.79346e-06 0)
(21.058 4.89007e-06 0)
(21.0563 4.01991e-06 0)
(21.0549 3.22023e-06 0)
(21.0538 2.42247e-06 0)
(21.053 1.66087e-06 0)
(21.0525 9.22659e-07 0)
(21.0522 2.72945e-07 0)
(21.0522 -4.08956e-07 0)
(21.0525 -1.06317e-06 0)
(21.053 -1.70553e-06 0)
(21.0537 -2.27593e-06 0)
(21.0547 -2.87848e-06 0)
(21.0558 -3.45958e-06 0)
(21.0572 -4.03636e-06 0)
(21.0588 -4.52746e-06 0)
(21.0606 -5.07621e-06 0)
(21.0626 -5.6123e-06 0)
(21.0648 -6.15e-06 0)
(21.0672 -6.63391e-06 0)
(21.0698 -7.15347e-06 0)
(21.0726 -7.66246e-06 0)
(21.0755 -8.1683e-06 0)
(21.0786 -8.63138e-06 0)
(21.0819 -9.12405e-06 0)
(21.0854 -9.60878e-06 0)
(21.0891 -1.00841e-05 0)
(21.0929 -1.05557e-05 0)
(21.0969 -1.10182e-05 0)
(21.1011 -1.14746e-05 0)
(21.1054 -1.19078e-05 0)
(21.1099 -1.23832e-05 0)
(21.1145 -1.28104e-05 0)
(21.1193 -1.32255e-05 0)
(21.1242 -1.3603e-05 0)
(21.1293 -1.40518e-05 0)
(21.1345 -1.44179e-05 0)
(21.1398 -1.47777e-05 0)
(21.1453 -1.50848e-05 0)
(21.1508 -1.55384e-05 0)
(21.1565 -1.58517e-05 0)
(21.1623 -1.61416e-05 0)
(21.1682 -1.63614e-05 0)
(21.1742 -1.67227e-05 0)
(21.1803 -1.69378e-05 0)
(21.1864 -1.71381e-05 0)
(21.1926 -1.72611e-05 0)
(21.1989 -1.75947e-05 0)
(21.2053 -1.77378e-05 0)
(21.2116 -1.78368e-05 0)
(21.218 -1.78486e-05 0)
(21.2245 -1.80154e-05 0)
(21.2309 -1.80239e-05 0)
(21.2374 -1.79995e-05 0)
(21.2438 -1.78934e-05 0)
(21.2502 -1.79836e-05 0)
(21.2566 -1.78876e-05 0)
(21.2629 -1.77362e-05 0)
(21.2692 -1.74885e-05 0)
(21.2755 -1.73535e-05 0)
(21.2816 -1.68407e-05 0)
(21.2875 -1.65853e-05 0)
(21.2935 -8.45819e-06 0)
(30.6449 0.0459572 0)
(27.8131 0.00831863 0)
(26.4561 0.00392316 0)
(25.6943 0.00237911 0)
(25.1892 0.00168081 0)
(24.8184 0.00128804 0)
(24.5284 0.00103663 0)
(24.2922 0.000861124 0)
(24.0944 0.00073134 0)
(23.9254 0.000631623 0)
(23.7788 0.000552737 0)
(23.6501 0.000488832 0)
(23.5359 0.000436045 0)
(23.4338 0.000391748 0)
(23.3419 0.000354072 0)
(23.2586 0.000321669 0)
(23.1829 0.000293522 0)
(23.1137 0.000268861 0)
(23.0503 0.000247085 0)
(22.9919 0.000227739 0)
(22.9381 0.000210441 0)
(22.8883 0.000194893 0)
(22.8421 0.000180844 0)
(22.7993 0.000168104 0)
(22.7594 0.000156496 0)
(22.7223 0.000145885 0)
(22.6877 0.000136143 0)
(22.6554 0.000127185 0)
(22.6252 0.000118915 0)
(22.597 0.000111263 0)
(22.5705 0.000104159 0)
(22.5458 9.75579e-05 0)
(22.5226 9.14041e-05 0)
(22.5009 8.56576e-05 0)
(22.4805 8.02781e-05 0)
(22.4614 7.52386e-05 0)
(22.4435 7.05053e-05 0)
(22.4268 6.60542e-05 0)
(22.4111 6.1861e-05 0)
(22.3964 5.7906e-05 0)
(22.3826 5.41688e-05 0)
(22.3697 5.06338e-05 0)
(22.3577 4.72914e-05 0)
(22.3465 4.41171e-05 0)
(22.336 4.11025e-05 0)
(22.3262 3.82367e-05 0)
(22.3171 3.55167e-05 0)
(22.3087 3.29191e-05 0)
(22.3009 3.0442e-05 0)
(22.2937 2.80768e-05 0)
(22.287 2.58366e-05 0)
(22.2809 2.36778e-05 0)
(22.2753 2.16132e-05 0)
(22.2702 1.96358e-05 0)
(22.2655 1.7762e-05 0)
(22.2613 1.59501e-05 0)
(22.2576 1.42165e-05 0)
(22.2542 1.2553e-05 0)
(22.2513 1.10002e-05 0)
(22.2487 9.47553e-06 0)
(22.2465 8.01676e-06 0)
(22.2446 6.61305e-06 0)
(22.2431 5.30627e-06 0)
(22.2419 4.01675e-06 0)
(22.241 2.78343e-06 0)
(22.2404 1.59022e-06 0)
(22.2401 5.09931e-07 0)
(22.2401 -5.96224e-07 0)
(22.2403 -1.65911e-06 0)
(22.2408 -2.69797e-06 0)
(22.2415 -3.64591e-06 0)
(22.2425 -4.62205e-06 0)
(22.2437 -5.56538e-06 0)
(22.2451 -6.49633e-06 0)
(22.2468 -7.32415e-06 0)
(22.2487 -8.21165e-06 0)
(22.2508 -9.07803e-06 0)
(22.2531 -9.94049e-06 0)
(22.2556 -1.07375e-05 0)
(22.2583 -1.15706e-05 0)
(22.2612 -1.23862e-05 0)
(22.2643 -1.31927e-05 0)
(22.2676 -1.39467e-05 0)
(22.2711 -1.47316e-05 0)
(22.2747 -1.55017e-05 0)
(22.2785 -1.62555e-05 0)
(22.2825 -1.70002e-05 0)
(22.2867 -1.77319e-05 0)
(22.2911 -1.84505e-05 0)
(22.2956 -1.91362e-05 0)
(22.3002 -1.98621e-05 0)
(22.305 -2.05334e-05 0)
(22.31 -2.11833e-05 0)
(22.3151 -2.17832e-05 0)
(22.3204 -2.24541e-05 0)
(22.3257 -2.30307e-05 0)
(22.3312 -2.35911e-05 0)
(22.3369 -2.40831e-05 0)
(22.3426 -2.47247e-05 0)
(22.3485 -2.52124e-05 0)
(22.3545 -2.56623e-05 0)
(22.3605 -2.6024e-05 0)
(22.3667 -2.65271e-05 0)
(22.3729 -2.68678e-05 0)
(22.3792 -2.71785e-05 0)
(22.3856 -2.73912e-05 0)
(22.392 -2.78134e-05 0)
(22.3985 -2.80313e-05 0)
(22.405 -2.81834e-05 0)
(22.4116 -2.82268e-05 0)
(22.4181 -2.84164e-05 0)
(22.4247 -2.84335e-05 0)
(22.4313 -2.83954e-05 0)
(22.4378 -2.82539e-05 0)
(22.4444 -2.82973e-05 0)
(22.4509 -2.81424e-05 0)
(22.4573 -2.79061e-05 0)
(22.4637 -2.75477e-05 0)
(22.4701 -2.72911e-05 0)
(22.4763 -2.64829e-05 0)
(22.4823 -2.61179e-05 0)
(22.4884 -1.33427e-05 0)
(31.9342 0.0469922 0)
(29.2283 0.0125097 0)
(27.7543 0.00606046 0)
(26.9065 0.00365719 0)
(26.348 0.00255943 0)
(25.9421 0.00194753 0)
(25.6273 0.00155993 0)
(25.3724 0.00129159 0)
(25.1601 0.00109437 0)
(24.9793 0.000943508 0)
(24.8229 0.000824562 0)
(24.6858 0.000728456 0)
(24.5645 0.000649237 0)
(24.4562 0.000582872 0)
(24.3587 0.000526508 0)
(24.2706 0.00047809 0)
(24.1905 0.000436073 0)
(24.1174 0.000399294 0)
(24.0504 0.000366843 0)
(23.9888 0.00033803 0)
(23.9319 0.000312284 0)
(23.8794 0.000289155 0)
(23.8308 0.000268267 0)
(23.7856 0.00024933 0)
(23.7436 0.000232086 0)
(23.7045 0.000216325 0)
(23.6681 0.000201864 0)
(23.634 0.000188567 0)
(23.6022 0.000176297 0)
(23.5725 0.000164945 0)
(23.5447 0.00015441 0)
(23.5186 0.000144621 0)
(23.4942 0.000135499 0)
(23.4713 0.000126981 0)
(23.4499 0.00011901 0)
(23.4298 0.000111543 0)
(23.411 0.000104531 0)
(23.3933 9.7938e-05 0)
(23.3768 9.17279e-05 0)
(23.3613 8.58715e-05 0)
(23.3468 8.03387e-05 0)
(23.3332 7.5106e-05 0)
(23.3205 7.01568e-05 0)
(23.3087 6.5459e-05 0)
(23.2976 6.09986e-05 0)
(23.2873 5.67592e-05 0)
(23.2777 5.27334e-05 0)
(23.2688 4.88919e-05 0)
(23.2606 4.52293e-05 0)
(23.2529 4.17331e-05 0)
(23.2459 3.84155e-05 0)
(23.2394 3.52252e-05 0)
(23.2334 3.21747e-05 0)
(23.228 2.92538e-05 0)
(23.2231 2.64795e-05 0)
(23.2186 2.3803e-05 0)
(23.2146 2.12417e-05 0)
(23.211 1.87844e-05 0)
(23.2079 1.64756e-05 0)
(23.2051 1.42212e-05 0)
(23.2027 1.2063e-05 0)
(23.2007 9.9868e-06 0)
(23.199 8.03882e-06 0)
(23.1977 6.1285e-06 0)
(23.1967 4.29889e-06 0)
(23.196 2.53031e-06 0)
(23.1956 9.02626e-07 0)
(23.1955 -7.40534e-07 0)
(23.1957 -2.32148e-06 0)
(23.1961 -3.86252e-06 0)
(23.1969 -5.29049e-06 0)
(23.1978 -6.73886e-06 0)
(23.1991 -8.13983e-06 0)
(23.2005 -9.51733e-06 0)
(23.2022 -1.07721e-05 0)
(23.2042 -1.20846e-05 0)
(23.2063 -1.33648e-05 0)
(23.2087 -1.46329e-05 0)
(23.2112 -1.58217e-05 0)
(23.214 -1.70437e-05 0)
(23.217 -1.82386e-05 0)
(23.2202 -1.94161e-05 0)
(23.2236 -2.053e-05 0)
(23.2272 -2.16725e-05 0)
(23.2309 -2.27907e-05 0)
(23.2348 -2.38834e-05 0)
(23.239 -2.49604e-05 0)
(23.2432 -2.60174e-05 0)
(23.2477 -2.70517e-05 0)
(23.2523 -2.80412e-05 0)
(23.2571 -2.90683e-05 0)
(23.262 -3.00314e-05 0)
(23.2671 -3.09606e-05 0)
(23.2723 -3.18254e-05 0)
(23.2777 -3.276e-05 0)
(23.2832 -3.35858e-05 0)
(23.2888 -3.43825e-05 0)
(23.2945 -3.50933e-05 0)
(23.3004 -3.59569e-05 0)
(23.3064 -3.66494e-05 0)
(23.3124 -3.72861e-05 0)
(23.3186 -3.78142e-05 0)
(23.3249 -3.84832e-05 0)
(23.3312 -3.89701e-05 0)
(23.3376 -3.94081e-05 0)
(23.3441 -3.9725e-05 0)
(23.3506 -4.02519e-05 0)
(23.3572 -4.05551e-05 0)
(23.3638 -4.07665e-05 0)
(23.3704 -4.08446e-05 0)
(23.3771 -4.10606e-05 0)
(23.3837 -4.10845e-05 0)
(23.3904 -4.1027e-05 0)
(23.3971 -4.08413e-05 0)
(23.4037 -4.08306e-05 0)
(23.4103 -4.06033e-05 0)
(23.4169 -4.02644e-05 0)
(23.4233 -3.97733e-05 0)
(23.4298 -3.93726e-05 0)
(23.4361 -3.82038e-05 0)
(23.4422 -3.77232e-05 0)
(23.4484 -1.92949e-05 0)
(32.9266 0.0603716 0)
(30.4695 0.0174492 0)
(28.9196 0.00880608 0)
(27.99 0.00533476 0)
(27.3757 0.00370685 0)
(26.9322 0.00280126 0)
(26.5909 0.00223228 0)
(26.3162 0.00184148 0)
(26.0885 0.00155608 0)
(25.8954 0.00133882 0)
(25.7288 0.00116818 0)
(25.5832 0.00103071 0)
(25.4546 0.000917681 0)
(25.3399 0.000823178 0)
(25.2369 0.000743054 0)
(25.1439 0.00067432 0)
(25.0594 0.000614746 0)
(24.9824 0.000562653 0)
(24.9118 0.000516735 0)
(24.847 0.000475996 0)
(24.7873 0.00043962 0)
(24.7321 0.000406961 0)
(24.6809 0.000377486 0)
(24.6335 0.000350777 0)
(24.5894 0.000326466 0)
(24.5484 0.000304258 0)
(24.5101 0.000283889 0)
(24.4744 0.000265165 0)
(24.4411 0.000247893 0)
(24.4099 0.000231919 0)
(24.3807 0.0002171 0)
(24.3534 0.000203333 0)
(24.3278 0.000190506 0)
(24.3038 0.000178533 0)
(24.2813 0.00016733 0)
(24.2602 0.000156838 0)
(24.2405 0.000146988 0)
(24.2219 0.000137727 0)
(24.2046 0.000129006 0)
(24.1883 0.000120784 0)
(24.1731 0.000113017 0)
(24.1588 0.000105672 0)
(24.1455 9.87248e-05 0)
(24.1331 9.21331e-05 0)
(24.1214 8.58757e-05 0)
(24.1106 7.99294e-05 0)
(24.1005 7.42813e-05 0)
(24.0911 6.88949e-05 0)
(24.0824 6.37604e-05 0)
(24.0744 5.88602e-05 0)
(24.067 5.42048e-05 0)
(24.0601 4.97346e-05 0)
(24.0538 4.54608e-05 0)
(24.0481 4.13693e-05 0)
(24.0428 3.74771e-05 0)
(24.0381 3.37278e-05 0)
(24.0338 3.01391e-05 0)
(24.03 2.66963e-05 0)
(24.0266 2.34472e-05 0)
(24.0237 2.02862e-05 0)
(24.0211 1.72582e-05 0)
(24.0189 1.43455e-05 0)
(24.0171 1.15982e-05 0)
(24.0156 8.9148e-06 0)
(24.0145 6.34208e-06 0)
(24.0137 3.85638e-06 0)
(24.0132 1.54421e-06 0)
(24.013 -7.68174e-07 0)
(24.0131 -2.99552e-06 0)
(24.0135 -5.16259e-06 0)
(24.0142 -7.1903e-06 0)
(24.0151 -9.22592e-06 0)
(24.0164 -1.11956e-05 0)
(24.0178 -1.31269e-05 0)
(24.0195 -1.49126e-05 0)
(24.0214 -1.67499e-05 0)
(24.0236 -1.85402e-05 0)
(24.026 -2.03069e-05 0)
(24.0286 -2.19775e-05 0)
(24.0314 -2.36749e-05 0)
(24.0345 -2.53325e-05 0)
(24.0377 -2.69614e-05 0)
(24.0411 -2.85129e-05 0)
(24.0447 -3.00879e-05 0)
(24.0486 -3.16259e-05 0)
(24.0525 -3.31271e-05 0)
(24.0567 -3.46028e-05 0)
(24.0611 -3.60495e-05 0)
(24.0656 -3.74613e-05 0)
(24.0703 -3.88142e-05 0)
(24.0751 -4.0199e-05 0)
(24.0801 -4.15092e-05 0)
(24.0853 -4.277e-05 0)
(24.0906 -4.39501e-05 0)
(24.096 -4.51957e-05 0)
(24.1015 -4.63171e-05 0)
(24.1072 -4.73936e-05 0)
(24.1131 -4.83647e-05 0)
(24.119 -4.94879e-05 0)
(24.125 -5.04236e-05 0)
(24.1312 -5.12815e-05 0)
(24.1374 -5.20085e-05 0)
(24.1437 -5.28718e-05 0)
(24.1501 -5.35335e-05 0)
(24.1566 -5.41232e-05 0)
(24.1631 -5.4567e-05 0)
(24.1698 -5.52157e-05 0)
(24.1764 -5.5623e-05 0)
(24.1831 -5.59071e-05 0)
(24.1898 -5.60313e-05 0)
(24.1966 -5.62793e-05 0)
(24.2033 -5.63161e-05 0)
(24.2101 -5.62401e-05 0)
(24.2168 -5.60089e-05 0)
(24.2235 -5.59365e-05 0)
(24.2302 -5.56301e-05 0)
(24.2369 -5.51767e-05 0)
(24.2435 -5.45369e-05 0)
(24.25 -5.39715e-05 0)
(24.2565 -5.23775e-05 0)
(24.2627 -5.17798e-05 0)
(24.2691 -2.65162e-05 0)
(33.6709 0.0694784 0)
(31.5724 0.022704 0)
(30.0008 0.0122434 0)
(28.9993 0.00751391 0)
(28.3282 0.00520147 0)
(27.8445 0.00390706 0)
(27.4742 0.00309741 0)
(27.1779 0.00254504 0)
(26.9335 0.00214414 0)
(26.727 0.00184049 0)
(26.5495 0.00160296 0)
(26.3948 0.00141224 0)
(26.2583 0.00125586 0)
(26.137 0.00112541 0)
(26.0282 0.00101502 0)
(25.93 0.000920478 0)
(25.841 0.000838653 0)
(25.7598 0.000767191 0)
(25.6856 0.00070427 0)
(25.6174 0.000648496 0)
(25.5547 0.000598738 0)
(25.4967 0.0005541 0)
(25.443 0.000513841 0)
(25.3933 0.000477382 0)
(25.347 0.000444215 0)
(25.304 0.000413932 0)
(25.2639 0.000386173 0)
(25.2265 0.000360664 0)
(25.1916 0.000337143 0)
(25.1589 0.000315397 0)
(25.1283 0.000295233 0)
(25.0997 0.000276504 0)
(25.0729 0.000259059 0)
(25.0477 0.000242781 0)
(25.0242 0.000227555 0)
(25.0021 0.000213297 0)
(24.9814 0.000199914 0)
(24.962 0.000187336 0)
(24.9438 0.000175494 0)
(24.9268 0.000164329 0)
(24.9108 0.000153787 0)
(24.8959 0.000143819 0)
(24.8819 0.00013439 0)
(24.8688 0.000125447 0)
(24.8566 0.00011696 0)
(24.8452 0.000108896 0)
(24.8346 0.000101236 0)
(24.8248 9.39335e-05 0)
(24.8156 8.69743e-05 0)
(24.8071 8.03341e-05 0)
(24.7993 7.40204e-05 0)
(24.7921 6.79644e-05 0)
(24.7854 6.21753e-05 0)
(24.7793 5.66339e-05 0)
(24.7738 5.13564e-05 0)
(24.7687 4.62783e-05 0)
(24.7642 4.14169e-05 0)
(24.7601 3.6753e-05 0)
(24.7565 3.23371e-05 0)
(24.7533 2.80521e-05 0)
(24.7505 2.39454e-05 0)
(24.7481 1.99952e-05 0)
(24.7461 1.62546e-05 0)
(24.7445 1.26118e-05 0)
(24.7432 9.11644e-06 0)
(24.7423 5.74053e-06 0)
(24.7417 2.57679e-06 0)
(24.7414 -5.65572e-07 0)
(24.7414 -3.59523e-06 0)
(24.7417 -6.53895e-06 0)
(24.7423 -9.31167e-06 0)
(24.7432 -1.20739e-05 0)
(24.7444 -1.47466e-05 0)
(24.7458 -1.73613e-05 0)
(24.7475 -1.98035e-05 0)
(24.7494 -2.22858e-05 0)
(24.7515 -2.47021e-05 0)
(24.7539 -2.70793e-05 0)
(24.7565 -2.934e-05 0)
(24.7593 -3.16169e-05 0)
(24.7624 -3.38375e-05 0)
(24.7656 -3.60148e-05 0)
(24.7691 -3.80977e-05 0)
(24.7727 -4.01954e-05 0)
(24.7765 -4.22404e-05 0)
(24.7806 -4.42341e-05 0)
(24.7848 -4.61896e-05 0)
(24.7891 -4.81049e-05 0)
(24.7937 -4.99697e-05 0)
(24.7984 -5.17594e-05 0)
(24.8033 -5.35717e-05 0)
(24.8083 -5.52978e-05 0)
(24.8135 -5.69558e-05 0)
(24.8188 -5.85147e-05 0)
(24.8243 -6.01308e-05 0)
(24.8299 -6.16074e-05 0)
(24.8356 -6.30193e-05 0)
(24.8415 -6.4305e-05 0)
(24.8475 -6.57368e-05 0)
(24.8536 -6.69662e-05 0)
(24.8598 -6.80915e-05 0)
(24.866 -6.90619e-05 0)
(24.8724 -7.0158e-05 0)
(24.8789 -7.10347e-05 0)
(24.8854 -7.18113e-05 0)
(24.892 -7.24156e-05 0)
(24.8987 -7.3212e-05 0)
(24.9054 -7.37524e-05 0)
(24.9122 -7.41322e-05 0)
(24.919 -7.43231e-05 0)
(24.9258 -7.46165e-05 0)
(24.9327 -7.46807e-05 0)
(24.9395 -7.45946e-05 0)
(24.9464 -7.43239e-05 0)
(24.9532 -7.41872e-05 0)
(24.96 -7.38012e-05 0)
(24.9668 -7.32267e-05 0)
(24.9735 -7.24267e-05 0)
(24.9802 -7.16792e-05 0)
(24.9868 -6.95915e-05 0)
(24.9931 -6.88766e-05 0)
(24.9996 -3.53087e-05 0)
(34.1947 0.0755308 0)
(32.5411 0.0282332 0)
(31.0182 0.016421 0)
(29.9639 0.010304 0)
(29.2379 0.00713878 0)
(28.712 0.00533866 0)
(28.3102 0.00421211 0)
(27.9902 0.00344701 0)
(27.7273 0.0028947 0)
(27.5061 0.0024784 0)
(27.3165 0.0021541 0)
(27.1518 0.00189464 0)
(27.0068 0.00168251 0)
(26.8782 0.00150601 0)
(26.763 0.00135698 0)
(26.6593 0.00122958 0)
(26.5653 0.00111949 0)
(26.4798 0.00102348 0)
(26.4016 0.000939052 0)
(26.3299 0.000864296 0)
(26.2639 0.000797668 0)
(26.203 0.000737949 0)
(26.1466 0.000684133 0)
(26.0944 0.00063543 0)
(26.0459 0.000591154 0)
(26.0007 0.000550752 0)
(25.9587 0.00051374 0)
(25.9194 0.000479745 0)
(25.8828 0.000448412 0)
(25.8486 0.000419458 0)
(25.8165 0.000392621 0)
(25.7865 0.000367702 0)
(25.7584 0.000344501 0)
(25.7321 0.000322858 0)
(25.7074 0.000302622 0)
(25.6843 0.000283676 0)
(25.6626 0.0002659 0)
(25.6423 0.000249196 0)
(25.6232 0.000233473 0)
(25.6053 0.000218653 0)
(25.5886 0.000204663 0)
(25.5729 0.000191438 0)
(25.5582 0.000178929 0)
(25.5445 0.00016707 0)
(25.5317 0.000155816 0)
(25.5197 0.000145126 0)
(25.5086 0.000134971 0)
(25.4982 0.000125295 0)
(25.4885 0.000116075 0)
(25.4796 0.00010728 0)
(25.4713 9.8912e-05 0)
(25.4637 9.08929e-05 0)
(25.4566 8.3228e-05 0)
(25.4502 7.58922e-05 0)
(25.4443 6.88995e-05 0)
(25.4389 6.21769e-05 0)
(25.4341 5.57401e-05 0)
(25.4297 4.95649e-05 0)
(25.4258 4.37033e-05 0)
(25.4223 3.8027e-05 0)
(25.4193 3.25845e-05 0)
(25.4167 2.73493e-05 0)
(25.4145 2.23774e-05 0)
(25.4127 1.75465e-05 0)
(25.4113 1.29083e-05 0)
(25.4102 8.43015e-06 0)
(25.4094 4.21023e-06 0)
(25.409 4.18201e-08 0)
(25.4089 -3.98021e-06 0)
(25.4091 -7.88458e-06 0)
(25.4096 -1.15795e-05 0)
(25.4104 -1.52382e-05 0)
(25.4115 -1.87775e-05 0)
(25.4128 -2.22332e-05 0)
(25.4144 -2.54843e-05 0)
(25.4163 -2.87575e-05 0)
(25.4184 -3.19405e-05 0)
(25.4207 -3.50642e-05 0)
(25.4233 -3.80465e-05 0)
(25.4261 -4.10291e-05 0)
(25.4291 -4.39346e-05 0)
(25.4323 -4.67785e-05 0)
(25.4357 -4.95067e-05 0)
(25.4394 -5.22374e-05 0)
(25.4432 -5.48955e-05 0)
(25.4472 -5.74851e-05 0)
(25.4514 -6.00198e-05 0)
(25.4558 -6.25006e-05 0)
(25.4604 -6.49117e-05 0)
(25.4651 -6.72291e-05 0)
(25.47 -6.95555e-05 0)
(25.475 -7.17834e-05 0)
(25.4802 -7.39204e-05 0)
(25.4856 -7.59383e-05 0)
(25.491 -7.80002e-05 0)
(25.4967 -7.99075e-05 0)
(25.5024 -8.17263e-05 0)
(25.5083 -8.33964e-05 0)
(25.5143 -8.52002e-05 0)
(25.5204 -8.67891e-05 0)
(25.5267 -8.82424e-05 0)
(25.533 -8.95153e-05 0)
(25.5394 -9.08964e-05 0)
(25.5459 -9.20423e-05 0)
(25.5525 -9.30542e-05 0)
(25.5592 -9.38658e-05 0)
(25.5659 -9.48473e-05 0)
(25.5727 -9.55621e-05 0)
(25.5796 -9.6072e-05 0)
(25.5864 -9.63618e-05 0)
(25.5933 -9.67232e-05 0)
(25.6003 -9.68396e-05 0)
(25.6072 -9.67607e-05 0)
(25.6142 -9.64653e-05 0)
(25.6211 -9.62683e-05 0)
(25.628 -9.58096e-05 0)
(25.6349 -9.51129e-05 0)
(25.6418 -9.4147e-05 0)
(25.6486 -9.32034e-05 0)
(25.6553 -9.05495e-05 0)
(25.6618 -8.97185e-05 0)
(25.6685 -4.60425e-05 0)
(34.5334 0.0801402 0)
(33.3602 0.0337828 0)
(31.9723 0.0212954 0)
(30.8975 0.0138032 0)
(30.1241 0.00962832 0)
(29.5557 0.00718747 0)
(29.1205 0.00564903 0)
(28.7745 0.00460538 0)
(28.4912 0.00385486 0)
(28.2535 0.00329156 0)
(28.0506 0.00285447 0)
(27.8746 0.002506 0)
(27.7203 0.002222 0)
(27.5835 0.00198632 0)
(27.4613 0.00178779 0)
(27.3515 0.00161843 0)
(27.2521 0.00147234 0)
(27.1617 0.00134513 0)
(27.0792 0.00123343 0)
(27.0035 0.00113465 0)
(26.934 0.00104671 0)
(26.8699 0.000967959 0)
(26.8106 0.000897066 0)
(26.7556 0.000832958 0)
(26.7047 0.000774723 0)
(26.6572 0.00072162 0)
(26.6131 0.000673006 0)
(26.5719 0.000628378 0)
(26.5334 0.000587269 0)
(26.4975 0.000549299 0)
(26.4638 0.000514124 0)
(26.4324 0.000481476 0)
(26.4029 0.000451091 0)
(26.3753 0.000422758 0)
(26.3494 0.000396277 0)
(26.3251 0.000371492 0)
(26.3023 0.000348245 0)
(26.281 0.000326407 0)
(26.261 0.000305857 0)
(26.2422 0.000286494 0)
(26.2246 0.000268219 0)
(26.2081 0.000250949 0)
(26.1927 0.000234615 0)
(26.1782 0.000219135 0)
(26.1647 0.000204449 0)
(26.1521 0.000190503 0)
(26.1404 0.000177254 0)
(26.1294 0.000164636 0)
(26.1192 0.000152615 0)
(26.1098 0.00014115 0)
(26.101 0.000130238 0)
(26.0929 0.000119788 0)
(26.0854 0.000109801 0)
(26.0786 0.000100244 0)
(26.0723 9.11286e-05 0)
(26.0666 8.23712e-05 0)
(26.0614 7.39851e-05 0)
(26.0567 6.594e-05 0)
(26.0525 5.82882e-05 0)
(26.0487 5.08903e-05 0)
(26.0454 4.37949e-05 0)
(26.0426 3.69699e-05 0)
(26.0402 3.04733e-05 0)
(26.0381 2.41724e-05 0)
(26.0365 1.81204e-05 0)
(26.0352 1.22791e-05 0)
(26.0342 6.75135e-06 0)
(26.0336 1.31653e-06 0)
(26.0334 -3.93055e-06 0)
(26.0335 -9.02143e-06 0)
(26.0338 -1.38561e-05 0)
(26.0345 -1.86196e-05 0)
(26.0355 -2.32259e-05 0)
(26.0367 -2.77157e-05 0)
(26.0382 -3.19623e-05 0)
(26.04 -3.6205e-05 0)
(26.042 -4.0327e-05 0)
(26.0443 -4.43632e-05 0)
(26.0468 -4.82277e-05 0)
(26.0495 -5.20707e-05 0)
(26.0525 -5.58104e-05 0)
(26.0557 -5.94651e-05 0)
(26.059 -6.29784e-05 0)
(26.0626 -6.64772e-05 0)
(26.0664 -6.9879e-05 0)
(26.0704 -7.31912e-05 0)
(26.0746 -7.64276e-05 0)
(26.0789 -7.95933e-05 0)
(26.0835 -8.26661e-05 0)
(26.0882 -8.56239e-05 0)
(26.0931 -8.85719e-05 0)
(26.0981 -9.14085e-05 0)
(26.1033 -9.4127e-05 0)
(26.1086 -9.6704e-05 0)
(26.1141 -9.93067e-05 0)
(26.1198 -0.00010174 0)
(26.1255 -0.000104056 0)
(26.1314 -0.000106199 0)
(26.1374 -0.000108456 0)
(26.1436 -0.000110488 0)
(26.1498 -0.000112348 0)
(26.1562 -0.000114 0)
(26.1626 -0.000115735 0)
(26.1692 -0.00011722 0)
(26.1758 -0.000118532 0)
(26.1825 -0.000119613 0)
(26.1893 -0.000120831 0)
(26.1962 -0.000121776 0)
(26.2031 -0.000122464 0)
(26.21 -0.000122899 0)
(26.217 -0.000123362 0)
(26.224 -0.000123567 0)
(26.2311 -0.000123524 0)
(26.2381 -0.000123229 0)
(26.2451 -0.000122983 0)
(26.2522 -0.000122467 0)
(26.2592 -0.000121654 0)
(26.2662 -0.000120523 0)
(26.2731 -0.000119374 0)
(26.28 -0.000116076 0)
(26.2866 -0.000115133 0)
(26.2935 -5.91478e-05 0)
(34.7383 0.0835127 0)
(34.0044 0.0389143 0)
(32.8456 0.0266757 0)
(31.8006 0.0180608 0)
(30.9964 0.0127823 0)
(30.3892 0.00956165 0)
(29.9198 0.00749912 0)
(29.546 0.00609465 0)
(29.2402 0.0050859 0)
(28.9844 0.00433096 0)
(28.7664 0.00374711 0)
(28.578 0.00328318 0)
(28.413 0.00290621 0)
(28.2672 0.00259425 0)
(28.1371 0.00233211 0)
(28.0204 0.00210896 0)
(27.9149 0.00191685 0)
(27.8191 0.00174986 0)
(27.7318 0.00160346 0)
(27.6518 0.00147416 0)
(27.5783 0.0013592 0)
(27.5106 0.00125638 0)
(27.4481 0.00116391 0)
(27.3901 0.00108036 0)
(27.3364 0.00100454 0)
(27.2864 0.000935451 0)
(27.2399 0.000872252 0)
(27.1966 0.000814272 0)
(27.1561 0.000760898 0)
(27.1183 0.000711627 0)
(27.0829 0.00066601 0)
(27.0498 0.00062369 0)
(27.0188 0.000584324 0)
(26.9898 0.000547632 0)
(26.9625 0.000513352 0)
(26.937 0.000481281 0)
(26.913 0.000451211 0)
(26.8905 0.000422974 0)
(26.8695 0.000396411 0)
(26.8497 0.00037139 0)
(26.8312 0.000347783 0)
(26.8138 0.00032548 0)
(26.7975 0.000304391 0)
(26.7823 0.00028441 0)
(26.768 0.000265462 0)
(26.7547 0.00024747 0)
(26.7423 0.000230382 0)
(26.7307 0.000214112 0)
(26.7199 0.000198617 0)
(26.7099 0.000183841 0)
(26.7006 0.000169774 0)
(26.692 0.000156313 0)
(26.684 0.000143449 0)
(26.6767 0.000131141 0)
(26.67 0.000119395 0)
(26.6638 0.000108118 0)
(26.6582 9.73182e-05 0)
(26.6532 8.69581e-05 0)
(26.6486 7.7089e-05 0)
(26.6445 6.75601e-05 0)
(26.6409 5.84184e-05 0)
(26.6378 4.96258e-05 0)
(26.6351 4.12409e-05 0)
(26.6328 3.31213e-05 0)
(26.6309 2.53199e-05 0)
(26.6293 1.77928e-05 0)
(26.6282 1.06461e-05 0)
(26.6274 3.64787e-06 0)
(26.6269 -3.11096e-06 0)
(26.6268 -9.66687e-06 0)
(26.627 -1.59101e-05 0)
(26.6275 -2.20357e-05 0)
(26.6284 -2.79567e-05 0)
(26.6295 -3.37188e-05 0)
(26.6308 -3.9191e-05 0)
(26.6325 -4.46236e-05 0)
(26.6344 -4.9897e-05 0)
(26.6366 -5.50507e-05 0)
(26.639 -5.99954e-05 0)
(26.6416 -6.48894e-05 0)
(26.6445 -6.96471e-05 0)
(26.6476 -7.42909e-05 0)
(26.6509 -7.87616e-05 0)
(26.6545 -8.31953e-05 0)
(26.6582 -8.75017e-05 0)
(26.6621 -9.16933e-05 0)
(26.6662 -9.57826e-05 0)
(26.6706 -9.97813e-05 0)
(26.675 -0.000103658 0)
(26.6797 -0.000107396 0)
(26.6845 -0.0001111 0)
(26.6896 -0.000114678 0)
(26.6947 -0.000118105 0)
(26.7 -0.000121366 0)
(26.7055 -0.000124629 0)
(26.7111 -0.000127706 0)
(26.7169 -0.000130633 0)
(26.7228 -0.000133361 0)
(26.7288 -0.000136174 0)
(26.7349 -0.000138757 0)
(26.7412 -0.000141122 0)
(26.7476 -0.000143251 0)
(26.754 -0.000145427 0)
(26.7606 -0.000147344 0)
(26.7673 -0.000149038 0)
(26.774 -0.00015047 0)
(26.7809 -0.000151992 0)
(26.7877 -0.000153242 0)
(26.7947 -0.000154172 0)
(26.8017 -0.000154812 0)
(26.8088 -0.000155426 0)
(26.8159 -0.000155771 0)
(26.823 -0.000155803 0)
(26.8301 -0.000155545 0)
(26.8373 -0.000155274 0)
(26.8444 -0.000154724 0)
(26.8515 -0.000153811 0)
(26.8586 -0.000152521 0)