/*--------------------------------*- C++ -*----------------------------------*\
  =========                 |
  \\      /  F ield         | OpenFOAM: The Open Source CFD Toolbox
   \\    /   O peration     | Website:  https://openfoam.org
    \\  /    A nd           | Version:  7
     \\/     M anipulation  |
\*---------------------------------------------------------------------------*/
FoamFile
{
    version     2.0;
    format      ascii;
    class       volScalarField;
    location    "4.6";
    object      T;
}
// * * * * * * * * * * * * * * * * * * * * * * * * * * * * * * * * * * * * * //

dimensions      [0 0 0 1 0 0 0];

internalField   nonuniform List<scalar> 
32100
(
1.05405e+136
4.21285e+135
-4.22307e+134
-5.20689e+132
5.42053e+132
-3.13629e+131
-9.37745e+130
1.12352e+130
-3.40772e+127
-1.25674e+128
6.60909e+126
3.01722e+125
-1.45746e+123
-2.13911e+123
-6.46153e+122
4.74908e+135
-4.51097e+134
-6.64826e+132
5.68088e+132
-3.11294e+131
-9.75138e+130
1.15044e+130
-2.33733e+127
-1.2508e+128
1.2158e+127
3.46295e+126
4.25312e+125
-1.67478e+124
-2.01924e+123
-5.61536e+122
-4.81069e+134
-8.68599e+132
6.0528e+132
-3.10888e+131
-1.02325e+131
1.18972e+130
-1.59343e+127
-1.30594e+128
1.28193e+127
3.32323e+126
1.11567e+126
2.54251e+125
-2.56003e+124
-1.43336e+123
-4.58617e+122
-1.1415e+133
6.81551e+132
-2.86369e+131
-1.11755e+131
1.21429e+130
6.96736e+127
-1.3865e+128
9.54239e+126
2.23907e+126
5.36723e+124
3.55899e+125
8.82484e+124
-2.39748e+124
-9.17766e+122
-3.20088e+122
8.36211e+132
-3.73787e+130
-1.01265e+131
9.41054e+129
-8.67339e+127
-7.32461e+127
7.19531e+126
-2.45352e+125
-2.82536e+125
7.10603e+124
5.28874e+124
9.34547e+123
-1.64991e+124
-4.67647e+122
-1.65581e+122
8.67069e+131
1.13637e+131
2.97874e+130
-3.08963e+129
-2.83981e+128
7.51723e+127
-1.47963e+126
-2.59664e+126
-2.09657e+124
8.19513e+123
-1.1366e+124
-9.38048e+123
-8.74042e+123
-1.0019e+122
-4.44237e+121
8.99294e+131
2.48423e+131
1.74398e+130
-3.08147e+129
-1.58953e+128
6.31858e+127
-2.87612e+126
-2.22904e+126
-4.35986e+124
9.66499e+123
-9.65302e+123
-7.0044e+123
-3.43364e+123
1.2194e+122
1.81838e+121
9.86268e+131
2.2461e+131
1.80614e+130
-2.68358e+129
-1.98715e+128
5.76163e+127
-1.48237e+126
-2.16994e+126
-6.43272e+124
1.59425e+124
-3.83659e+123
-2.275e+123
-8.14214e+122
1.8187e+122
3.18887e+121
8.95878e+131
2.13983e+131
1.9018e+130
-2.43642e+129
-2.29831e+128
5.43094e+127
-4.42573e+125
-2.08777e+126
-8.47879e+124
1.7717e+124
-1.1527e+123
-1.96978e+122
4.70055e+121
1.38313e+122
2.20088e+121
8.22509e+131
2.03564e+131
1.97014e+130
-2.16451e+129
-2.5554e+128
5.01059e+127
5.52531e+125
-1.98329e+126
-1.0562e+125
1.69826e+124
-5.53837e+122
5.80123e+121
1.67077e+122
7.17213e+121
9.14768e+120
7.54972e+131
1.93289e+131
2.03204e+130
-1.87878e+129
-2.78852e+128
4.54326e+127
1.4773e+126
-1.86175e+126
-1.24268e+125
1.55316e+124
-3.30398e+122
-2.18326e+121
1.08678e+122
2.64533e+121
1.6586e+120
6.92577e+131
1.84256e+131
2.07031e+130
-1.58523e+129
-2.9875e+128
4.03843e+127
2.31108e+126
-1.72689e+126
-1.39781e+125
1.37569e+124
-1.15048e+122
-7.43714e+121
5.8415e+121
8.16548e+120
-6.09127e+119
6.37961e+131
1.74698e+131
2.00593e+130
-1.30616e+129
-3.10786e+128
3.51021e+127
3.02837e+126
-1.58378e+126
-1.51578e+125
1.17756e+124
7.94849e+121
-8.00611e+121
3.87102e+121
3.70246e+120
-4.35332e+119
5.76968e+131
1.45288e+131
1.674e+130
-9.15336e+128
-2.88045e+128
2.9508e+127
3.46442e+126
-1.43472e+126
-1.58841e+125
9.69969e+123
2.41952e+122
-8.71474e+121
2.56123e+121
2.53919e+120
-2.45379e+119
4.09903e+131
1.08313e+131
1.39433e+130
-5.80942e+128
-2.45441e+128
2.15979e+127
3.4426e+126
-1.2127e+126
-1.61574e+125
7.80231e+123
4.17123e+122
-1.03026e+122
2.54056e+121
2.89493e+120
-1.6053e+119
2.90395e+131
8.74756e+130
1.26168e+130
-3.69243e+128
-2.19677e+128
1.52081e+127
3.51512e+126
-1.00407e+126
-1.6715e+125
5.95341e+123
6.21229e+122
-1.16925e+122
2.94271e+121
4.04129e+120
-1.20201e+119
2.45158e+131
7.82867e+130
1.19799e+130
-2.20374e+128
-2.1136e+128
1.11605e+127
3.79245e+126
-8.58432e+125
-1.75672e+125
3.89529e+123
8.17782e+122
-1.21426e+122
2.86179e+121
5.16234e+120
-8.45779e+118
2.16196e+131
7.29772e+130
1.18331e+130
-8.85325e+127
-2.09142e+128
7.54772e+126
4.03211e+126
-7.28883e+125
-1.84093e+125
1.52987e+123
9.9536e+122
-1.18984e+122
2.45835e+121
5.90821e+120
-3.08779e+118
1.92386e+131
6.82308e+130
1.16695e+130
4.52784e+127
-2.05442e+128
3.73152e+126
4.21957e+126
-5.98109e+125
-1.9144e+125
-1.12489e+123
1.14614e+123
-1.10076e+122
1.8989e+121
6.28029e+120
4.20198e+118
1.71999e+131
6.36332e+130
1.1456e+130
1.83349e+128
-1.99693e+128
-3.11448e+125
4.33543e+126
-4.60103e+125
-1.96811e+125
-4.02799e+123
1.26158e+123
-9.66838e+121
1.34391e+121
6.5414e+120
1.31352e+119
1.53257e+131
5.89188e+130
1.11658e+130
3.2217e+128
-1.91561e+128
-4.52556e+126
4.36126e+126
-3.14562e+125
-1.99853e+125
-7.1662e+123
1.33479e+123
-7.68889e+121
7.70964e+120
6.58443e+120
2.2959e+119
1.35258e+131
5.39564e+130
1.08263e+130
4.5994e+128
-1.80687e+128
-8.85076e+126
4.27809e+126
-1.63479e+125
-2.00662e+125
-1.05654e+124
1.36105e+123
-5.15601e+121
2.14885e+120
6.27141e+120
3.19304e+119
1.18172e+131
4.8963e+130
1.04601e+130
5.94629e+128
-1.66869e+128
-1.31983e+127
4.07006e+126
-8.41359e+123
-1.99166e+125
-1.42906e+124
1.33751e+123
-2.28292e+121
-2.57872e+120
5.83913e+120
3.93949e+119
1.02263e+131
4.4092e+130
1.00627e+130
7.24437e+128
-1.49724e+128
-1.74073e+127
3.72703e+126
1.48939e+125
-1.94875e+125
-1.83866e+124
1.2564e+123
9.50498e+120
-6.6024e+120
5.41924e+120
4.58302e+119
8.78375e+130
3.95535e+130
9.65088e+129
8.49172e+128
-1.29195e+128
-2.13549e+127
3.23916e+126
3.06109e+125
-1.8699e+125
-2.28066e+124
1.09721e+123
4.64825e+121
-1.01588e+121
5.02505e+120
5.22325e+119
7.49139e+130
3.53522e+130
9.2066e+129
9.66826e+128
-1.05241e+128
-2.49258e+127
2.59613e+126
4.58966e+125
-1.74537e+125
-2.7522e+124
8.33101e+122
8.98665e+121
-1.34003e+121
4.65383e+120
6.00077e+119
6.36602e+130
3.14563e+130
8.73567e+129
1.07727e+129
-7.77551e+127
-2.79803e+127
1.79046e+126
6.02388e+125
-1.56457e+125
-3.24677e+124
4.28344e+122
1.39952e+122
-1.6083e+121
4.18701e+120
6.88941e+119
5.41133e+130
2.80009e+130
8.28853e+129
1.18355e+129
-4.66133e+127
-3.03466e+127
8.15163e+125
7.29599e+125
-1.31487e+125
-3.77662e+124
-1.53815e+122
1.92544e+122
-1.74153e+121
3.50001e+120
7.64047e+119
4.59254e+130
2.50339e+130
7.8922e+129
1.28656e+129
-1.16534e+127
-3.18553e+127
-3.32275e+125
8.3272e+125
-9.85865e+124
-4.30816e+124
-9.51725e+122
2.45266e+122
-1.71372e+121
2.67094e+120
8.23823e+119
3.86838e+130
2.23577e+130
7.50882e+129
1.38084e+129
2.70864e+127
-3.22797e+127
-1.65248e+126
9.00845e+125
-5.71353e+124
-4.79938e+124
-2.00367e+123
2.94713e+122
-1.4913e+121
1.71009e+120
8.6921e+119
3.21364e+130
1.96539e+130
7.04226e+129
1.45757e+129
6.92696e+127
-3.13346e+127
-3.14012e+126
9.19474e+125
-6.21656e+123
-5.23083e+124
-3.37387e+123
3.29786e+122
-9.80389e+120
6.22731e+119
8.81461e+119
2.63497e+130
1.68728e+130
6.43759e+129
1.51525e+129
1.14405e+128
-2.87095e+127
-4.76978e+126
8.67926e+125
5.47536e+124
-5.53389e+124
-5.15791e+123
3.38521e+122
-1.94103e+120
-4.34711e+119
8.79341e+119
2.15938e+130
1.4387e+130
5.84742e+129
1.5537e+129
1.61801e+128
-2.40393e+127
-6.48055e+126
7.19201e+125
1.24835e+125
-5.61734e+124
-7.48453e+123
3.18485e+122
9.04618e+120
-1.51563e+120
9.04423e+119
1.77598e+130
1.25017e+130
5.41801e+129
1.57861e+129
2.11458e+128
-1.6965e+127
-8.17206e+126
4.47606e+125
1.99791e+125
-5.3288e+124
-1.04606e+124
2.40789e+122
2.6489e+121
-2.85744e+120
9.62975e+119
1.45458e+130
1.10107e+130
5.07749e+129
1.59553e+129
2.63778e+128
-7.05732e+126
-9.66482e+126
3.30019e+124
2.71644e+125
-4.48376e+124
-1.41462e+124
3.20248e+121
5.35369e+121
-4.42854e+120
1.01273e+120
1.18242e+130
9.55852e+129
4.69148e+129
1.60595e+129
3.1872e+128
6.20228e+126
-1.06263e+127
-5.31536e+125
3.28774e+125
-2.86696e+124
-1.83688e+124
-4.18333e+122
9.27065e+121
-5.79316e+120
9.6257e+119
9.53692e+129
8.18338e+129
4.28868e+129
1.61382e+129
3.7644e+128
2.31223e+127
-1.07973e+127
-1.23494e+126
3.56364e+125
-3.324e+123
-2.24835e+124
-1.29325e+123
1.41934e+122
-5.65274e+120
6.38526e+119
7.6064e+129
6.99719e+129
3.93358e+129
1.61806e+129
4.35822e+128
4.35505e+127
-9.98415e+126
-2.04557e+126
3.36089e+125
3.10109e+124
-2.52843e+124
-2.67829e+123
1.80191e+122
-1.42684e+120
-1.57319e+119
5.98055e+129
5.98056e+129
3.61686e+129
1.60958e+129
4.91547e+128
6.65374e+127
-7.92134e+126
-2.90333e+126
2.48605e+125
7.12771e+124
-2.52817e+124
-4.56679e+123
1.70795e+122
1.00095e+121
-1.4939e+120
4.61575e+129
5.0983e+129
3.3286e+129
1.58627e+129
5.32869e+128
9.08695e+127
-4.37256e+126
-3.70498e+126
8.20037e+124
1.10546e+125
-2.11991e+124
-6.83011e+123
5.3084e+121
3.25526e+121
-3.17697e+120
3.47575e+129
4.28799e+129
3.0359e+129
1.53674e+129
5.5754e+128
1.15194e+128
7.25039e+125
-4.27301e+126
-1.62147e+125
1.4051e+125
-1.25694e+124
-9.1864e+123
-2.83413e+122
6.88409e+121
-4.21739e+120
2.54541e+129
3.5087e+129
2.71475e+129
1.45111e+129
5.72305e+128
1.38296e+128
7.1686e+126
-4.50147e+126
-4.74618e+125
1.54862e+125
-1.78479e+122
-1.08997e+124
-7.98923e+122
1.01267e+122
-2.66139e+120
1.83076e+129
2.78832e+129
2.36199e+129
1.34443e+129
5.79717e+128
1.593e+128
1.45847e+127
-4.22579e+126
-8.38699e+125
1.48258e+125
1.37087e+124
-1.09513e+124
-1.36955e+123
1.14221e+122
2.36958e+120
1.30885e+129
2.18189e+129
2.01404e+129
1.24e+129
5.8069e+128
1.77759e+128
2.2547e+127
-3.47379e+126
-1.14166e+126
1.1858e+125
2.70671e+124
-9.90119e+123
-1.94738e+123
1.0491e+122
1.02205e+121
9.37963e+128
1.70795e+129
1.71697e+129
1.14635e+129
5.7743e+128
1.93979e+128
3.07238e+127
-2.33707e+126
-1.35245e+126
6.76384e+124
3.89545e+124
-8.14783e+123
-2.21741e+123
8.07472e+121
3.2445e+121
6.75966e+128
1.34817e+129
1.47362e+129
1.06082e+129
5.72446e+128
2.08776e+128
3.90787e+127
-9.32768e+125
-1.50526e+126
9.19173e+123
4.32567e+124
-5.59623e+123
-2.02173e+123
9.2478e+120
2.41172e+121
4.8697e+128
1.07083e+129
1.27684e+129
9.86499e+128
5.66936e+128
2.23001e+128
4.77771e+127
6.81143e+125
-1.59531e+126
-4.69502e+124
4.36685e+124
-3.43247e+123
-1.73082e+123
-2.02507e+121
1.22883e+121
3.49091e+128
8.50388e+128
1.11155e+129
9.21871e+128
5.60086e+128
2.35886e+128
5.67453e+127
2.53483e+126
-1.67844e+126
-1.00118e+125
4.54131e+124
-1.96012e+123
-1.60016e+123
-3.4628e+121
9.20902e+120
2.4604e+128
6.687e+128
9.59918e+128
8.57741e+128
5.48722e+128
2.45516e+128
6.53119e+127
4.66178e+126
-1.73235e+126
-1.57771e+125
4.68332e+124
-8.23794e+122
-1.59201e+123
-4.80085e+121
9.14188e+120
1.70456e+128
5.1892e+128
8.20969e+128
7.93945e+128
5.33523e+128
2.52521e+128
7.33405e+127
7.06186e+126
-1.71725e+126
-2.20561e+125
4.76346e+124
2.07976e+122
-1.62127e+123
-6.34504e+121
1.00949e+121
1.1562e+128
3.98277e+128
7.01113e+128
7.35303e+128
5.17985e+128
2.59334e+128
8.18793e+127
9.78992e+126
-1.63043e+126
-2.87246e+125
4.73007e+124
1.18313e+123
-1.61473e+123
-7.83535e+121
1.00784e+121
7.63017e+127
3.01321e+128
5.95987e+128
6.74509e+128
5.02749e+128
2.66234e+128
9.13763e+127
1.30185e+127
-1.45921e+126
-3.56572e+125
4.50976e+124
2.04793e+123
-1.51713e+123
-8.7479e+121
7.17676e+120
4.9317e+127
2.22618e+128
4.94376e+128
6.09491e+128
4.8672e+128
2.73262e+128
1.01343e+128
1.6838e+127
-1.17586e+126
-4.26659e+125
4.10919e+124
2.68928e+123
-1.33564e+123
-8.83783e+121
2.01185e+120
3.11206e+127
1.60613e+128
3.99541e+128
5.45993e+128
4.7295e+128
2.80858e+128
1.1184e+128
2.12659e+127
-7.48794e+125
-4.92673e+125
3.57879e+124
3.00747e+123
-1.10059e+123
-8.25468e+121
-5.03458e+120
1.87149e+127
1.1346e+128
3.19083e+128
4.8744e+128
4.59948e+128
2.88028e+128
1.22779e+128
2.63135e+127
-1.49128e+125
-5.48986e+125
2.95836e+124
2.89248e+123
-8.28134e+122
-7.19643e+121
-1.51917e+121
1.04264e+127
7.72998e+127
2.49501e+128
4.30436e+128
4.42107e+128
2.93976e+128
1.34194e+128
3.19952e+127
6.50244e+125
-5.87876e+125
2.29377e+124
2.21686e+123
-5.28854e+122
-4.50809e+121
-2.04408e+121
5.14131e+126
4.9693e+127
1.8852e+128
3.71091e+128
4.18913e+128
2.98502e+128
1.46422e+128
3.85777e+127
1.67016e+126
-5.82617e+125
1.58916e+124
1.02838e+123
-1.83353e+122
-1.30951e+121
-2.00641e+121
2.09792e+126
2.9585e+127
1.3625e+128
3.11077e+128
3.89941e+128
3.00424e+128
1.58449e+128
4.60294e+127
2.91411e+126
-5.30919e+125
9.56007e+123
-1.0411e+122
5.13751e+121
2.44208e+120
-1.89894e+121
5.99764e+125
1.58074e+127
9.26452e+127
2.51524e+128
3.54123e+128
2.98665e+128
1.69819e+128
5.37316e+127
4.41646e+126
-4.68786e+125
4.34986e+123
-4.46691e+122
8.04865e+121
3.93703e+121
-1.71786e+121
1.44792e+124
7.17287e+126
5.77679e+127
1.93992e+128
3.12778e+128
2.93285e+128
1.80778e+128
6.04876e+127
6.30277e+126
-5.45205e+125
-3.13569e+122
-7.15397e+122
3.44855e+121
-4.86287e+121
-8.18111e+121
-1.0268e+125
2.35793e+126
3.12704e+127
1.40322e+128
2.67985e+128
2.84578e+128
1.91197e+128
6.47741e+127
8.54663e+126
-7.97932e+125
-3.33227e+123
2.18147e+123
1.6577e+123
9.20976e+122
2.03804e+122
-1.79375e+124
2.91108e+125
1.28825e+127
9.16735e+127
2.2102e+128
2.72584e+128
2.01099e+128
6.67026e+127
1.06451e+127
-2.67067e+125
-6.44303e+124
-5.36042e+123
-1.02366e+124
-4.96027e+123
-1.27319e+123
6.05705e+124
-1.88483e+123
2.31587e+126
4.92708e+127
1.71819e+128
2.56419e+128
2.10712e+128
7.01741e+127
1.38048e+127
1.63883e+126
-2.39526e+125
-6.52014e+124
-6.49392e+124
-5.48361e+124
-2.39187e+124
6.97201e+124
1.5308e+125
-1.18188e+126
1.5565e+127
1.20045e+128
2.34585e+128
2.19267e+128
7.45259e+127
1.66101e+127
5.05581e+126
1.93952e+126
1.77249e+126
2.52268e+126
3.2069e+126
1.87934e+126
9.69984e+124
2.43984e+125
-9.84462e+125
-3.86053e+126
6.73903e+127
2.06165e+128
2.24983e+128
7.66623e+127
1.59236e+127
5.28848e+126
6.78003e+126
6.28301e+126
8.07543e+126
6.43838e+126
3.51713e+126
7.04213e+125
2.13145e+125
-1.97536e+126
-5.63461e+126
2.54777e+127
1.7071e+128
2.23088e+128
7.78313e+127
1.39903e+127
6.18485e+125
1.46152e+126
3.16623e+126
3.02885e+126
2.50646e+126
3.36746e+126
-3.11815e+127
-1.38272e+127
-7.19264e+126
-3.72465e+126
2.37947e+127
1.25744e+128
2.07067e+128
7.87117e+127
1.43725e+127
-7.11718e+124
9.91659e+124
3.25364e+125
4.52819e+125
7.77824e+125
2.88505e+126
1.70085e+128
7.6414e+127
2.17348e+127
5.23883e+126
5.78868e+127
1.41492e+128
1.74485e+128
7.65138e+127
1.84165e+127
8.27005e+126
3.4887e+126
1.73946e+126
1.13698e+126
8.31817e+125
2.3399e+126
4.19367e+129
1.31382e+129
6.61091e+128
4.30024e+128
2.82978e+128
2.15538e+128
1.91108e+128
6.20048e+127
2.61146e+127
1.31417e+127
6.07636e+126
2.95407e+126
1.63744e+126
9.30438e+125
1.99722e+126
-3.63165e+130
-8.3903e+129
-5.3021e+128
6.8872e+128
7.7075e+128
5.72024e+128
3.4968e+128
1.99323e+128
8.39522e+127
3.38136e+127
1.37133e+127
5.90107e+126
2.77394e+126
1.33687e+126
1.69137e+126
-3.13807e+131
-7.7559e+130
-3.67213e+130
-1.61338e+130
-6.75672e+129
-2.69037e+129
-6.08173e+128
5.51324e+127
9.76317e+127
5.08163e+127
2.20024e+127
9.28006e+126
4.02471e+126
1.84087e+126
2.39525e+126
6.76673e+132
6.84124e+131
-6.40555e+129
-3.79704e+130
-2.63641e+130
-1.13252e+130
-2.6227e+129
-3.38499e+128
1.86546e+127
3.07605e+127
1.2899e+127
3.07327e+126
-2.87645e+125
-7.81271e+125
-1.32607e+126
-1.59401e+133
4.71631e+132
1.71391e+132
3.002e+131
2.59931e+130
-9.29259e+129
-3.24027e+129
-3.53224e+128
7.66393e+127
1.08612e+128
8.71427e+127
6.12879e+127
3.77474e+127
1.92521e+127
1.13651e+127
-6.257e+134
-3.66401e+133
4.92865e+132
8.56967e+131
5.19524e+130
1.04072e+130
-1.93684e+129
-8.1294e+127
2.60134e+128
9.28186e+127
-6.3011e+126
-3.22566e+127
-2.07445e+127
-2.14979e+126
1.20306e+127
3.37895e+135
-6.06296e+134
-3.88096e+133
8.58491e+132
-6.55643e+131
-7.15567e+130
-9.57468e+129
-2.2029e+130
-1.92382e+130
-1.58136e+130
-1.24563e+130
-8.97962e+129
-5.58572e+129
-2.7591e+129
-1.02469e+129
2.22895e+136
2.88744e+135
-6.63848e+134
-3.0569e+132
7.4595e+132
-9.54079e+131
-1.88369e+131
-7.87511e+130
-5.60776e+130
-2.97578e+130
-1.38074e+130
-6.6248e+129
-4.38396e+129
-3.74132e+129
-1.72264e+129
-3.85606e+137
2.22116e+136
2.38888e+135
-6.04678e+134
-1.55355e+132
7.80494e+132
-1.69401e+131
5.00264e+131
4.99801e+131
4.0361e+131
3.17979e+131
2.3107e+131
1.44535e+131
7.07318e+130
2.45524e+130
9.67051e+137
-3.46087e+137
2.15798e+136
2.19313e+135
-5.82305e+134
-1.55573e+132
5.28481e+132
-3.72434e+132
-3.66232e+132
-3.69111e+132
-3.35912e+132
-2.65024e+132
-1.73056e+132
-8.64568e+131
-3.21849e+131
2.21071e+139
7.22298e+137
-3.1695e+137
2.10702e+136
1.96905e+135
-6.21693e+134
-3.69611e+133
-1.504e+133
-1.20614e+133
-3.48519e+132
1.25135e+132
2.79647e+132
2.35846e+132
1.07167e+132
3.78289e+131
-1.32596e+140
2.08557e+139
5.67202e+137
-2.98335e+137
2.1111e+136
2.52014e+135
4.87183e+133
6.0215e+134
5.78859e+134
5.08455e+134
4.28649e+134
3.39358e+134
2.42139e+134
1.49848e+134
7.37206e+133
-1.93718e+141
-3.74895e+140
5.75756e+139
2.05323e+138
-8.64118e+137
7.27919e+136
1.80064e+136
5.41232e+135
3.87458e+135
1.54108e+135
-9.96458e+133
-7.80988e+134
-8.44771e+134
-7.18901e+134
-4.88308e+134
4.91808e+142
-1.76911e+141
-3.70811e+140
5.51163e+139
2.55977e+138
-9.14938e+137
2.45375e+136
-1.96984e+136
-3.05484e+136
-2.54059e+136
-1.77411e+136
-1.22729e+136
-8.77645e+135
-5.80483e+135
-3.38324e+135
-2.40626e+143
4.46689e+142
-1.83064e+141
-3.56911e+140
5.23476e+139
2.77424e+138
-1.29275e+138
-2.86134e+137
-2.31198e+137
-1.81101e+137
-1.27485e+137
-8.28136e+136
-4.75791e+136
-2.43387e+136
-1.34946e+136
-1.97168e+144
-1.97624e+143
4.2286e+142
-1.3776e+141
-4.96597e+140
1.87106e+139
6.50422e+138
-3.99089e+138
-2.29404e+138
-1.29554e+138
-8.03618e+137
-4.55984e+137
-2.25777e+137
-9.50967e+136
-4.57697e+136
2.10843e+145
-1.97687e+144
-1.73155e+143
3.82839e+142
-1.63668e+141
-2.79163e+140
2.96416e+139
-2.67079e+138
-2.94132e+138
-1.59944e+138
-1.09786e+138
-7.60494e+137
-4.88262e+137
-2.66363e+137
-1.46315e+137
-2.06059e+144
-1.92045e+143
4.33497e+142
-1.84274e+141
-3.79104e+140
4.05478e+139
-2.45586e+138
-4.30395e+138
-2.27231e+138
-1.43377e+138
-9.35029e+137
-7.13529e+137
-5.77471e+137
-4.04532e+137
-2.61724e+137
-2.51243e+143
4.84339e+142
-3.76321e+140
-3.02798e+140
9.88764e+138
1.04418e+137
-4.02777e+138
-3.4835e+138
-2.47805e+138
-1.59455e+138
-9.67502e+137
-7.26332e+137
-6.00982e+137
-4.56751e+137
-3.10897e+137
3.36791e+142
2.6391e+141
2.70829e+140
4.21087e+139
-4.79608e+138
-1.05977e+139
-8.30802e+138
-5.61529e+138
-3.61443e+138
-2.2628e+138
-1.46635e+138
-1.18222e+138
-7.07676e+137
-4.04178e+137
-2.14458e+137
-4.1756e+140
-1.42298e+140
-1.04155e+140
-5.51431e+139
-2.7918e+139
-1.48003e+139
-8.1643e+138
-4.64132e+138
-2.69116e+138
-1.74935e+138
-1.41605e+138
-1.59924e+138
-2.72382e+136
2.91299e+136
1.49175e+136
-1.36923e+140
-3.73218e+139
-1.07409e+139
-4.05675e+138
-1.64e+138
-6.41565e+137
-2.24407e+137
-3.09939e+136
1.84364e+137
9.39703e+136
-1.44083e+137
-5.48849e+136
-1.71373e+136
-2.4374e+135
-1.07745e+135
8.10359e+138
2.5072e+138
1.54493e+138
1.04983e+138
7.13105e+137
4.99882e+137
3.70438e+137
2.96123e+137
4.66254e+137
4.10775e+137
-7.25265e+136
3.17751e+137
9.06157e+136
4.2935e+136
2.09453e+136
9.93455e+137
3.89875e+137
1.28474e+137
4.7064e+136
1.4201e+136
4.94645e+134
2.39668e+136
4.24143e+136
2.97726e+135
3.8893e+137
-4.3118e+135
1.98961e+136
2.39666e+136
2.29209e+136
1.62578e+136
-1.71876e+137
-6.20185e+136
-2.9871e+136
-1.93162e+136
-1.44255e+136
-9.89793e+135
-4.24191e+135
1.62696e+134
3.0717e+135
1.77857e+136
3.97287e+136
2.14336e+136
5.13035e+134
-6.36805e+135
-6.55472e+135
2.1721e+135
2.06059e+134
8.53388e+134
1.04624e+135
1.0651e+135
9.07108e+134
2.98943e+134
-2.16805e+134
-3.64645e+134
-1.498e+135
4.79401e+135
8.16143e+135
7.59231e+135
6.33691e+135
5.3678e+135
2.08781e+135
8.34485e+134
3.46153e+134
1.84622e+134
1.13252e+134
6.73977e+133
4.84946e+133
3.20305e+133
6.99403e+132
-1.01108e+134
-6.00275e+134
-6.14656e+134
-4.4862e+134
-3.31043e+134
-2.59035e+134
-2.16226e+134
-7.49835e+133
-4.57167e+133
-3.53574e+133
-2.97002e+133
-2.27843e+133
-1.08117e+133
2.59931e+131
1.10174e+133
2.35823e+133
-2.73836e+133
-6.52715e+133
-6.63593e+133
-5.67455e+133
-4.55819e+133
-2.10778e+133
-9.00808e+132
-2.84131e+132
-8.00337e+131
-3.14527e+130
9.99299e+130
-5.79375e+131
-1.05131e+132
-3.16644e+131
3.21519e+132
1.36224e+133
1.56151e+133
1.29725e+133
1.00956e+133
7.66579e+132
4.88462e+132
1.8457e+132
8.80689e+131
5.54063e+131
3.97042e+131
2.58204e+131
9.13177e+130
-1.13244e+131
-4.35357e+131
-8.2641e+131
-8.54564e+131
-4.89117e+131
-2.60212e+131
-1.68756e+131
-1.48745e+131
-1.6411e+131
-5.04251e+130
-4.80146e+130
-4.48263e+130
-3.8897e+130
-2.52025e+130
-2.46736e+129
1.19787e+130
-2.10936e+129
-8.20657e+130
-2.34765e+131
-2.64358e+131
-2.24275e+131
-1.82164e+131
-1.58589e+131
-5.7782e+130
-2.22339e+130
-8.58698e+129
-4.35335e+129
-2.63392e+129
-1.75263e+129
-1.08683e+129
1.13929e+129
6.69847e+129
1.52661e+130
2.25441e+130
1.99482e+130
1.40676e+130
5.37328e+129
-1.16199e+130
6.87334e+129
2.44641e+129
1.49565e+129
1.14905e+129
9.12959e+128
5.74188e+128
9.07047e+127
-3.7468e+128
-5.81844e+128
4.34335e+127
1.4911e+129
2.14768e+129
1.44763e+129
-2.08363e+129
-1.28659e+130
6.29475e+128
2.58903e+128
7.08011e+127
1.1744e+127
-4.95266e+126
3.432e+126
2.64211e+127
1.5856e+127
-7.82195e+127
-2.31533e+128
-2.36642e+128
6.00859e+127
1.23593e+128
-1.48236e+129
-8.32956e+129
-1.57768e+128
-6.03426e+127
-2.76477e+127
-1.65234e+127
-1.11298e+127
-6.31799e+126
-1.53786e+125
8.82308e+126
2.20183e+127
4.83954e+127
1.56262e+128
4.00919e+128
6.94885e+128
2.81532e+128
-3.46282e+129
8.41198e+126
3.06437e+126
2.00812e+126
1.5534e+126
1.20978e+126
7.05017e+125
4.1545e+124
-6.00314e+125
-9.30733e+125
1.20568e+127
4.64874e+127
1.18215e+128
4.26453e+128
1.0065e+129
3.85283e+128
9.66411e+125
3.79685e+125
1.412e+125
7.08262e+124
4.23868e+124
1.55548e+124
-1.01337e+124
-4.05126e+125
-1.94668e+126
9.69084e+126
2.86836e+127
4.2607e+127
8.86304e+127
3.02688e+128
8.82964e+128
-1.20432e+125
-4.23153e+124
-3.06487e+124
-2.62212e+124
-2.42118e+124
-3.46202e+124
-3.66445e+124
-3.73985e+125
-1.97238e+126
1.36125e+127
3.47993e+127
4.00008e+127
3.32309e+127
3.23019e+127
7.31345e+127
-2.14129e+124
-9.47842e+123
-3.26774e+123
-9.97337e+122
-2.06795e+123
-1.94591e+124
-3.0873e+124
-3.91369e+125
-2.1978e+126
1.74099e+127
4.21801e+127
4.51519e+127
2.78328e+127
-5.57961e+126
-4.74536e+127
4.43393e+123
1.84332e+123
9.1169e+122
6.04575e+122
-1.43622e+123
-2.0053e+124
-3.04587e+124
-4.08476e+125
-2.42157e+126
2.10378e+127
5.04302e+127
5.35478e+127
3.11797e+127
-1.48867e+127
-8.07145e+127
-2.67822e+122
-1.0018e+122
-3.44881e+121
4.00974e+121
-1.80758e+123
-2.14048e+124
-3.10376e+124
-4.35292e+125
-2.63118e+126
2.23398e+127
5.7599e+127
6.79206e+127
4.75285e+127
-4.74531e+126
-8.77274e+127
-3.61401e+121
-7.39888e+120
3.03321e+121
9.57031e+121
-1.71194e+123
-2.2866e+124
-3.32632e+124
-4.72018e+125
-3.33273e+126
1.76423e+127
5.75855e+127
8.29055e+127
8.13697e+127
4.53251e+127
-3.0393e+127
-1.85602e+121
2.89714e+120
4.13655e+121
1.06713e+122
-1.53856e+123
-2.38174e+124
-3.84368e+124
-5.05786e+125
-5.22882e+126
5.3578e+126
4.53484e+127
8.3471e+127
1.07343e+128
1.08586e+128
7.83791e+127
-2.50801e+121
3.05655e+120
4.8959e+121
1.11306e+122
-1.35204e+123
-2.37459e+124
-4.66405e+124
-5.59525e+125
-5.80414e+126
-7.1208e+126
1.93281e+127
5.52754e+127
9.02623e+127
1.18679e+128
1.34597e+128
-2.96607e+121
3.74345e+120
5.68901e+121
1.12843e+122
-1.22415e+123
-2.28752e+124
-5.49387e+124
-6.117e+125
-6.17302e+126
-1.27062e+127
-6.55914e+126
1.1414e+127
3.6346e+127
6.40147e+127
9.16276e+127
-3.35228e+121
5.70189e+120
6.60176e+121
1.11462e+122
-1.15841e+123
-2.2125e+124
-5.96644e+124
-6.52641e+125
-5.28518e+126
-1.12006e+127
-1.4619e+127
-1.30864e+127
-6.05993e+126
5.57605e+126
2.11105e+127
-3.81636e+121
9.52049e+120
7.97566e+121
1.06473e+122
-1.10294e+123
-2.19939e+124
-6.50832e+124
1.31439e+125
-2.40918e+126
-6.61168e+126
-1.08524e+127
-1.43018e+127
-1.62568e+127
-1.62617e+127
-1.39421e+127
-4.45793e+121
1.40239e+121
9.76641e+121
9.59794e+121
-1.05078e+123
-2.11599e+124
-7.1612e+124
5.23972e+125
1.96473e+125
-1.56922e+126
-3.90955e+126
-6.49486e+126
-9.1378e+126
-1.16731e+127
-1.38683e+127
-5.20534e+121
1.78272e+121
1.15388e+122
8.00016e+121
-1.07036e+123
-1.87211e+124
-8.52349e+124
3.6312e+125
8.81277e+125
8.13672e+125
3.58086e+125
-3.83488e+125
-1.36313e+126
-2.56246e+126
-3.95901e+126
-5.96172e+121
2.18891e+121
1.32509e+122
5.931e+121
-1.21898e+123
-1.56795e+124
-1.445e+125
-3.60953e+124
4.09698e+125
7.29102e+125
9.22633e+125
1.01868e+126
1.02873e+126
9.42454e+125
7.45703e+125
-6.77679e+121
2.74388e+121
1.52223e+122
3.06119e+121
-1.52423e+123
-1.32345e+124
-1.41906e+125
-2.82626e+125
-1.0085e+125
8.0123e+124
2.40354e+125
3.87007e+125
5.26264e+125
6.54218e+125
7.6574e+125
-7.70104e+121
3.35032e+121
1.73429e+122
-1.1337e+121
-2.00872e+123
-1.31241e+124
-1.05009e+125
-2.20014e+125
-2.11732e+125
-1.71644e+125
-1.24853e+125
-7.72441e+124
-2.77143e+124
2.45384e+124
8.00854e+124
-8.65947e+121
4.2518e+121
2.0623e+122
-2.40885e+121
-2.4005e+123
-1.49931e+124
-5.27912e+124
-9.55117e+124
-1.13979e+125
-1.18792e+125
-1.17826e+125
-1.15246e+125
-1.11312e+125
-1.055e+125
-9.73795e+124
-1.01507e+122
4.57975e+121
2.61973e+122
1.27522e+122
-1.50181e+123
-6.30422e+123
-1.45384e+124
-2.39846e+124
-3.16894e+124
-3.6961e+124
-4.05928e+124
-4.34356e+124
-4.56998e+124
-4.73555e+124
-4.83476e+124
-1.3783e+122
-2.52512e+121
2.26785e+122
4.96529e+122
5.54716e+122
1.1747e+122
-9.61468e+122
-2.4469e+123
-3.96122e+123
-5.31827e+123
-6.49638e+123
-7.53674e+123
-8.45423e+123
-9.23906e+123
-9.89057e+123
-1.68109e+122
-1.44872e+122
-1.60142e+121
1.81474e+122
3.84842e+122
5.24623e+122
5.48814e+122
4.60397e+122
3.08196e+122
1.33253e+122
-4.79823e+121
-2.27739e+122
-4.00551e+122
-5.61085e+122
-7.07363e+122
-1.41671e+122
-1.77806e+122
-1.68409e+122
-1.23894e+122
-5.91823e+121
7.85462e+120
6.53673e+121
1.0641e+122
1.30023e+122
1.40029e+122
1.40264e+122
1.33266e+122
1.21034e+122
1.0549e+122
8.7651e+121
-7.50652e+121
-1.05208e+122
-1.19107e+122
-1.19218e+122
-1.07715e+122
-9.00606e+121
-7.03315e+121
-5.1351e+121
-3.48929e+121
-2.15092e+121
-1.0964e+121
-2.82479e+120
3.29133e+120
7.70958e+120
1.0577e+121
-2.22673e+121
-3.24096e+121
-3.83775e+121
-4.05492e+121
-3.94265e+121
-3.64582e+121
-3.25716e+121
-2.84107e+121
-2.44503e+121
-2.08858e+121
-1.77084e+121
-1.48651e+121
-1.2324e+121
-1.00712e+121
-8.11675e+120
-3.91023e+120
-5.41196e+120
-6.28523e+120
-6.72192e+120
-6.77343e+120
-6.56813e+120
-6.19067e+120
-5.72285e+120
-5.25114e+120
-4.81393e+120
-4.40156e+120
-4.00175e+120
-3.61247e+120
-3.23678e+120
-2.88037e+120
-4.67103e+119
-5.43917e+119
-5.55406e+119
-5.59975e+119
-5.5536e+119
-5.42857e+119
-5.22477e+119
-4.95528e+119
-4.68681e+119
-4.45748e+119
-4.23948e+119
-4.01199e+119
-3.77202e+119
-3.52271e+119
-3.26928e+119
-3.8596e+118
-5.22515e+118
-4.57851e+118
-3.69936e+118
-2.92316e+118
-2.32947e+118
-1.89356e+118
-1.57531e+118
-1.35276e+118
-1.20206e+118
-1.09243e+118
-1.00519e+118
-9.31445e+117
-8.66458e+117
-8.07288e+117
1.24865e+118
3.59667e+117
-9.86034e+116
-2.51963e+117
-2.73836e+117
-2.46109e+117
-2.03951e+117
-1.63448e+117
-1.30008e+117
-1.02739e+117
-7.99976e+116
-6.11953e+116
-4.60185e+116
-3.41032e+116
-2.47405e+116
6.18974e+117
4.43339e+117
2.58412e+117
1.46535e+117
8.06696e+116
4.24707e+116
2.04119e+116
7.6971e+115
4.43871e+114
-3.5216e+115
-5.49296e+115
-6.27339e+115
-6.34629e+115
-6.01667e+115
-5.42407e+115
8.52244e+116
8.54047e+116
6.49813e+116
4.71355e+116
3.3664e+116
2.40661e+116
1.731e+116
1.26385e+116
9.39891e+115
7.0589e+115
5.3037e+115
3.96718e+115
2.94879e+115
2.17739e+115
1.60211e+115
-4.53752e+115
8.85509e+114
3.08908e+115
3.48412e+115
3.20964e+115
2.74975e+115
2.30012e+115
1.92968e+115
1.62612e+115
1.36618e+115
1.14041e+115
9.45788e+114
7.79941e+114
6.40366e+114
5.23896e+114
-2.6073e+115
-1.80782e+115
-1.03902e+115
-5.88585e+114
-3.3012e+114
-1.82123e+114
-9.65775e+113
-4.66113e+113
-1.70258e+113
5.14556e+111
1.06389e+113
1.60409e+113
1.84064e+113
1.88681e+113
1.80859e+113
-2.60926e+114
-2.29946e+114
-1.67453e+114
-1.19219e+114
-8.4781e+113
-6.11723e+113
-4.52523e+113
-3.44529e+113
-2.66904e+113
-2.0801e+113
-1.6223e+113
-1.26412e+113
-9.83707e+112
-7.64635e+112
-5.94782e+112
-5.38572e+112
-6.52659e+112
-5.99079e+112
-5.05417e+112
-4.10093e+112
-3.31636e+112
-2.73323e+112
-2.29717e+112
-1.94257e+112
-1.63929e+112
-1.37752e+112
-1.15233e+112
-9.59698e+111
-7.96261e+111
-6.58794e+111
4.09058e+111
3.44798e+111
2.42641e+111
1.69868e+111
1.19592e+111
8.62012e+110
6.42639e+110
4.90731e+110
3.77251e+110
2.89249e+110
2.20505e+110
1.66903e+110
1.25307e+110
9.32702e+109
6.88545e+109
5.98333e+109
5.66687e+109
4.45658e+109
3.46838e+109
2.71437e+109
2.17207e+109
1.788e+109
1.50097e+109
1.2672e+109
1.06851e+109
8.98337e+108
7.52776e+108
6.28748e+108
5.23751e+108
4.35505e+108
-6.87784e+107
-3.68968e+107
-1.85374e+107
-1.01206e+107
-5.94943e+106
-3.73502e+106
-2.48866e+106
-1.74048e+106
-1.25855e+106
-9.28947e+105
-6.94588e+105
-5.24076e+105
-3.98166e+105
-3.04163e+105
-2.34879e+105
-1.17267e+107
-6.96416e+106
-3.6975e+106
-2.10862e+106
-1.28291e+106
-8.29345e+105
-5.64492e+105
-3.98342e+105
-2.87522e+105
-2.10238e+105
-1.54902e+105
-1.14768e+105
-8.54269e+104
-6.38831e+104
-4.8163e+104
-1.05835e+106
-6.95835e+105
-4.00374e+105
-2.44743e+105
-1.58344e+105
-1.07931e+105
-7.67592e+104
-5.61851e+104
-4.17185e+104
-3.11438e+104
-2.32998e+104
-1.74469e+104
-1.30649e+104
-9.79415e+103
-7.37099e+103
-3.60934e+104
-2.63483e+104
-1.64353e+104
-1.09297e+104
-7.63639e+103
-5.56837e+103
-4.19328e+103
-3.2186e+103
-2.48604e+103
-1.91841e+103
-1.47568e+103
-1.13076e+103
-8.63251e+102
-6.57747e+102
-5.01667e+102
3.99541e+103
1.91461e+103
9.41321e+102
4.92771e+102
2.77305e+102
1.66019e+102
1.04913e+102
6.93696e+101
4.73112e+101
3.28065e+101
2.29132e+101
1.60522e+101
1.12693e+101
7.91288e+100
5.64899e+100
1.35038e+103
6.69889e+102
3.15898e+102
1.64488e+102
9.37751e+101
5.76599e+101
3.7754e+101
2.59429e+101
1.83854e+101
1.32531e+101
9.64087e+100
7.05206e+100
5.18173e+100
3.8251e+100
2.85986e+100
2.29119e+102
1.2229e+102
5.96017e+101
3.19368e+101
1.86099e+101
1.16034e+101
7.63115e+100
5.21631e+100
3.64711e+100
2.5792e+100
1.83503e+100
1.31137e+100
9.41593e+99
6.80321e+99
4.98116e+99
2.33351e+101
1.28025e+101
6.46136e+100
3.60855e+100
2.19246e+100