/*--------------------------------*- C++ -*----------------------------------*\
  =========                 |
  \\      /  F ield         | OpenFOAM: The Open Source CFD Toolbox
   \\    /   O peration     | Website:  https://openfoam.org
    \\  /    A nd           | Version:  7
     \\/     M anipulation  |
\*---------------------------------------------------------------------------*/
FoamFile
{
    version     2.0;
    format      ascii;
    class       volScalarField;
    location    "2";
    object      T;
}
// * * * * * * * * * * * * * * * * * * * * * * * * * * * * * * * * * * * * * //

dimensions      [0 0 0 1 0 0 0];

internalField   nonuniform List<scalar> 
32100
(
-4.20182e+49
-1.88389e+49
1.38522e+48
9.1822e+46
-4.21774e+46
2.29518e+45
4.05302e+44
-4.05783e+43
6.65406e+41
7.46647e+41
-3.28241e+40
-2.68793e+39
9.44035e+36
1.20116e+37
4.03111e+36
-2.09655e+49
1.45149e+48
1.05887e+47
-4.42182e+46
2.3176e+45
4.2045e+44
-4.16095e+43
6.11637e+41
7.50125e+41
-5.62963e+40
-1.99323e+40
-3.52003e+39
9.00756e+37
1.10463e+37
3.20073e+36
1.49545e+48
1.26704e+47
-4.71037e+46
2.35491e+45
4.39588e+44
-4.33844e+43
5.54291e+41
7.75784e+41
-6.55442e+40
-2.49109e+40
-7.5699e+39
-2.16882e+39
1.38103e+38
8.27948e+36
2.70596e+36
1.56356e+47
-5.23468e+46
2.27732e+45
4.75637e+44
-4.48598e+43
-7.80333e+40
8.01445e+41
-4.71352e+40
-1.80582e+40
-1.00089e+39
-2.73416e+39
-8.61943e+38
1.29719e+38
5.62718e+36
1.99708e+36
-6.13489e+46
1.21242e+45
3.99723e+44
-3.6199e+43
-2.49139e+40
2.76812e+41
-5.35116e+40
-5.06761e+39
1.80391e+39
-5.18023e+38
-5.30176e+38
-1.95699e+38
8.93114e+37
3.29776e+36
1.21891e+36
-2.56575e+45
-6.00933e+44
-1.51755e+44
9.44987e+42
6.1503e+41
-5.8877e+41
-1.90419e+40
1.35046e+40
5.50523e+38
1.64658e+37
1.8929e+37
7.55163e+36
4.75206e+37
1.42372e+36
5.86907e+35
-3.97836e+45
-1.15911e+45
-1.06201e+44
9.19803e+42
-1.26193e+41
-5.32834e+41
-5.99848e+39
1.1417e+40
6.60943e+38
3.86276e+37
5.12172e+37
2.87652e+37
1.92077e+37
2.39193e+35
2.12769e+35
-4.32826e+45
-1.05877e+45
-1.07929e+44
7.2487e+42
7.78572e+40
-4.91821e+41
-1.39582e+40
1.09408e+40
7.30962e+38
1.11623e+37
3.01451e+37
1.20278e+37
5.22877e+36
-2.32957e+35
5.95039e+34
-3.94475e+45
-1.00599e+45
-1.11084e+44
6.20002e+42
2.56748e+41
-4.68753e+41
-1.99541e+40
1.03337e+40
7.99203e+38
-8.01313e+35
1.71787e+37
2.14876e+36
3.78329e+35
-2.53259e+35
2.41212e+34
-3.62406e+45
-9.54338e+44
-1.12749e+44
5.06803e+42
4.00669e+41
-4.40681e+41
-2.56237e+40
9.61756e+39
8.6783e+38
-1.79108e+36
1.35145e+37
5.40958e+35
-6.01936e+35
-1.38103e+35
2.30963e+34
-3.32874e+45
-9.03394e+44
-1.14139e+44
3.86597e+42
5.31353e+41
-4.10082e+41
-3.08102e+40
8.81681e+39
9.25328e+38
3.15204e+35
1.16534e+37
7.27815e+35
-5.41931e+35
-5.82347e+34
2.02384e+34
-3.05558e+45
-8.5847e+44
-1.14465e+44
2.65566e+42
6.4463e+41
-3.7761e+41
-3.54175e+40
7.95334e+39
9.67855e+38
3.66811e+36
9.69635e+36
8.65616e+35
-3.82193e+35
-3.73451e+34
1.13693e+34
-2.81723e+45
-8.13241e+44
-1.09993e+44
1.491e+42
7.0735e+41
-3.44225e+41
-3.93482e+40
7.05391e+39
9.93278e+38
8.07075e+36
7.91401e+36
8.3884e+35
-2.7695e+35
-3.22668e+34
3.2243e+33
-2.5604e+45
-6.77652e+44
-9.12952e+43
3.0234e+41
6.58377e+41
-3.09258e+41
-4.14864e+40
6.14944e+39
9.98204e+38
1.3242e+37
6.77718e+36
8.86353e+35
-1.83274e+35
-2.46912e+34
1.07937e+33
-1.83171e+45
-5.05176e+44
-7.50878e+43
-4.62275e+41
5.74631e+41
-2.46206e+41
-3.91839e+40
4.96122e+39
9.79207e+38
1.89661e+37
6.19044e+36
1.06472e+36
-1.80728e+35
-2.80363e+34
3.11853e+32
-1.29585e+45
-4.05594e+44
-6.68527e+43
-9.44564e+41
5.46498e+41
-1.91738e+41
-3.74941e+40
3.82507e+39
9.74578e+38
2.58444e+37
5.5869e+36
1.2604e+36
-2.0619e+35
-3.7734e+34
-2.62151e+32
-1.0891e+45
-3.6095e+44
-6.26371e+43
-1.3725e+42
5.51407e+41
-1.61983e+41
-3.83699e+40
2.94403e+39
9.88454e+38
3.39216e+37
4.82045e+36
1.37748e+36
-1.95971e+35
-4.65455e+34
-8.69245e+32
-9.59761e+44
-3.35346e+44
-6.12191e+43
-1.85643e+42
5.56291e+41
-1.39467e+41
-3.96046e+40
2.12068e+39
1.00355e+39
4.349e+37
4.05423e+36
1.44284e+36
-1.63096e+35
-5.17536e+34
-1.5342e+33
-8.54255e+44
-3.12855e+44
-5.98595e+43
-2.38022e+42
5.46939e+41
-1.17486e+41
-4.07502e+40
1.27245e+39
1.01285e+39
5.43544e+37
3.37494e+36
1.46434e+36
-1.18991e+35
-5.35991e+34
-2.21635e+33
-7.64254e+44
-2.91235e+44
-5.82878e+43
-2.91964e+42
5.2649e+41
-9.49458e+40
-4.15742e+40
3.75986e+38
1.01079e+39
6.6249e+37
2.86121e+36
1.47234e+36
-7.42738e+34
-5.4418e+34
-2.94381e+33
-6.81731e+44
-2.69219e+44
-5.63584e+43
-3.45414e+42
4.9429e+41
-7.19493e+40
-4.19494e+40
-5.67605e+38
9.94981e+38
7.91613e+37
2.52381e+36
1.43801e+36
-2.79668e+34
-5.34307e+34
-3.64887e+33
-6.0247e+44
-2.46176e+44
-5.42117e+43
-3.98138e+42
4.48831e+41
-4.88625e+40
-4.17669e+40
-1.55229e+39
9.65243e+38
9.33062e+37
2.40918e+36
1.35929e+36
1.65486e+34
-4.97216e+34
-4.17892e+33
-5.27103e+44
-2.2307e+44
-5.19715e+43
-4.4931e+42
3.88981e+41
-2.62527e+40
-4.09442e+40
-2.57393e+39
9.20247e+38
1.09053e+38
2.59094e+36
1.27016e+36
5.5734e+34
-4.52877e+34
-4.54399e+33
-4.56789e+44
-2.00587e+44
-4.96198e+43
-4.9793e+42
3.13477e+41
-4.65629e+39
-3.94467e+40
-3.62798e+39
8.56298e+38
1.2651e+38
3.14171e+36
1.1798e+36
9.14772e+34
-4.1152e+34
-4.83538e+33
-3.92913e+44
-1.79677e+44
-4.7243e+43
-5.44158e+42
2.22087e+41
1.5332e+40
-3.72424e+40
-4.70208e+39
7.6785e+38
1.4516e+38
4.14707e+36
1.08693e+36
1.26283e+35
-3.73696e+34
-5.15479e+33
-3.35584e+44
-1.60369e+44
-4.47555e+43
-5.87038e+42
1.14603e+41
3.29784e+40
-3.42885e+40
-5.77202e+39
6.48204e+38
1.6465e+38
5.72144e+36
9.96372e+35
1.62783e+35
-3.38334e+34
-5.61319e+33
-2.85564e+44
-1.425e+44
-4.21802e+43
-6.26553e+42
-9.43536e+39
4.75184e+40
-3.05781e+40
-6.81313e+39
4.90173e+38
1.84335e+38
7.98646e+36
8.95325e+35
2.00082e+35
-2.95807e+34
-6.1559e+33
-2.43091e+44
-1.26657e+44
-3.97526e+43
-6.64457e+42
-1.50451e+41
5.81285e+40
-2.60999e+40
-7.79228e+39
2.86332e+38
2.04547e+38
1.1081e+37
7.75994e+35
2.31461e+35
-2.37195e+34
-6.56491e+33
-2.06671e+44
-1.13075e+44
-3.76027e+43
-7.01333e+42
-3.08815e+41
6.39444e+40
-2.08988e+40
-8.67732e+39
2.93529e+37
2.23016e+38
1.5182e+37
6.6912e+35
2.57338e+35
-1.67966e+34
-6.84649e+33
-1.7446e+44
-1.0089e+44
-3.55593e+43
-7.3443e+42
-4.83369e+41
6.39034e+40
-1.5023e+40
-9.42309e+39
-2.88303e+38
2.37019e+38
2.0451e+37
6.0427e+35
2.78132e+35
-8.76829e+33
-7.01199e+33
-1.45284e+44
-8.86646e+43
-3.31781e+43
-7.59291e+42
-6.71907e+41
5.677e+40
-8.55339e+39
-9.96848e+39
-6.7614e+38
2.44631e+38
2.71738e+37
6.04995e+35
2.82892e+35
2.84184e+32
-6.92613e+33
-1.1939e+44
-7.61103e+43
-3.01897e+43
-7.75353e+42
-8.71888e+41
4.11744e+40
-1.67502e+39
-1.0218e+40
-1.1419e+39
2.4111e+38
3.57882e+37
7.24602e+35
2.73049e+35
9.31441e+33
-6.76128e+33
-9.80252e+43
-6.48507e+43
-2.72854e+43
-7.82748e+42
-1.07903e+42
1.55938e+40
5.28433e+39
-1.00318e+40
-1.68347e+39
2.19915e+38
4.68776e+37
1.08366e+36
2.66708e+35
1.94396e+34
-6.82062e+33
-8.07939e+43
-5.62852e+43
-2.51414e+43
-7.84197e+42
-1.29344e+42
-2.15581e+40
1.17674e+40
-9.27881e+39
-2.27875e+39
1.70946e+38
6.06976e+37
1.91769e+36
2.65842e+35
3.37199e+34
-7.10102e+33
-6.63611e+43
-4.95477e+43
-2.34421e+43
-7.8244e+42
-1.51781e+42
-7.22339e+40
1.68516e+40
-7.84645e+39
-2.88479e+39
8.17217e+37
7.69316e+37
3.49134e+36
2.5581e+35
5.37512e+34
-7.23977e+33
-5.41221e+43
-4.30324e+43
-2.15679e+43
-7.78208e+42
-1.75196e+42
-1.38413e+41
1.92128e+40
-5.68732e+39
-3.43826e+39
-6.14623e+37
9.38375e+37
6.33504e+36
2.37329e+35
8.01725e+34
-6.50237e+33
-4.38138e+43
-3.68636e+43
-1.96355e+43
-7.73462e+42
-1.99651e+42
-2.20767e+41
1.77138e+40
-2.89834e+39
-3.86219e+39
-2.67441e+38
1.07035e+38
1.12883e+37
2.38948e+35
1.1115e+35
-3.47583e+33
-3.50973e+43
-3.15403e+43
-1.79366e+43
-7.6783e+42
-2.24628e+42
-3.17848e+41
1.13258e+40
3.09059e+38
-4.06026e+39
-5.35751e+38
1.09257e+38
1.84759e+37
3.46133e+35
1.36943e+35
3.56875e+33
-2.77399e+43
-2.69863e+43
-1.6431e+43
-7.57035e+42
-2.47636e+42
-4.23881e+41
-1.08459e+39
3.60426e+39
-3.91911e+39
-8.4669e+38
9.22676e+37
2.76744e+37
7.31224e+35
1.45937e+35
1.58501e+34
-2.15461e+43
-2.30472e+43
-1.50741e+43
-7.4018e+42
-2.63587e+42
-5.32665e+41
-2.0258e+40
6.46016e+39
-3.35843e+39
-1.15427e+39
4.94438e+37
3.80112e+37
1.71013e+36
1.28453e+35
3.38387e+34
-1.6348e+43
-1.94414e+43
-1.37189e+43
-7.12226e+42
-2.716e+42
-6.38293e+41
-4.59811e+40
8.16708e+39
-2.38025e+39
-1.40646e+39
-2.09967e+37
4.77878e+37
3.77651e+36
7.73992e+34
5.43626e+34
-1.20728e+43
-1.59721e+43
-1.22555e+43
-6.68723e+42
-2.75139e+42
-7.36004e+41
-7.7044e+40
8.18166e+39
-1.07769e+39
-1.56927e+39
-1.12399e+38
5.32015e+37
6.46232e+36
2.86899e+34
6.40815e+34
-8.75635e+42
-1.27493e+43
-1.06628e+43
-6.16484e+42
-2.75609e+42
-8.22633e+41
-1.11505e+41
5.98991e+39
3.63701e+38
-1.61249e+39
-2.06358e+38
4.97691e+37
9.18188e+36
4.02204e+34
5.53919e+34
-6.3117e+42
-1.00192e+43
-9.09494e+42
-5.66099e+42
-2.73514e+42
-8.96942e+41
-1.47512e+41
1.77089e+39
1.64686e+39
-1.523e+39
-2.93907e+38
4.06968e+37
1.18739e+37
1.42211e+35
3.3918e+34
-4.5603e+42
-7.87425e+42
-7.75625e+42
-5.21437e+42
-2.69867e+42
-9.61094e+41
-1.83818e+41
-3.98929e+39
2.60749e+39
-1.2676e+39
-3.73995e+38
2.85777e+37
1.29352e+37
3.72822e+35
-2.10243e+34
-3.31518e+42
-6.24103e+42
-6.66112e+42
-4.81128e+42
-2.65787e+42
-1.01939e+42
-2.2066e+41
-1.08484e+40
3.25604e+39
-9.36814e+38
-3.94153e+38
1.43023e+37
1.14062e+37
4.9335e+35
-2.78563e+34
-2.41223e+42
-4.98031e+42
-5.77777e+42
-4.46375e+42
-2.61788e+42
-1.07609e+42
-2.59201e+41
-1.8887e+40
3.57397e+39
-6.34072e+38
-3.86369e+38
2.88422e+36
9.52298e+36
4.35422e+35
-1.259e+34
-1.74931e+42
-3.97682e+42
-5.03916e+42
-4.16457e+42
-2.57461e+42
-1.12752e+42
-2.99046e+41
-2.82046e+40
3.72058e+39
-3.75366e+38
-3.94669e+38
-5.59843e+36
8.62963e+36
4.20874e+35
-1.22569e+34
-1.25007e+42
-3.1476e+42
-4.36351e+42
-3.87147e+42
-2.51303e+42
-1.1644e+42
-3.36672e+41
-3.87433e+40
3.61854e+39
-1.24164e+38
-4.04715e+38
-1.28307e+37
8.46228e+36
4.61233e+35
-1.36504e+34
-8.80083e+41
-2.46067e+42
-3.74383e+42
-3.58196e+42
-2.43546e+42
-1.18937e+42
-3.71231e+41
-5.03324e+40
3.17135e+39
1.36802e+38
-4.12599e+38
-1.97402e+37
8.52837e+36
5.36325e+35
-1.42704e+34
-6.08482e+41
-1.90427e+42
-3.20893e+42
-3.31781e+42
-2.35761e+42
-1.21384e+42
-4.07972e+41
-6.32718e+40
2.3623e+39
4.08747e+38
-4.13687e+38
-2.62295e+37
8.42199e+36
6.07321e+35
-1.02814e+34
-4.10911e+41
-1.45453e+42
-2.74048e+42
-3.0465e+42
-2.28253e+42
-1.23919e+42
-4.49178e+41
-7.85076e+40
1.11144e+39
6.8821e+38
-4.01528e+38
-3.14569e+37
7.84154e+36
6.28514e+35
8.25917e+32
-2.72715e+41
-1.08639e+42
-2.28641e+42
-2.75722e+42
-2.20493e+42
-1.26539e+42
-4.92384e+41
-9.64258e+40
-7.02572e+38
9.62509e+38
-3.75939e+38
-3.45996e+37
6.81904e+36
5.8907e+35
1.48634e+34
-1.77594e+41
-7.9341e+41
-1.85971e+42
-2.47493e+42
-2.1385e+42
-1.29443e+42
-5.37797e+41
-1.17011e+41
-3.20174e+39
1.21062e+39
-3.40453e+38
-3.51248e+37
5.51183e+36
5.0665e+35
3.04346e+34
-1.11362e+41
-5.68438e+41
-1.49583e+42
-2.21558e+42
-2.07727e+42
-1.32178e+42
-5.84956e+41
-1.40262e+41
-6.49822e+39
1.41185e+39
-2.97084e+38
-3.23032e+37
3.9976e+36
4.03199e+35
5.47025e+34
-6.59032e+40
-3.94124e+41
-1.17979e+42
-1.96428e+42
-1.99611e+42
-1.3438e+42
-6.33974e+41
-1.66186e+41
-1.06975e+40
1.53323e+39
-2.47735e+38
-2.5112e+37
2.322e+36
2.33719e+35
6.63771e+34
-3.57708e+40
-2.59211e+41
-9.01079e+41
-1.70267e+42
-1.89238e+42
-1.35972e+42
-6.86473e+41
-1.96109e+41
-1.58716e+40
1.49527e+39
-1.89241e+38
-1.35e+37
4.5842e+35
3.98184e+34
6.34132e+34
-1.73233e+40
-1.59114e+41
-6.60048e+41
-1.43732e+42
-1.7642e+42
-1.36443e+42
-7.3777e+41
-2.29945e+41
-2.20454e+40
1.29668e+39
-1.29809e+38
-1.89804e+36
-9.1066e+35
-1.00129e+35
5.36899e+34
-7.25203e+39
-8.88005e+40
-4.56676e+41
-1.17276e+42
-1.60655e+42
-1.3532e+42
-7.85604e+41
-2.64742e+41
-2.94159e+40
1.07586e+39
-7.9685e+37
3.3195e+36
-1.37037e+36
-4.07636e+35
1.41844e+34
-2.43874e+39
-4.31646e+40
-2.9162e+41
-9.15453e+41
-1.42487e+42
-1.32654e+42
-8.31015e+41
-2.94849e+41
-3.87629e+40
1.22638e+39
-3.24908e+37
5.09493e+36
-1.2179e+36
-1.34579e+35
2.657e+35
-5.7065e+38
-1.62944e+40
-1.6379e+41
-6.73453e+41
-1.2283e+42
-1.28625e+42
-8.73341e+41
-3.12948e+41
-4.98135e+40
1.1852e+39
-1.53354e+38
-2.37448e+37
-1.42958e+37
-8.36504e+36
-2.35905e+36
-2.05213e+38
-3.33027e+39
-7.25292e+40
-4.51733e+41
-1.02249e+42
-1.2333e+42
-9.12675e+41
-3.18938e+41
-5.87583e+40
-2.00112e+39
-7.07855e+37
-5.72822e+37
4.48062e+36
-6.9475e+36
-5.89374e+36
-2.64951e+38
1.70741e+38
-1.73479e+40
-2.55316e+41
-8.0668e+41
-1.16476e+42
-9.50798e+41
-3.31245e+41
-7.2558e+40
-1.20906e+40
6.7546e+37
-1.64868e+38
-5.15484e+37
-2.61039e+37
-9.53519e+36
-1.40132e+38
5.0797e+37
4.06113e+39
-9.48085e+40
-5.77666e+41
-1.0743e+42
-9.85519e+41
-3.46884e+41
-8.45851e+40
-2.82603e+40
-1.14927e+40
-9.74452e+39
-1.31081e+40
-1.66916e+40
-1.00494e+40
4.01945e+38
1.78146e+38
3.58792e+39
4.23768e+39
-3.39933e+41
-9.56676e+41
-1.01042e+42
-3.51444e+41
-7.97846e+40
-2.81701e+40
-3.43317e+40
-3.1542e+40
-4.05615e+40
-3.34409e+40
-1.83848e+40
-5.49592e+37
1.88894e+38
6.07853e+39
1.7488e+40
-1.41352e+41
-8.07501e+41
-1.00532e+42
-3.51772e+41
-6.84318e+40
-4.72157e+39
-7.77759e+39
-1.61784e+40
-1.66219e+40
-1.39863e+40
-1.75168e+40
9.74304e+40
4.07115e+40
2.17832e+40
1.04437e+40
-1.27708e+41
-6.03592e+41
-9.40382e+41
-3.52434e+41
-6.79503e+40
4.71551e+38
-7.54235e+38
-1.7554e+39
-2.70548e+39
-4.68461e+39
-1.51042e+40
-5.78217e+41
-2.57786e+41
-7.42926e+40
-2.15361e+40
-2.85079e+41
-6.73485e+41
-7.92092e+41
-3.44452e+41
-8.4204e+40
-3.99665e+40
-1.71903e+40
-8.89822e+39
-5.90269e+39
-4.57346e+39
-1.22564e+40
-2.29588e+43
-7.24706e+42
-3.48855e+42
-2.17236e+42
-1.40267e+42
-1.00005e+42
-8.32298e+41
-2.61559e+41
-1.17873e+41
-6.17226e+40
-2.93144e+40
-1.46219e+40
-8.26004e+39
-4.9072e+39
-1.04324e+40
2.53327e+44
6.00333e+43
8.29835e+42
-1.22446e+42
-2.70628e+42
-2.1755e+42
-1.39824e+42
-8.50363e+41
-3.72551e+41
-1.56039e+41
-6.52363e+40
-2.87997e+40
-1.38076e+40
-6.86802e+39
-8.87763e+39
1.53461e+45
4.17528e+44
2.26531e+44
1.0539e+44
4.72228e+43
2.07369e+43
5.98046e+42
5.27373e+41
-2.7716e+41
-1.95032e+41
-9.11945e+40
-3.91577e+40
-1.67693e+40
-7.56187e+39
-8.77279e+39
-3.68056e+46
-3.81339e+45
1.48851e+43
2.22804e+44
1.6583e+44
7.4183e+43
1.87162e+43
3.1452e+42
3.1071e+41
-1.44434e+40
-2.80773e+39
1.76879e+40
2.06851e+40
1.55034e+40
2.33645e+40
2.20695e+47
-1.45379e+46
-7.95841e+45
-1.32227e+45
-6.11683e+43
6.97839e+43
2.28002e+43
3.81758e+42
4.74549e+41
-4.71232e+40
-1.1315e+41
-9.0919e+40
-5.24071e+40
-1.61093e+40
2.06394e+40
2.43408e+48
2.98425e+47
-6.44133e+45
-2.27577e+45
7.72745e+43
-2.61009e+43
2.32658e+43
7.89801e+42
4.22369e+42
3.63702e+42
3.02737e+42
2.25355e+42
1.41617e+42
7.19959e+41
3.80994e+41
-2.31137e+49
2.34484e+48
3.34471e+47
-3.95546e+46
3.88153e+45
5.8741e+44
7.7336e+43
1.26125e+44
1.03147e+44
8.12687e+43
6.19451e+43
4.39521e+43
2.74124e+43
1.39256e+43
5.44594e+42
-9.28366e+49
-2.0901e+49
2.79719e+48
1.71952e+47
-4.10434e+46
4.78214e+45
6.96836e+44
6.37116e+42
-6.1113e+43
-1.36692e+44
-1.55423e+44
-1.28794e+44
-7.88666e+43
-3.12665e+43
-8.67199e+42
1.9492e+51
-9.73369e+49
-1.81399e+49
2.57801e+48
1.44944e+47
-4.74121e+46
-2.70546e+45
-5.36689e+45
-4.76943e+45
-3.66028e+45
-2.74052e+45
-1.93439e+45
-1.21419e+45
-6.26727e+44
-2.26971e+44
-9.30543e+51
1.75728e+51
-9.71534e+49
-1.70349e+49
2.46463e+48
1.21998e+47
-4.87353e+46
3.4044e+45
5.70803e+45
8.24242e+45
8.97712e+45
7.63126e+45
5.02428e+45
2.32189e+45
8.14058e+44
-1.05277e+53
-7.73525e+51
1.61401e+51
-9.67576e+49
-1.6077e+49
2.47261e+48
1.13846e+47
-1.06867e+47
-9.39812e+46
-1.11278e+47
-1.08882e+47
-9.07808e+46
-6.31977e+46
-3.43836e+46
-1.41412e+46
1.16372e+54
-1.01437e+53
-6.68864e+51
1.51853e+51
-9.94668e+49
-1.92619e+49
-8.98969e+47
-2.79908e+48
-2.58449e+48
-2.09759e+48
-1.65813e+48
-1.25689e+48
-8.76434e+47
-5.42789e+47
-2.68356e+47
2.04992e+55
3.25144e+54
-2.76124e+53
-2.11682e+52
4.47987e+51
-2.36619e+50
-1.39512e+49
5.98483e+49
6.32562e+49
6.5036e+49
6.16493e+49
5.31126e+49
4.08621e+49
2.99199e+49
2.1982e+49
-4.0879e+56
1.86341e+55
3.15294e+54
-2.56962e+53
-2.25471e+52
5.40188e+51
5.74452e+50
6.21985e+50
6.12547e+50
5.09381e+50
3.57048e+50
2.39509e+50
1.64886e+50
1.11021e+50
6.6056e+49
2.93077e+57
-3.69282e+56
1.89403e+55
3.11584e+54
-2.26179e+53
-1.94871e+52
9.74526e+51
3.95784e+51
2.97325e+51
2.26564e+51
1.61906e+51
1.07241e+51
6.32665e+50
3.31425e+50
1.8411e+50
1.67886e+58
2.50371e+57
-3.48247e+56
1.53244e+55
4.53125e+54
1.14497e+53
-1.11487e+52
3.68865e+52
2.34874e+52
1.39247e+52
8.54895e+51
4.8916e+51
2.46155e+51
1.06688e+51
5.12927e+50
-2.95332e+59
1.71438e+58
2.23144e+57
-3.17445e+56
1.63855e+55
2.4471e+54
-9.35999e+52
3.0606e+52
2.84536e+52
1.66064e+52
1.11329e+52
7.60463e+51
4.83708e+51
2.65006e+51
1.46406e+51
1.7501e+58
2.44619e+57
-3.5877e+56
1.84514e+55
3.29258e+54
-9.84603e+52
4.37923e+52
4.40243e+52
2.46693e+52
1.52569e+52
9.87978e+51
7.41551e+51
5.69854e+51
3.91996e+51
2.54463e+51
3.00381e+57
-4.03682e+56
6.75302e+54
2.81695e+54
1.57215e+53
6.34799e+52
5.56059e+52
3.91829e+52
2.58565e+52
1.62046e+52
9.86482e+51
7.45249e+51
5.86881e+51
4.43917e+51
3.0841e+51
-2.83239e+56
-2.04944e+55
-1.60855e+54
-8.22169e+52
1.48777e+53
1.33712e+53
9.05588e+52
5.78505e+52
3.62682e+52
2.25307e+52
1.45686e+52
1.15098e+52
6.9832e+51
4.20547e+51
2.41051e+51
5.26506e+54
1.51587e+54
9.43582e+53
4.80233e+53
2.45751e+53
1.32615e+53
7.45333e+52
4.32364e+52
2.57249e+52
1.72359e+52
1.46253e+52
1.69345e+52
9.10689e+50
1.77754e+49
-2.04833e+49
1.01434e+54
2.78649e+53
9.5776e+52
4.26106e+52
2.07721e+52
1.07293e+52
5.87785e+51
3.34986e+51
1.81399e+51
4.54681e+51
2.02537e+51
7.8488e+49
9.09977e+49
1.31429e+49
4.79119e+48
-3.07696e+52
-8.99071e+51
-6.84657e+51
-5.07607e+51
-3.60688e+51
-2.60217e+51
-1.95764e+51
-1.60503e+51
-2.41629e+51
1.01863e+51
4.24596e+51
-1.07504e+51
-4.94491e+50
-2.45891e+50
-1.22443e+50
-6.7867e+51
-2.58336e+51
-9.66975e+50
-4.50883e+50
-2.33888e+50
-1.13754e+50
-1.57596e+50
-1.92816e+50
1.29945e+50
-9.2527e+50
3.19133e+51
2.00824e+51
1.10284e+51
5.84856e+50
3.15559e+50
8.31251e+50
2.96033e+50
1.47109e+50
9.80827e+49
7.47759e+49
5.1722e+49
1.79626e+49
-7.87117e+48
-1.988e+49
-1.13102e+50
1.76592e+49
3.07523e+50
4.1046e+50
3.62757e+50
2.81177e+50
2.14407e+48
3.84933e+48
-2.31785e+48
-4.05236e+48
-4.52155e+48
-4.06792e+48
-1.39073e+48
8.39111e+47
1.52052e+48
5.51113e+48
-3.18905e+49
-4.86231e+49
-4.36106e+49
-3.59229e+49
-3.0275e+49
-1.14234e+49
-4.38667e+48
-2.0172e+48
-1.2366e+48
-8.76191e+47
-6.07746e+47
-4.09212e+47
-2.26782e+47
-1.38638e+46
5.8996e+47
2.24511e+48
1.91294e+48
1.1925e+48
7.92816e+47
5.84132e+47
5.60495e+47
1.60232e+47
1.44275e+47
1.37921e+47
1.28846e+47
1.03489e+47
4.07618e+46
-1.81377e+46
-7.02261e+46
-1.34254e+47
1.81829e+47
3.90284e+47
3.85245e+47
3.25002e+47
2.59337e+47
1.80397e+47
7.37734e+46
2.85192e+46
1.30615e+46
6.77866e+45
3.96613e+45
4.64087e+45
4.20275e+45
-3.59698e+45
-2.77591e+46
-8.14234e+46
-8.5835e+46
-6.89652e+46
-5.30555e+46
-4.03406e+46
-2.60955e+46
-9.76897e+45
-4.74856e+45
-3.06106e+45
-2.22053e+45
-1.40484e+45
-3.50532e+44
7.88399e+44
2.12391e+45
2.98301e+45
7.61467e+44
-1.49855e+45
-2.01826e+45
-1.80085e+45
-1.39603e+45
5.88342e+44
1.50885e+44
2.23493e+44
2.34315e+44
2.14478e+44
1.48606e+44
3.72785e+43
-1.68059e+43
1.05737e+44
5.91104e+44
1.40182e+45
1.50187e+45
1.2406e+45
9.61741e+44
7.33556e+44
3.81208e+44
1.47375e+44
6.04804e+43
3.21523e+43
2.03198e+43
1.38429e+43
9.18421e+42
-1.97611e+42
-2.60247e+43
-5.50929e+43
-7.13047e+43
-5.5586e+43
-3.86332e+43
-2.62995e+43
-1.54991e+43
-3.86899e+43
-1.41641e+43
-8.14689e+42
-5.88515e+42
-4.45815e+42
-2.56408e+42
9.69887e+40
2.63559e+42
3.78772e+42
6.40299e+41
-6.54519e+42
-9.10362e+42
-7.92159e+42
-5.35206e+42
-1.05169e+42
-2.12396e+42
-8.54431e+41
-2.32661e+41
-5.17036e+40
-7.02904e+39
-4.28376e+40
-1.06963e+41
4.32579e+40
7.29441e+41
2.02996e+42
3.18201e+42
3.09467e+42
2.63533e+42
2.54075e+42
3.82347e+42
5.01219e+41
1.82751e+41
9.10482e+40
6.21632e+40
4.58843e+40
2.63004e+40
-3.0356e+39
-4.48248e+40
-9.71331e+40
-1.17393e+41
-2.55982e+39
2.31866e+41
4.78154e+41
7.45989e+41
1.52314e+42
-1.24976e+39
1.70218e+39
-3.93015e+39
-5.55909e+39
-5.46673e+39
-3.84814e+39
-1.09168e+39
3.35104e+37
-4.7979e+39
-2.10939e+40
-3.48382e+40
2.23795e+40
2.88978e+41
7.34556e+41
1.17147e+42
-1.1964e+40
-4.83429e+39
-2.00042e+39
-1.03368e+39
-6.32821e+38
-4.263e+38
-2.78736e+38
3.78445e+37
7.04843e+38
1.25321e+39
-6.30907e+37
-8.21142e+38
4.86649e+40
2.6957e+41
6.3935e+41
1.28639e+39
4.99327e+38
2.82363e+38
1.98735e+38
1.50905e+38
9.9306e+37
3.24936e+37
-3.12408e+37
-1.04393e+38
-3.02175e+38
-7.26268e+38
-3.04637e+39
-8.21983e+39
7.24337e+39
1.05772e+41
4.0919e+37
1.9225e+37
4.59475e+36
-3.82648e+35
-1.57551e+36
-3.94808e+35
4.80077e+36
1.77651e+37
-1.41402e+37
-3.33692e+38
-6.79449e+38
-1.29484e+39
-3.95475e+39
-1.1865e+40
-2.40586e+40
-1.39793e+37
-5.74374e+36
-2.69054e+36
-1.60074e+36
-1.09161e+36
-6.4653e+35
2.69229e+36
1.84614e+37
-6.66569e+36
-3.70284e+38
-7.42941e+38
-1.29054e+39
-2.49182e+39
-5.7515e+39
-1.38292e+40
8.66363e+35
3.23607e+35
2.33573e+35
1.80511e+35
1.21667e+35
9.30879e+34
2.95191e+36
2.01748e+37
-1.3166e+37
-4.12426e+38
-7.9773e+38
-1.36982e+39
-2.48179e+39
-4.77913e+39
-9.51149e+39
1.40711e+35
5.9733e+34
2.08589e+34
-3.74228e+33
-3.83922e+34
-4.14211e+34
3.02081e+36
2.34782e+37
-1.69169e+37
-4.08749e+38
-7.69274e+38
-1.21683e+39
-1.95623e+39
-3.33437e+39
-5.90551e+39
-1.33863e+34
-5.31496e+33
-9.06599e+33
-2.32778e+34
-5.87864e+34
-7.92225e+34
3.02151e+36
2.75333e+37
1.08528e+37
-3.50144e+38
-7.41806e+38
-1.14557e+39
-1.60997e+39
-2.22937e+39
-3.15011e+39
-1.01253e+33
-1.41761e+33
-6.42387e+33
-2.19721e+34
-6.39011e+34
-1.12589e+35
2.79585e+36
3.20796e+37
2.73304e+37
-2.20431e+38
-6.11056e+38
-1.04932e+39
-1.54722e+39
-2.12644e+39
-2.79583e+39
3.25936e+33
4.04065e+32
-6.67866e+33
-2.38587e+34
-7.00211e+34
-1.46539e+35
2.34544e+36
3.64656e+37
3.75215e+37
-6.63616e+37
-2.99623e+38
-6.2798e+38
-1.06393e+39
-1.62702e+39
-2.35274e+39
2.97697e+33
-6.2082e+31
-8.13052e+33
-2.64945e+34
-7.54296e+34
-1.70299e+35
1.9041e+36
4.55751e+37
5.47195e+37
2.50902e+37
-5.22295e+37
-1.80987e+38
-3.72339e+38
-6.40365e+38
-1.01313e+39
3.46052e+33
-3.6371e+32
-1.00717e+34
-3.00818e+34
-8.3269e+34
-1.91162e+35
1.87582e+36
4.57177e+37
6.67903e+37
6.11825e+37
4.63647e+37
2.14105e+37
-1.75943e+37
-7.72066e+37
-1.68067e+38
4.05201e+33
-7.09037e+32
-1.26252e+34
-3.48411e+34
-9.35205e+34
-2.1704e+35
1.8714e+36
3.52464e+37
5.94442e+37
6.29372e+37
6.30237e+37
6.19376e+37
6.05098e+37
5.85527e+37
5.39662e+37
4.66288e+33
-1.03572e+33
-1.52847e+34
-4.00566e+34
-1.0256e+35
-2.43931e+35
2.0635e+36
2.31887e+37
3.93814e+37
4.60547e+37
4.95587e+37
5.19067e+37
5.4361e+37
5.75563e+37
6.13368e+37
5.25784e+33
-1.44189e+33
-1.80341e+34
-4.56543e+34
-1.09919e+35
-2.77171e+35
9.89117e+35
1.03611e+37
1.90147e+37
2.4479e+37
2.81263e+37
3.10042e+37
3.369e+37
3.63305e+37
3.88688e+37
5.92198e+33
-1.96513e+33
-2.11888e+34
-5.21406e+34
-1.16283e+35
-2.98997e+35
-5.20434e+35
1.89194e+36
5.49909e+36
8.3464e+36
1.05573e+37
1.24994e+37
1.43758e+37
1.616e+37
1.77897e+37
6.60657e+33
-2.69131e+33
-2.49984e+34
-6.01778e+34
-1.26172e+35
-2.91089e+35
-8.30062e+35
-9.49769e+35
-2.41035e+35
6.88949e+35
1.54062e+36
2.36486e+36
3.18177e+36
3.97465e+36
4.73623e+36
7.34265e+33
-3.86888e+33
-3.06533e+34
-7.29329e+34
-1.54038e+35
-3.52349e+35
-7.8263e+35
-1.0773e+36
-1.1203e+36
-1.01366e+36
-8.59499e+35
-6.91312e+35
-5.14609e+35
-3.29673e+35
-1.34696e+35
9.1835e+33
-3.13213e+33
-3.57586e+34
-8.8877e+34
-1.75093e+35
-3.05465e+35
-4.57898e+35
-5.55119e+35
-6.05936e+35
-6.36926e+35
-6.50843e+35
-6.56842e+35
-6.57033e+35
-6.50456e+35
-6.36179e+35
1.24388e+34
6.94268e+33
-1.70067e+34
-5.31483e+34
-9.72218e+34
-1.42954e+35
-1.75736e+35
-1.90327e+35
-1.98498e+35
-2.08189e+35
-2.17646e+35
-2.26966e+35
-2.35492e+35
-2.42351e+35
-2.4711e+35
1.14229e+34
1.61574e+34
8.58666e+33
-5.76641e+33
-2.10344e+34
-3.30145e+34
-4.00181e+34
-4.30189e+34
-4.39827e+34
-4.46052e+34
-4.54507e+34
-4.65213e+34
-4.76762e+34
-4.87646e+34
-4.96568e+34
2.89093e+33
1.14064e+34
1.38911e+34
1.14871e+34
7.0046e+33
2.5307e+33
-1.08286e+33
-3.45959e+33
-4.70511e+33
-5.267e+33
-5.50702e+33
-5.60059e+33
-5.63161e+33
-5.6326e+33
-5.61313e+33
-4.77992e+33
2.4439e+32
4.0036e+33
5.25052e+33
4.87821e+33
3.84809e+33
2.72866e+33
1.79624e+33
1.11642e+33
6.48302e+32
3.32397e+32
1.21363e+32
-1.75253e+31
-1.04916e+32
-1.6052e+32
-4.65279e+33
-3.80247e+33
-1.99304e+33
-6.97564e+32
4.26906e+31
3.92234e+32
5.08419e+32
5.01728e+32
4.41635e+32
3.65266e+32
2.89883e+32
2.23316e+32
1.6877e+32
1.26293e+32
9.27369e+31
-1.09659e+33
-1.66644e+33
-1.4609e+33
-1.07679e+33
-7.15569e+32
-4.42433e+32
-2.5572e+32
-1.36393e+32
-6.41751e+31
-2.23341e+31
8.49436e+29
1.28243e+31
1.81826e+31
1.95491e+31
1.85926e+31
4.38087e+32
6.69773e+31
-1.32192e+32
-1.87723e+32
-1.79232e+32
-1.49029e+32
-1.15084e+32
-8.47928e+31
-6.10601e+31
-4.33831e+31
-3.00831e+31
-2.01158e+31
-1.28251e+31
-7.69542e+30
-4.09668e+30
2.92967e+32
2.22855e+32
1.31209e+32
7.11283e+31
3.47371e+31
1.40461e+31
3.0016e+30
-2.47292e+30
-4.93942e+30
-5.76364e+30
-5.64302e+30
-5.05243e+30
-4.28495e+30
-3.49925e+30
-2.73457e+30
4.80832e+31
5.4174e+31
4.40974e+31
3.2938e+31
2.34778e+31
1.63147e+31
1.1149e+31
7.55569e+30
5.1193e+30
3.45428e+30
2.2888e+30
1.46577e+30
8.90796e+29
4.99029e+29
2.43265e+29
-4.33206e+30
-6.86486e+27
2.23723e+30
2.89561e+30
2.83296e+30
2.50123e+30
2.10358e+30
1.7408e+30
1.44099e+30
1.1885e+30
9.69833e+29
7.8171e+29
6.22869e+29
4.91506e+29
3.83907e+29
-2.4531e+30
-1.90614e+30
-1.21379e+30
-7.48386e+29
-4.50295e+29
-2.63212e+29
-1.45989e+29
-7.27231e+28
-2.68463e+28
1.79497e+27
1.92559e+28
2.92275e+28
3.40916e+28
3.55444e+28
3.46205e+28
-2.8256e+29
-2.73553e+29
-2.18001e+29
-1.67874e+29
-1.27746e+29
-9.72118e+28
-7.47437e+28
-5.87097e+28
-4.69257e+28
-3.77455e+28
-3.0338e+28
-2.42989e+28
-1.93789e+28
-1.53914e+28
-1.21982e+28
-1.11567e+28
-1.08243e+28
-9.63405e+27
-8.2521e+27
-6.90041e+27
-5.72923e+27
-4.78574e+27
-4.06166e+27
-3.4869e+27
-2.99768e+27
-2.56799e+27
-2.18933e+27
-1.85732e+27
-1.56861e+27
-1.32055e+27
-1.40616e+27
-6.54661e+26
-2.50202e+26
-9.57239e+25
-3.78298e+25
-1.64577e+25
-9.00118e+24
-7.02547e+24
-7.27296e+24
-8.15168e+24
-8.90973e+24
-9.29852e+24
-9.30395e+24
-8.99241e+24
-8.49996e+24
-2.88077e+26
-2.02618e+26
-1.15007e+26
-6.49823e+25
-3.7024e+25
-2.15285e+25
-1.28398e+25
-7.79891e+24
-4.73888e+24
-2.82268e+24
-1.61184e+24
-8.53602e+23
-3.8886e+23
-1.13655e+23
3.60333e+22
-8.61685e+24
-1.22628e+25
-1.0269e+25
-7.74218e+24
-5.64746e+24
-4.15564e+24
-3.14179e+24
-2.42139e+24
-1.87261e+24
-1.44346e+24
-1.10829e+24
-8.48004e+23
-6.46942e+23
-4.92655e+23
-3.74676e+23
3.10211e+24
1.92411e+24
1.00096e+24
5.27623e+23
2.79184e+23
1.45393e+23
7.11378e+22
2.87464e+22
4.26568e+21
-9.57788e+21
-1.68444e+22
-1.99922e+22
-2.0615e+22
-1.9774e+22
-1.80847e+22
2.6143e+23
2.10054e+23
1.42894e+23
9.8899e+22
7.02438e+22
5.1704e+22
3.9392e+22
3.06663e+22
2.40642e+22
1.89042e+22
1.48358e+22
1.16244e+22
9.09274e+21
7.10463e+21
5.55153e+21
3.03722e+21
2.61696e+21
1.91268e+21
1.41776e+21
1.077e+21
8.46211e+20
6.83822e+20
5.60248e+20
4.6112e+20
3.79339e+20
3.11094e+20
2.54202e+20
2.06963e+20
1.68029e+20
1.3619e+20
1.18414e+19
7.55105e+18
4.43245e+18
2.75836e+18
1.81937e+18
1.26472e+18
9.17165e+17
6.84511e+17
5.18255e+17
3.94427e+17
3.00689e+17
2.29265e+17
1.74667e+17
1.33081e+17
1.01715e+17
1.30075e+18
6.65033e+17
3.29369e+17
1.85235e+17
1.1498e+17
7.70007e+16
5.46652e+16
4.03843e+16
3.04692e+16
2.3184e+16
1.76878e+16
1.34957e+16
1.02873e+16
7.83987e+15
5.99732e+15
1.24567e+17
7.35732e+16
3.55637e+16
1.90951e+16
1.1083e+16
6.85484e+15
4.46498e+15
3.0181e+15
2.08198e+15
1.45095e+15
1.01796e+15
7.1849e+14
5.10283e+14
3.65271e+14
2.64299e+14
-1.05586e+16
-2.35624e+15
-7.27148e+13
4.45864e+14
4.95578e+14
4.3202e+14
3.486e+14
2.70814e+14
2.04947e+14
1.52218e+14
1.11581e+14
8.10564e+13
5.85819e+13
4.23564e+13
3.06819e+13
-3.95587e+15
-2.09658e+15
-9.7591e+14
-4.96702e+14
-2.73101e+14
-1.60112e+14
-9.89457e+13
-6.36389e+13
-4.19759e+13
-2.80932e+13
-1.89843e+13
-1.2938e+13
-8.89486e+12
-6.17057e+12
-4.35467e+12
-3.43784e+14
-2.14585e+14
-1.17684e+14
-6.86726e+13
-4.28341e+13
-2.8213e+13
-1.93485e+13
-1.36287e+13
-9.72759e+12
-6.97458e+12
-5.00595e+12
-3.59652e+12
-2.59073e+12
-1.8772e+12
-1.37642e+12
-2.9119e+13
-1.18101e+13
-5.24553e+12
-2.76935e+12
-1.68913e+12
-1.13128e+12
-8.04025e+11
-5.91594e+11
-4.41706e+11
-3.30526e+11
-2.4667e+11
-1.83576e+11
-1.36568e+11
-1.02051e+11
-7.70546e+10
-4.48834e+12
-1.88086e+12
-6.60754e+11
-2.70899e+11
-1.2213e+11
-5.8072e+10
-2.83451e+10
-1.37326e+10
-6.28517e+09
-2.48366e+09
-6.14431e+08
2.36588e+08
5.73374e+08
6.60134e+08
6.40263e+08
3.1644e+11
4.33505e+10
-4.74774e+09
-1.44444e+10
-1.32897e+10
-1.02469e+10
-7.43354e+09
-5.2229e+09
-3.58578e+09
-2.42333e+09
-1.62383e+09
-1.08515e+09
-7.26692e+08
-4.91168e+08
-3.32112e+08
1.9846e+11
8.63792e+10
3.46542e+10
1.56463e+10
7.79861e+09
4.20737e+09
2.42266e+09
1.46745e+09
9.21363e+08
5.92998e+08
3.88702e+08
2.58525e+08
1.74019e+08
1.18401e+08
8.22738e+07
2.03548e+10
1.10076e+10
5.19695e+09
2.74504e+09
1.57785e+09
9.66804e+08
6.21695e+08
4.13064e+08
2.79747e+08
1.91661e+08
1.32457e+08
9.22658e+07
6.48108e+07
4.59835e+07
3.30128e+07
4.98037e+07
1.31534e+08
1.05178e+08
7.78013e+07
5.61545e+07
4.04186e+07
2.92691e+07
2.12754e+07
1.54441e+07
1.11848e+07
8.09773e+06
5.87717e+06
4.28713e+06
3.14973e+06
2.32552e+06
-1.34152e+08
-6.98601e+07
-3.30741e+07
-1.67313e+07
-9.13871e+06
-5.34867e+06
-3.31358e+06
-2.13911e+06
-1.41718e+06
-954511
-650775
-448037
-311107
-217757
-154392
-2.4475e+07
-1.06337e+07
-4.568e+06
-2.17856e+06
-1.15963e+06
-677345
-425523
-281308
-191901
-133468
-94064.2
-66938.7
-48041.2
-34757.5
-25431.4
-4.94639e+06
-2.0784e+06
-815325
-361610
-180145
-98896.2
-58581.5
-36659.5
-23802.4
-15851.6
-10747.7
-7380.3
-5123.17
-3595.93
-2564
-641679
-275487
-110617
-50992.5
-26569.1
-15198.6
-9300.44
-5953.31
-3921.72
-2635.84
-1798.29
-1240.19
-863.102
-606.198
-429.999
-55388.2
-20517.3
-7536.12
-3421.05
-1819.49
-1070.17
-672.122
-439.601
-294.795
-201.356
-139.519
-97.6429
-68.896
-48.9977
-35.0287
-993.887
-311.354
-46.8077
-32.9075
-26.2318
-18.8375