/*--------------------------------*- C++ -*----------------------------------*\
  =========                 |
  \\      /  F ield         | OpenFOAM: The Open Source CFD Toolbox
   \\    /   O peration     | Website:  https://openfoam.org
    \\  /    A nd           | Version:  7
     \\/     M anipulation  |
\*---------------------------------------------------------------------------*/
FoamFile
{
    version     2.0;
    format      ascii;
    class       volScalarField;
    location    "3.7";
    object      T;
}
// * * * * * * * * * * * * * * * * * * * * * * * * * * * * * * * * * * * * * //

dimensions      [0 0 0 1 0 0 0];

internalField   nonuniform List<scalar> 
32100
(
4.30325e+106
-5.54918e+105
-2.81155e+104
7.2059e+103
-2.61379e+102
-5.11954e+101
8.57168e+100
2.84691e+99
-1.27725e+99
7.5658e+97
5.00543e+96
-2.89617e+95
9.20538e+92
2.13551e+92
1.52922e+92
-5.82872e+105
-3.24241e+104
7.63548e+103
-2.63543e+102
-5.39236e+101
8.77402e+100
3.02787e+99
-1.30715e+99
8.12308e+97
1.08506e+97
1.20664e+96
-3.39442e+95
-1.2152e+92
1.41635e+91
5.95701e+91
-3.86491e+104
8.26378e+103
-2.71271e+102
-5.77664e+101
9.08942e+100
3.26996e+99
-1.35482e+99
8.15071e+97
8.42286e+96
-1.62172e+96
-6.01457e+94
-2.16938e+95
-1.87637e+93
3.63336e+92
5.24913e+91
9.08999e+103
-2.8325e+102
-6.85293e+101
9.11381e+100
4.25955e+99
-1.3793e+99
7.45266e+97
9.81677e+96
-1.58278e+96
-2.07335e+95
-1.53535e+95
-1.0957e+95
-1.4423e+93
8.08767e+92
4.03512e+91
-2.17507e+102
-8.61172e+101
3.76919e+100
1.50042e+99
-7.53036e+98
1.0333e+98
2.07901e+96
-5.0235e+95
1.41087e+95
-6.41644e+94
-7.36977e+94
-4.33148e+94
2.43295e+92
9.82595e+92
2.10266e+91
-4.63425e+101
-4.60838e+100
-5.40192e+100
-4.27522e+99
7.53664e+98
3.61663e+97
-8.60744e+96
1.02752e+96
2.32749e+95
-2.93932e+94
-1.71723e+94
-1.19819e+94
1.3649e+93
8.30979e+92
2.37324e+90
4.14794e+101
-1.30064e+101
-5.84971e+100
-3.00354e+99
6.43318e+98
3.11456e+97
-6.82777e+96
9.2993e+95
2.26591e+95
-1.16702e+94
-3.07539e+93
-9.14003e+92
1.40369e+93
5.21793e+92
-1.05423e+91
2.82913e+101
-1.23007e+101
-5.4867e+100
-3.41217e+99
5.88535e+98
3.88877e+97
-6.55744e+96
7.54225e+95
2.32149e+95
-6.69468e+93
-6.53162e+92
1.18947e+93
8.5805e+92
2.40717e+92
-1.55821e+91
2.45962e+101
-1.07204e+101
-5.28002e+100
-3.74875e+99
5.41364e+98
4.4678e+97
-6.24232e+96
5.99473e+95
2.3161e+95
-4.41669e+93
-1.28835e+93
7.24665e+92
3.41887e+92
7.23901e+91
-1.38638e+91
2.21913e+101
-9.37826e+100
-5.0512e+100
-4.05711e+99
4.87427e+98
4.9931e+97
-5.79344e+96
4.46042e+95
2.28038e+95
-1.84926e+93
-1.7915e+93
3.0554e+92
8.3212e+91
4.37169e+90
-8.99484e+90
1.98339e+101
-8.11292e+100
-4.81996e+100
-4.35402e+99
4.29426e+98
5.45912e+97
-5.24445e+96
2.99632e+95
2.21495e+95
9.31926e+92
-1.8763e+93
1.67196e+92
8.27341e+90
-1.00675e+91
-4.37642e+90
1.7691e+101
-7.01949e+100
-4.57862e+100
-4.61846e+99
3.68514e+98
5.84969e+97
-4.61155e+96
1.64585e+95
2.11974e+95
3.50207e+93
-1.76094e+93
1.15612e+92
4.85245e+90
-7.19961e+90
-1.53221e+90
1.53568e+101
-6.39679e+100
-4.22725e+100
-4.77063e+99
3.08921e+98
6.14615e+97
-3.92407e+96
4.52866e+94
1.99782e+95
5.63415e+93
-1.59331e+93
8.07297e+91
8.49325e+90
-3.32927e+90
-3.79458e+89
1.04672e+101
-5.40826e+100
-3.36512e+100
-4.25451e+99
2.29369e+98
6.24696e+97
-3.14549e+96
-4.75125e+94
1.84744e+95
7.34788e+93
-1.48921e+93
5.49847e+91
8.18629e+90
-1.91381e+90
-1.25214e+89
4.57498e+100
-3.81949e+100
-2.60822e+100
-3.57259e+99
1.51267e+98
5.53979e+97
-2.14153e+96
-1.17769e+95
1.66313e+95
9.09887e+93
-1.46811e+93
3.99563e+91
9.92091e+90
-1.76609e+90
-8.86947e+88
4.16717e+100
-2.47459e+100
-2.1808e+100
-3.23978e+99
9.65453e+97
4.90746e+97
-1.30735e+96
-1.90132e+95
1.50634e+95
1.12455e+94
-1.43945e+93
2.01483e+91
1.40697e+91
-2.00654e+90
-1.18252e+89
4.68007e+100
-1.78909e+100
-1.93609e+100
-3.13127e+99
5.68058e+97
4.76839e+97
-6.64005e+95
-2.59007e+95
1.38555e+95
1.34013e+94
-1.34346e+93
-8.88557e+90
1.70837e+91
-2.10677e+90
-1.76777e+89
4.13384e+100
-1.43227e+100
-1.79919e+100
-3.14053e+99
2.05376e+97
4.72001e+97
2.35232e+93
-3.15386e+95
1.26358e+95
1.54791e+94
-1.18948e+93
-4.10436e+91
1.856e+91
-1.94642e+90
-2.38832e+89
3.56464e+100
-1.1693e+100
-1.6728e+100
-3.1572e+99
-1.74517e+97
4.6624e+97
7.40455e+95
-3.61747e+95
1.12956e+95
1.7429e+94
-9.84839e+92
-7.29396e+91
1.89071e+91
-1.58856e+90
-2.90249e+89
3.02352e+100
-9.38988e+99
-1.54157e+100
-3.15518e+99
-5.79128e+97
4.55687e+97
1.5484e+96
-3.94399e+95
9.80181e+94
1.91719e+94
-7.34769e+92
-1.04111e+92
1.89615e+91
-1.14241e+90
-3.33435e+89
2.48717e+100
-7.3899e+99
-1.40439e+100
-3.13369e+99
-1.00302e+98
4.38234e+97
2.41426e+96
-4.10069e+95
8.16131e+94
2.07131e+94
-4.38645e+92
-1.32301e+92
1.8083e+91
-6.23083e+89
-3.62234e+89
1.9839e+100
-5.63721e+99
-1.26681e+100
-3.10096e+99
-1.44117e+98
4.12642e+97
3.3204e+96
-4.06453e+95
6.40168e+94
2.20834e+94
-9.86504e+91
-1.55264e+92
1.59378e+91
-8.31525e+88
-3.66107e+89
1.54334e+100
-4.11644e+99
-1.13389e+100
-3.05495e+99
-1.89071e+98
3.77641e+97
4.24393e+96
-3.80577e+95
4.53677e+94
2.33089e+94
2.86099e+92
-1.74402e+92
1.34155e+91
4.17118e+89
-3.51642e+89
1.17015e+100
-2.81358e+99
-1.00608e+100
-2.99116e+99
-2.34642e+98
3.30582e+97
5.16113e+96
-3.28983e+95
2.57039e+94
2.43327e+94
7.26271e+92
-1.90439e+92
1.06331e+91
8.78097e+89
-3.29421e+89
8.61312e+99
-1.73178e+99
-8.8582e+99
-2.91353e+99
-2.80558e+98
2.7057e+97
6.0443e+96
-2.46875e+95
5.11754e+93
2.49828e+94
1.2352e+93
-2.02862e+92
7.33276e+90
1.31873e+90
-3.06467e+89
6.10172e+99
-8.77084e+98
-7.71987e+99
-2.8198e+99
-3.26405e+98
1.97338e+97
6.85297e+96
-1.29057e+95
-1.60646e+94
2.51408e+94
1.82348e+93
-2.11327e+92
3.21381e+90
1.77154e+90
-2.85812e+89
4.14363e+99
-1.89493e+98
-6.64281e+99
-2.7112e+99
-3.7197e+98
1.09932e+97
7.54371e+96
2.91784e+94
-3.70797e+94
2.46447e+94
2.49639e+93
-2.10199e+92
-2.15246e+90
2.22847e+90
-2.59341e+89
2.55447e+99
3.81884e+98
-5.65432e+99
-2.59618e+99
-4.16887e+98
7.15235e+95
8.05823e+96
2.32496e+95
-5.64833e+94
2.34537e+94
3.24981e+93
-1.91501e+92
-8.78572e+90
2.59829e+90
-2.16887e+89
1.16192e+99
7.92232e+98
-4.77414e+99
-2.47743e+99
-4.60414e+98
-1.12237e+97
8.33229e+96
4.85342e+95
-7.25778e+94
2.12084e+94
4.06911e+93
-1.52708e+92
-1.65362e+91
2.86762e+90
-1.61064e+89
-4.05007e+97
9.71371e+98
-3.99734e+99
-2.34698e+99
-5.00887e+98
-2.4941e+97
8.27318e+96
7.91715e+95
-8.31444e+94
1.76454e+94
4.93081e+93
-8.83541e+91
-2.543e+91
3.02785e+90
-9.25678e+88
-9.42151e+98
9.44561e+98
-3.29369e+99
-2.19432e+99
-5.37131e+98
-4.05159e+97
7.75655e+96
1.15456e+96
-8.46907e+94
1.26293e+94
5.82343e+93
9.99784e+90
-3.42392e+91
2.95434e+90
-1.36913e+88
-1.44975e+99
8.74514e+98
-2.62154e+99
-2.02362e+99
-5.68159e+98
-5.79895e+97
6.61949e+96
1.57018e+96
-7.20433e+94
5.95443e+93
6.72667e+93
1.45797e+92
-4.19822e+91
2.64485e+90
6.76993e+88
-1.6785e+99
8.91083e+98
-2.00463e+99
-1.84027e+99
-5.91579e+98
-7.73445e+97
4.65349e+96
2.01946e+96
-3.79741e+94
-2.45795e+93
7.59901e+93
3.36522e+92
-5.07662e+91
2.16539e+90
1.62456e+89
-1.86996e+99
9.27613e+98
-1.48187e+99
-1.64837e+99
-6.07604e+98
-9.8608e+97
1.63688e+96
2.46177e+96
2.5808e+94
-1.23515e+94
8.28781e+93
6.32291e+92
-6.15201e+91
1.27749e+90
3.02131e+89
-2.05159e+99
8.36103e+98
-1.06326e+99
-1.45308e+99
-6.17552e+98
-1.21772e+98
-2.63919e+96
2.82636e+96
1.27479e+95
-2.28206e+94
8.49419e+93
1.06297e+93
-6.92954e+91
-5.79292e+89
5.18284e+89
-2.13911e+99
6.42307e+98
-7.16833e+98
-1.25672e+99
-6.20788e+98
-1.46379e+98
-8.27659e+96
3.01918e+96
2.73234e+95
-3.17569e+94
7.76209e+93
1.67533e+93
-6.49052e+91
-4.2756e+90
8.31391e+89
-2.14344e+99
4.64139e+98
-4.20183e+98
-1.06494e+99
-6.16462e+98
-1.71318e+98
-1.52806e+97
2.94506e+96
4.64413e+95
-3.54427e+94
5.5368e+93
2.49901e+93
-2.86457e+91
-1.10324e+91
1.20676e+90
-2.09787e+99
3.05582e+98
-1.78119e+98
-8.80238e+98
-6.02969e+98
-1.94912e+98
-2.36824e+97
2.49028e+96
6.93425e+95
-2.87593e+94
1.39138e+93
3.34788e+93
6.71569e+91
-2.11196e+91
1.44702e+90
-2.00758e+99
1.38747e+98
4.19268e+96
-6.99273e+98
-5.7595e+98
-2.1391e+98
-3.3352e+97
1.52174e+96
9.3585e+95
-5.57488e+93
-4.45822e+93
3.99564e+93
2.48884e+92
-3.30044e+91
1.13347e+90
-1.8749e+99
-4.06698e+97
1.24713e+98
-5.26751e+98
-5.28026e+98
-2.26359e+98
-4.3802e+97
-7.83013e+94
1.14844e+96
3.87119e+94
-1.10534e+94
4.17494e+93
5.56773e+92
-4.27316e+91
-4.81337e+89
-1.69036e+99
-2.24812e+98
1.78622e+98
-3.70145e+98
-4.62787e+98
-2.31785e+98
-5.41853e+97
-2.34779e+96
1.28197e+96
1.04384e+95
-1.68332e+94
3.60647e+93
1.02085e+93
-3.89792e+91
-4.54672e+90
-1.45171e+99
-3.75595e+98
1.73363e+98
-2.35451e+98
-3.91585e+98
-2.3056e+98
-6.36968e+97
-5.19291e+96
1.30752e+96
1.88074e+95
-1.97576e+94
2.03442e+93
1.41959e+93
-8.17306e+90
-1.04744e+91
-1.19215e+99
-4.57552e+98
1.32252e+98
-1.27013e+98
-3.21461e+98
-2.23483e+98
-7.16085e+97
-8.3223e+96
1.21028e+96
2.82246e+95
-1.76658e+94
-2.3912e+92
1.63824e+93
5.08928e+91
-1.63126e+91
-9.53961e+98
-4.75632e+98
8.59861e+97
-4.65183e+97
-2.5577e+98
-2.11722e+98
-7.77817e+97
-1.1572e+97
8.90939e+95
3.73405e+95
-1.09858e+94
-2.56669e+93
1.73441e+93
1.27851e+92
-2.11999e+91
-7.56028e+98
-4.59625e+98
4.58286e+97
7.55319e+96
-1.96449e+98
-1.96948e+98
-8.23324e+97
-1.46434e+97
4.25439e+95
4.27385e+95
-7.70018e+92
-4.44625e+93
1.5779e+93
2.30525e+92
-2.97303e+91
-6.00127e+98
-4.33779e+98
8.19951e+96
4.10057e+97
-1.44574e+98
-1.80783e+98
-8.58376e+97
-1.75248e+97
-9.58752e+94
4.48529e+95
1.07691e+94
-5.24469e+93
1.12584e+93
2.17405e+92
-1.43049e+91
-4.77139e+98
-4.06768e+98
-2.81812e+97
5.96547e+97
-1.00482e+98
-1.64486e+98
-8.90052e+97
-2.06396e+97
-6.45584e+95
4.61212e+95
2.04224e+94
-5.44089e+93
7.54218e+92
1.60077e+92
-5.78095e+90
-3.77871e+98
-3.7804e+98
-6.54732e+97
6.50952e+97
-6.38415e+97
-1.47712e+98
-9.15804e+97
-2.39411e+97
-1.25072e+96
4.72143e+95
2.99601e+94
-5.70737e+93
5.52142e+92
1.41794e+92
-2.74541e+90
-2.95416e+98
-3.45732e+98
-1.00112e+98
5.97893e+97
-3.36511e+97
-1.29321e+98
-9.24301e+97
-2.71872e+97
-1.94475e+96
4.83529e+95
3.99221e+94
-5.99882e+93
4.34062e+92
1.44423e+92
-1.57849e+90
-2.27398e+98
-3.08886e+98
-1.26696e+98
4.86041e+97
-8.73075e+96
-1.09592e+98
-9.12385e+97
-3.01983e+97
-2.72172e+96
4.86049e+95
5.07336e+94
-6.24112e+93
3.42982e+92
1.56027e+92
-7.83887e+89
-1.72132e+98
-2.70747e+98
-1.46607e+98
3.20453e+97
1.09446e+97
-9.00246e+97
-8.93108e+97
-3.31177e+97
-3.61149e+96
4.73851e+95
6.19725e+94
-6.3157e+93
2.51792e+92
1.63081e+92
2.34864e+89
-1.27451e+98
-2.33042e+98
-1.62754e+98
9.94752e+96
2.51229e+97
-7.08565e+97
-8.70044e+97
-3.62574e+97
-4.65119e+96
4.42699e+95
7.25012e+94
-6.06734e+93
1.53234e+92
1.54275e+92
1.46607e+90
-9.24465e+97
-1.94823e+98
-1.70739e+98
-1.32039e+97
3.45227e+97
-5.17197e+97
-8.34544e+97
-3.95499e+97
-5.85314e+96
3.92142e+95
8.10873e+94
-5.51078e+93
6.28263e+91
1.31171e+92
2.30528e+90
-6.58325e+97
-1.5819e+98
-1.68554e+98
-3.52224e+97
3.9307e+97
-3.29016e+97
-7.83579e+97
-4.27691e+97
-7.21579e+96
3.20636e+95
8.69056e+94
-4.73979e+93
-1.93005e+90
1.00896e+92
2.41239e+90
-4.559e+97
-1.258e+98
-1.60727e+98
-5.71093e+97
3.73826e+97
-1.48857e+97
-7.14131e+97
-4.57147e+97
-8.7356e+96
2.29143e+95
8.8392e+94
-3.81335e+93
-3.4432e+91
6.89236e+91
2.14523e+90
-3.02414e+97
-9.72325e+97
-1.49101e+98
-7.89071e+97
2.84729e+97
1.734e+96
-6.24328e+97
-4.81517e+97
-1.04009e+97
1.25259e+95
8.33301e+94
-2.73924e+93
-3.79109e+91
3.29831e+91
1.83149e+90
-1.87891e+97
-7.18037e+97
-1.33351e+98
-9.78313e+97
1.3979e+97
1.58119e+97
-5.16091e+97
-5.02051e+97
-1.21864e+97
1.7786e+94
6.89397e+94
-1.51489e+93
-3.10911e+91
5.61563e+90
2.06073e+90
-1.0707e+97
-4.99369e+97
-1.13948e+98
-1.11415e+98
-5.36732e+96
2.59476e+97
-3.87162e+97
-5.16739e+97
-1.40764e+97
-8.06307e+94
4.8879e+94
-4.30005e+92
-8.19618e+91
-3.28874e+90
1.94194e+90
-5.47541e+96
-3.2032e+97
-9.20381e+97
-1.18401e+98
-2.77989e+97
3.10652e+97
-2.36055e+97
-5.18142e+97
-1.61554e+97
-1.99585e+95
3.26431e+94
7.71003e+91
-1.45705e+92
-1.97794e+91
7.25103e+89
-2.37574e+96
-1.83417e+97
-6.9119e+97
-1.17923e+98
-5.09483e+97
3.00442e+97
-6.76336e+96
-4.96494e+97
-1.87592e+97
-4.96267e+95
2.79478e+94
2.60735e+91
-2.07207e+92
-1.02904e+92
-3.82366e+91
-7.09353e+95
-8.61035e+96
-4.66894e+97
-1.10169e+98
-7.32203e+97
2.14673e+97
1.09084e+97
-4.37649e+97
-2.12936e+97
-1.29252e+96
9.97169e+94
6.98356e+92
1.12515e+93
4.82743e+92
9.8974e+91
-1.12788e+94
-2.47212e+96
-2.62616e+97
-9.53918e+97
-9.32624e+97
3.69769e+96
2.74871e+97
-3.3198e+97
-2.13634e+97
-2.5231e+96
1.75473e+95
2.97255e+94
2.38172e+94
1.54134e+94
5.39016e+93
8.49625e+94
2.83862e+95
-9.60114e+96
-7.36315e+97
-1.08552e+98
-2.40602e+97
3.91123e+97
-1.98145e+97
-2.1924e+97
-5.55795e+96
-3.57265e+95
-2.51973e+95
-2.73853e+95
-1.9055e+95
-6.32285e+94
1.04327e+95
4.1032e+95
5.82296e+95
-4.53853e+97
-1.14334e+98
-5.94256e+97
4.1702e+97
-4.02613e+96
-2.13227e+97
-8.48498e+96
-3.6965e+96
-2.60353e+96
-3.13332e+96
-4.04891e+96
-2.626e+96
3.42573e+95
5.96379e+95
1.18335e+96
-1.64441e+97
-1.03631e+98
-9.62127e+97
3.25881e+97
1.2607e+97
-1.62947e+97
-7.45662e+96
-7.05075e+96
-6.52131e+96
-8.82919e+96
-8.16513e+96
-4.41174e+96
1.55167e+96
5.20303e+95
1.0042e+96
-8.33164e+96
-7.42733e+97
-1.23635e+98
1.24874e+97
2.48981e+97
-8.07554e+96
-2.60659e+96
-1.76024e+96
-3.8406e+96
-5.119e+96
-4.1046e+96
-4.15128e+96
6.46258e+96
1.19049e+96
1.88152e+96
-1.65756e+97
-6.59842e+97
-1.13873e+98
-9.46854e+96
2.91874e+97
-7.92088e+95
4.22628e+95
-5.24567e+95
-5.28569e+95
-8.04009e+95
-1.46882e+96
-3.6829e+96
-5.39889e+98
-2.04353e+98
-9.74222e+97
-5.67136e+97
-8.6307e+97
-9.68188e+97
7.87601e+96
2.66414e+97
6.05593e+96
-3.1083e+96
-2.48608e+96
-1.78853e+96
-1.29757e+96
-1.16297e+96
-2.98545e+96
-9.39543e+97
7.21628e+96
-3.28388e+98
-3.36527e+98
-2.47099e+98
-1.98868e+97
1.17902e+98
6.64186e+97
9.41659e+96
-2.86478e+96
-3.26713e+96
-2.36555e+96
-1.57264e+96
-1.10884e+96
-2.54766e+96
9.06668e+100
2.31313e+100
8.04176e+99
3.57912e+99
1.79756e+99
1.00164e+99
4.43824e+98
1.15477e+98
1.23587e+97
-8.50175e+96
-7.62306e+96
-4.69272e+96
-2.68661e+96
-1.56779e+96
-2.21848e+96
-1.13461e+102
-1.79668e+101
-7.81799e+99
9.13515e+99
7.71138e+99
5.01062e+99
2.1951e+99
5.96392e+98
1.24527e+98
1.5818e+97
-3.09001e+96
-3.88306e+96
-2.40183e+96
-1.44535e+96
-1.94569e+96
-1.85048e+102
-1.04885e+102
-5.43104e+101
-1.80048e+101
-5.31565e+100
-8.84336e+99
7.89785e+98
6.79192e+98
1.84208e+98
2.28233e+97
-1.26997e+97
-1.52436e+97
-1.1035e+97
-6.71037e+96
-7.78856e+96
1.27945e+104
8.29467e+102
-6.84011e+101
-5.02218e+101
-1.93385e+101
-3.41017e+100
-1.46122e+99
3.16144e+98
9.32541e+96
-8.05997e+97
-7.73968e+97
-5.69594e+97
-3.76566e+97
-2.36458e+97
-2.69682e+97
6.40978e+104
1.55121e+104
1.94276e+103
-2.17386e+101
-5.58543e+100
-3.3466e+100
2.76155e+99
7.00743e+99
5.93761e+99
4.94039e+99
3.90913e+99
2.83525e+99
1.77074e+99
8.94918e+98
4.5042e+98
-1.59643e+106
5.50137e+104
1.88263e+104
2.09009e+102
-1.5704e+102
2.88649e+101
7.71268e+100
6.57817e+100
5.1459e+100
3.74268e+100
2.65779e+100
1.81987e+100
1.1448e+100
6.14682e+99
2.5738e+99
1.28457e+107
-1.51159e+106
8.49535e+104
1.44569e+104
-5.93655e+102
-1.09058e+102
3.66724e+101
6.59676e+100
1.71579e+100
-1.06944e+100
-2.35407e+100
-2.24041e+100
-1.31979e+100
-3.15449e+99
9.20327e+97
1.49341e+106
1.10748e+107
-1.36121e+106
8.12982e+104
1.3114e+104
-5.51844e+102
-5.69887e+101
1.10033e+102
9.66313e+101
9.49323e+101
8.3196e+101
6.33925e+101
4.0135e+101
1.98843e+101
7.25231e+100
-8.19146e+108
6.87882e+106
9.92673e+106
-1.2833e+106
8.08573e+104
1.40797e+104
2.48936e+102
3.82937e+102
2.70158e+102
6.1817e+101
-4.18037e+101
-7.06709e+101
-5.2626e+101
-1.87823e+101
-5.04341e+100
-6.48663e+109
-7.56094e+108
9.83991e+106
9.16604e+106
-1.26231e+106
3.74766e+104
-2.89343e+104
-4.20425e+104
-3.95212e+104
-3.52516e+104
-2.96735e+104
-2.29945e+104
-1.55872e+104
-8.62894e+103
-3.58773e+103
9.78774e+110
-6.38408e+109
-7.0662e+108
1.0322e+107
7.86421e+106
-1.85308e+106
-4.76917e+105
-4.41891e+105
-3.70694e+105
-2.89832e+105
-2.17757e+105
-1.59266e+105
-1.09187e+105
-6.78985e+104
-3.3725e+104
-2.08211e+112
2.72542e+111
-1.71159e+110
-2.05777e+109
6.25973e+106
2.0454e+107
-7.32594e+106
-1.84477e+106
-8.55306e+105
-1.45911e+105
3.36977e+105
5.2396e+105
4.84489e+105
3.94983e+105
2.83713e+105
3.88663e+112
-1.9602e+112
2.62544e+111
-1.54469e+110
-2.07732e+109
7.32514e+106
4.25252e+107
9.87159e+106
1.26078e+107
1.03777e+107
6.85278e+106
4.43548e+106
3.06541e+106
2.04042e+106
1.17363e+106
9.62448e+113
2.53383e+112
-1.74886e+112
2.49397e+111
-1.33787e+110
-2.23064e+109
6.24144e+107
1.06249e+108
5.45509e+107
4.28049e+107
3.03898e+107
1.97922e+107
1.13505e+107
5.97727e+106
3.40933e+106
1.07909e+114
9.06637e+113
1.63803e+112
-1.69969e+112
1.8548e+111
9.1157e+109
-4.76619e+109
-2.11563e+108
2.22551e+108
1.39158e+108
9.20026e+107
5.95852e+107
3.29913e+107
1.55269e+107
7.9474e+106
-8.93337e+115
1.4333e+114
8.61366e+113
1.30498e+112
-1.40445e+112
1.89917e+111
-1.13926e+110
-1.62443e+109
-1.37393e+108
-2.71683e+106
2.8199e+107
4.1175e+107
3.76872e+107
2.68864e+107
1.84548e+107
1.11852e+114
9.46348e+113
9.32752e+111
-1.76944e+112
2.25264e+111
-2.13553e+110
-5.53099e+109
-1.58189e+109
-6.0274e+108
-2.35903e+108
-6.37356e+107
8.58048e+106
2.70978e+107
2.94442e+107
2.79053e+107
9.7651e+113
3.91468e+112
-2.10794e+112
3.52374e+110
-2.8813e+110
-1.36127e+110
-5.4596e+109
-2.25954e+109
-9.65822e+108
-4.08845e+108
-1.50027e+108
-1.33313e+107
3.00857e+107
3.97916e+107
3.94304e+107
3.69644e+112
-6.65395e+111
-2.83924e+111
-9.87126e+110
-3.29501e+110
-1.15928e+110
-4.27513e+109
-1.59743e+109
-5.79319e+108
-1.8328e+108
-1.90429e+106
1.22843e+108
9.18674e+107
6.50987e+107
4.40421e+107
-1.08381e+112
-1.69806e+111
-1.62722e+110
2.15767e+109
3.34299e+109
2.53742e+109
1.6958e+109
1.09493e+109
7.05132e+108
5.11447e+108
4.52772e+108
5.43191e+108
3.99579e+107
1.33321e+106
-2.00064e+106
8.10953e+110
2.24178e+110
8.12265e+109
3.68394e+109
1.83655e+109
9.95907e+108
5.80916e+108
3.56348e+108
2.5406e+108
5.37396e+108
1.52797e+108
-1.13911e+107
5.14929e+106
8.21964e+105
2.63463e+104
-1.8661e+109
-6.02825e+108
-4.25845e+108
-2.80689e+108
-1.93157e+108
-1.40842e+108
-1.07594e+108
-9.6112e+107
-1.35236e+108
2.46244e+108
4.12351e+108
-3.01909e+107
-2.98904e+107
-1.59728e+107
-8.47972e+106
-3.05611e+108
-1.00554e+108
-5.62601e+107
-4.18542e+107
-3.38553e+107
-2.53479e+107
-1.88111e+107
-1.43382e+107
2.36195e+107
1.54336e+107
3.38823e+108
2.19267e+108
1.24514e+108
6.89801e+107
3.83144e+107
-2.14647e+107
-9.71528e+106
-2.37664e+106
1.03246e+105
1.02952e+106
1.10338e+106
-6.21704e+105
-1.89971e+106
-1.55472e+106
-9.38017e+106
1.17318e+107
3.82476e+107
4.37771e+107
3.65949e+107
2.78004e+107
6.97979e+106
2.79058e+106
1.19927e+106
6.36676e+105
3.93579e+105
2.34584e+105
1.24906e+105
4.23916e+104
-2.40034e+104
-3.31241e+105
-3.03602e+106
-3.51174e+106
-2.79665e+106
-2.19908e+106
-1.81965e+106
-6.59539e+105
-2.48455e+105
-1.25762e+105
-8.19736e+104
-6.11536e+104
-4.33018e+104
-1.77898e+104
3.56784e+103
1.47262e+104
5.64945e+104
-1.21141e+105
-2.3385e+105
-2.24369e+105
-1.87867e+105
-1.56403e+105
6.31487e+103
1.09359e+103
3.13813e+103
3.35686e+103
3.3057e+103
2.72654e+103
8.52982e+102
-6.11529e+102
-5.46037e+102
4.03418e+103
2.57578e+104
3.06165e+104
2.55493e+104
2.02573e+104
1.58373e+104
6.38469e+103
2.3292e+103
1.23798e+103
8.68233e+102
6.86485e+102
5.22301e+102
3.3641e+102
1.12744e+102
-2.93916e+102
-7.68702e+102
-6.62732e+102
-5.29153e+101
2.17959e+102
2.59926e+102
2.21593e+102
1.54638e+102
8.39513e+101
-8.27347e+99
-2.80658e+101
-3.41735e+101
-2.18257e+101
1.52853e+101
4.99961e+101
6.18613e+101
-3.65845e+100
-2.6106e+102
-3.55204e+102
-3.15246e+102
-2.50431e+102
-1.90175e+102
-1.20673e+102
-4.71295e+101
-2.01256e+101
-1.09529e+101
-6.93395e+100
-4.21327e+100
-1.52066e+100
3.80128e+100
1.66316e+101
3.97163e+101
6.37079e+101
5.86225e+101
4.54216e+101
3.43875e+101
2.61646e+101
1.09369e+101
4.02342e+100
2.14778e+100
1.48021e+100
1.08858e+100
6.17859e+99
1.93414e+97
-4.77693e+99
-4.2646e+99
9.59245e+99
3.6967e+100
4.45081e+100
3.87667e+100
3.12768e+100
2.53854e+100
2.14793e+99
9.63453e+98
-1.53817e+98
-4.31526e+98
-4.52948e+98
-2.78353e+98
-3.70442e+97
-3.05907e+98
-1.67897e+99
-4.32149e+99
-6.83723e+99
-6.34987e+99
-4.70206e+99
-2.83811e+99
-6.81482e+98
-1.57896e+99
-5.87636e+98
-2.92263e+98
-1.92637e+98
-1.42551e+98
-9.46783e+97
-3.32995e+97
5.23069e+97
1.50679e+98
1.58498e+98
6.74974e+97
4.96482e+97
2.29329e+98
7.21094e+98
1.71591e+99
2.10478e+97
4.96833e+96
1.02423e+97
1.11949e+97
9.72702e+96
4.59485e+96
-4.05016e+96
-9.6804e+96
-2.44056e+96
3.09975e+97
8.34923e+97
1.16773e+98
2.18162e+98
5.44489e+98
1.28427e+99
1.89882e+97
7.53033e+96
3.15465e+96
1.67373e+96
1.04554e+96
6.47087e+95
1.59598e+95
-1.07023e+96
-3.95293e+96
-8.6093e+96
-1.26888e+97
-1.03296e+97
2.17622e+97
1.97684e+98
6.8142e+98
-1.84705e+96
-7.04858e+95
-3.85353e+95
-2.67277e+95
-1.98244e+95
-1.19475e+95
-1.41498e+94
8.3869e+94
7.64481e+94
-3.96118e+95
-1.34468e+96
-2.22698e+96
-1.65721e+96
9.1538e+96
5.10508e+97
-4.0304e+94
-1.95282e+94
4.04391e+92
6.07028e+93
6.9393e+93
4.70789e+93
1.08453e+93
2.20348e+93
-1.09794e+94
-3.03588e+95
-8.18441e+95
-1.59357e+96
-2.74193e+96
-4.06365e+96
-4.40851e+96
2.47073e+94
9.83434e+93
5.06102e+93
3.33955e+93
2.47749e+93
1.77607e+93
9.81801e+92
-1.3519e+93
-4.07276e+94
-4.71733e+95
-1.17031e+96
-2.1084e+96
-3.4388e+96
-5.34713e+96
-8.0005e+96
-3.71728e+92
-7.38989e+91
-1.78094e+92
-2.07884e+92
-1.92265e+92
-1.13555e+92
1.18604e+92
-7.4834e+92
-4.37479e+94
-5.63217e+95
-1.38569e+96
-2.50552e+96
-4.11424e+96
-6.41952e+96
-9.62904e+96
-3.39083e+92
-1.47602e+92
-6.45024e+91
-3.33091e+91
-1.92653e+91
5.60843e+90
1.47909e+92
-7.75257e+92
-4.99182e+94
-6.08709e+95
-1.47454e+96
-2.74007e+96
-4.60109e+96
-7.31106e+96
-1.1147e+97
3.79555e+91
1.57766e+91
8.72509e+90
5.91419e+90
5.0706e+90
2.21569e+91
1.78034e+92
-7.07964e+92
-5.96735e+94
-5.44575e+95
-1.29948e+96
-2.4693e+96
-4.25284e+96
-6.89528e+96
-1.06879e+97
1.01532e+89
1.19689e+89
-9.27188e+88
-1.56947e+89
3.84861e+89
1.81413e+91
2.01023e+92
-5.64114e+92
-3.3749e+94
-3.84582e+95
-9.65513e+95
-1.85405e+96
-3.17746e+96
-5.11441e+96
-7.87368e+96
-3.5674e+89
-1.60746e+89
-9.34331e+88
-6.87855e+88
3.84028e+89
1.65424e+91
2.20586e+92
-4.89831e+92
-2.24769e+94
-2.20204e+95
-5.78704e+95
-1.1042e+96
-1.84655e+96
-2.89632e+96
-4.35808e+96
4.57591e+87
-5.55572e+87
-1.13823e+88
-1.89514e+88
3.33584e+89
1.4612e+91
2.2976e+92
-5.27435e+92
-1.89737e+94
-9.62528e+94
-2.42004e+95
-4.68323e+95
-7.90809e+95
-1.23454e+96
-1.83827e+96
-2.8771e+87
-8.37949e+87
-1.65161e+88
-2.82793e+88
2.62436e+89
1.31168e+91
2.3338e+92
-5.64332e+92
-1.07031e+94
-3.44287e+94
-7.8073e+94
-1.48883e+95
-2.52776e+95
-3.97182e+95
-5.966e+95
-8.42255e+87
-1.22667e+88
-2.09102e+88
-3.69191e+88
1.89669e+89
1.20443e+91
2.52016e+92
1.2211e+93
-1.81642e+93
-7.99622e+93
-1.78909e+94
-3.28991e+94
-5.4868e+94
-8.63191e+94
-1.30658e+95
-9.34659e+87
-1.43485e+88
-2.52943e+88
-4.73165e+88
1.02592e+89
1.01592e+91
2.73159e+92
1.89966e+93
1.95629e+93
1.1612e+93
7.58715e+91
-1.31616e+93
-3.18131e+93
-5.82059e+93
-9.67832e+93
-1.09096e+88
-1.69199e+88
-3.03485e+88
-5.82841e+88
2.72413e+88
7.16316e+90
3.08084e+92
1.71676e+93
2.27891e+93
2.53595e+93
2.83365e+93
3.26979e+93
3.92226e+93
4.8606e+93
6.12007e+93
-1.25219e+88
-1.95914e+88
-3.56547e+88
-6.89581e+88
-1.25055e+88
4.19476e+90
2.61633e+92
1.11315e+93
1.50635e+93
1.7533e+93
1.9793e+93
2.25078e+93
2.61362e+93
3.09879e+93
3.72741e+93
-1.43107e+88
-2.25846e+88
-4.1742e+88
-8.07267e+88
-2.20374e+88
2.51401e+90
1.02933e+92
5.24659e+92
7.41034e+92
8.73708e+92
9.80851e+92
1.09388e+93
1.22834e+93
1.38598e+93
1.56503e+93
-1.63191e+88
-2.60326e+88
-4.90451e+88
-9.51196e+88
-1.52785e+88
2.19973e+90
5.07349e+91
1.68949e+92
2.56219e+92
3.14579e+92
3.60398e+92
4.08132e+92
4.59861e+92
5.13497e+92
5.67363e+92
-1.84223e+88
-2.9507e+88
-5.62726e+88
-1.09685e+89
-9.14596e+87
2.44847e+90
1.45616e+91
3.56092e+91
5.52149e+91
7.16676e+91
8.62911e+91
1.01181e+92
1.16678e+92
1.32343e+92
1.47808e+92
-2.05524e+88
-3.30189e+88
-6.29352e+88
-1.25934e+89
-1.6589e+89
7.00705e+88
9.43525e+89
2.55396e+90
4.65434e+90
6.95032e+90
9.33317e+90
1.18611e+91
1.45439e+91
1.73366e+91
2.01999e+91
-2.09339e+88
-3.18053e+88
-5.37759e+88
-1.09035e+89
-2.2229e+89
-3.99466e+89
-5.95623e+89
-7.43671e+89
-8.21067e+89
-8.35426e+89
-7.95812e+89
-7.11575e+89
-5.86224e+89
-4.22055e+89
-2.21433e+89
-1.85239e+88
-2.63788e+88
-3.40779e+88
-4.65522e+88
-6.86218e+88
-1.03503e+89
-1.49144e+89
-1.97913e+89
-2.44264e+89
-2.8859e+89
-3.31076e+89
-3.70645e+89
-4.06139e+89
-4.36372e+89
-4.608e+89
-1.2711e+88
-1.83269e+88
-2.18248e+88
-2.33192e+88
-2.32565e+88
-2.28807e+88
-2.2957e+88
-2.37673e+88
-2.53907e+88
-2.78576e+88
-3.11262e+88
-3.50216e+88
-3.92873e+88
-4.36693e+88
-4.80063e+88
-6.18995e+87
-9.08715e+87
-1.10763e+88
-1.21213e+88
-1.21661e+88
-1.15475e+88
-1.05549e+88
-9.40319e+87
-8.26781e+87
-7.25791e+87
-6.40254e+87
-5.68644e+87
-5.0875e+87
-4.58817e+87
-4.18458e+87
-1.80198e+87
-2.60005e+87
-3.14944e+87
-3.47574e+87
-3.57095e+87
-3.516e+87
-3.3647e+87
-3.15984e+87
-2.94149e+87
-2.73059e+87
-2.52914e+87
-2.33386e+87
-2.14308e+87
-1.95725e+87
-1.77918e+87
-3.29698e+86
-4.43684e+86
-4.93703e+86
-5.17431e+86
-5.21293e+86
-5.12749e+86
-4.95077e+86
-4.71924e+86
-4.48504e+86
-4.27246e+86
-4.06996e+86
-3.8638e+86
-3.64929e+86
-3.42721e+86
-3.20155e+86
-2.67803e+85
-4.51609e+85
-4.96708e+85
-4.86813e+85
-4.55065e+85
-4.18119e+85
-3.81115e+85
-3.45927e+85
-3.16411e+85
-2.93749e+85
-2.74895e+85
-2.57672e+85
-2.41294e+85
-2.25517e+85
-2.10233e+85
7.74044e+84
3.28162e+84
6.49639e+82
-1.44931e+84
-2.02455e+84
-2.127e+84
-2.00422e+84
-1.79302e+84
-1.57881e+84
-1.38649e+84
-1.20751e+84
-1.04163e+84
-8.92157e+83
-7.60828e+83
-6.44659e+83
3.25621e+84
2.87176e+84
2.04759e+84
1.4161e+84
9.65786e+83
6.56549e+83
4.46407e+83
3.04407e+83
2.09239e+83
1.45166e+83
1.01123e+83
7.02233e+82
4.84343e+82
3.31671e+82
2.30795e+82
3.34284e+83
4.29365e+83
3.95996e+83
3.33859e+83
2.70531e+83
2.1598e+83
1.71656e+83
1.3759e+83
1.12239e+83
9.26847e+82
7.6795e+82
6.358e+82
5.25466e+82
4.33653e+82
3.5784e+82
-3.52252e+82
-1.40861e+82
2.04421e+81
9.49223e+81
1.2199e+82
1.26035e+82
1.1977e+82
1.10425e+82
1.00807e+82
9.10527e+81
8.12145e+81
7.16019e+81
6.24982e+81
5.41086e+81
4.65222e+81
-7.40364e+81
-7.50193e+81
-5.80669e+81
-4.25688e+81
-3.06305e+81
-2.1996e+81
-1.59391e+81
-1.17821e+81
-8.85082e+80
-6.68122e+80
-5.02871e+80
-3.76132e+80
-2.79216e+80
-2.05628e+80
-1.50476e+80
3.08607e+80
2.1235e+79
-1.47199e+80
-2.01878e+80
-2.03922e+80
-1.86502e+80
-1.64774e+80
-1.44726e+80
-1.26713e+80
-1.0997e+80
-9.44885e+79
-8.04711e+79
-6.80206e+79
-5.71524e+79
-4.77783e+79
1.04669e+80
9.19525e+79
6.6948e+79
4.68038e+79
3.24153e+79
2.26667e+79
1.61874e+79
1.18575e+79
8.81457e+78
6.57565e+78
4.895e+78
3.62839e+78
2.6755e+78
1.96157e+78
1.43364e+78
7.46527e+78
5.00801e+78
3.75789e+78
2.99871e+78
2.40009e+78
1.93394e+78
1.5916e+78
1.33669e+78
1.13e+78
9.5316e+77
8.00149e+77
6.68207e+77
5.55248e+77
4.59438e+77
3.79159e+77
1.51553e+78
8.17249e+77
3.39946e+77
1.40234e+77
5.51335e+76
1.80993e+76
1.80041e+75
-4.88326e+75
-6.90912e+75
-6.82959e+75
-5.91329e+75
-4.75105e+75
-3.61726e+75
-2.63088e+75
-1.79991e+75
1.12336e+77
1.19245e+77
8.34288e+76
5.49036e+76
3.60864e+76
2.4353e+76
1.69987e+76
1.2153e+76
8.76086e+75
6.31751e+75
4.54926e+75
3.27121e+75
2.34925e+75
1.68653e+75
1.21096e+75
-1.52999e+76
-9.34794e+75
-3.58302e+75
-1.0907e+75
-3.70491e+73
3.96697e+74
5.58939e+74
5.91229e+74
5.58991e+74
4.98452e+74
4.29089e+74
3.60742e+74
2.98225e+74
2.43672e+74
1.97002e+74
3.39858e+74
-7.77452e+74
-8.88441e+74
-7.07016e+74
-5.26782e+74
-3.93131e+74
-2.97168e+74
-2.25849e+74
-1.71725e+74
-1.30341e+74
-9.86747e+73
-7.4544e+73
-5.62344e+73
-4.24119e+73
-3.20408e+73
-6.46788e+72
9.04218e+73
5.42794e+73
2.85992e+73
1.36557e+73
5.48839e+72
1.01566e+72
-1.42861e+72
-2.68613e+72
-3.2e+72
-3.25402e+72
-3.04551e+72
-2.70659e+72
-2.32271e+72
-1.9538e+72
-1.34912e+74
-6.25039e+73
-2.43125e+73
-9.84998e+72
-3.93989e+72
-1.39121e+72
-2.82927e+71
1.76437e+71
3.39292e+71
3.68193e+71
3.39386e+71
2.89004e+71
2.34804e+71
1.85465e+71
1.427e+71
-1.78689e+73
-1.21171e+73
-6.78561e+72
-3.9596e+72
-2.44142e+72
-1.58372e+72
-1.07041e+72
-7.44523e+71
-5.25256e+71
-3.72479e+71
-2.64605e+71
-1.88188e+71
-1.34087e+71
-9.58875e+70
-6.91634e+70
-1.00713e+72
-4.5084e+71
-2.69267e+71
-1.80507e+71
-1.30986e+71
-9.88763e+70
-7.62705e+70
-5.93926e+70
-4.61728e+70
-3.56256e+70
-2.72403e+70
-2.06588e+70
-1.55766e+70
-1.17246e+70
-8.86265e+69
-1.75225e+71
-4.12875e+70
2.08516e+69
8.01613e+69
7.37822e+69
5.8382e+69
4.42395e+69
3.30377e+69
2.44609e+69
1.79604e+69
1.3077e+69
9.45547e+68
6.81107e+68
4.89998e+68
3.55953e+68
3.88305e+70
1.03332e+70
3.63145e+69
1.29382e+69
5.33014e+68
2.70449e+68
1.77887e+68
1.44845e+68
1.29349e+68
1.15753e+68
1.00525e+68
8.4545e+67
6.93487e+67
5.58608e+67
4.52392e+67
2.09441e+70
9.0776e+69
3.65841e+69
1.66679e+69
8.39496e+68
4.5748e+68
2.6636e+68
1.6363e+68
1.04503e+68
6.85132e+67
4.57813e+67
3.10781e+67
2.13872e+67
1.4897e+67
1.06088e+67
2.13719e+69
1.26354e+69
6.20636e+68
3.38717e+68
1.99772e+68
1.25033e+68
8.17785e+67
5.50891e+67
3.77134e+67
2.60289e+67
1.80645e+67
1.2608e+67
8.85984e+66
6.28681e+66
4.52221e+66
-1.13435e+68
-2.55651e+67
1.29348e+65
5.66623e+66
6.03838e+66
5.16271e+66
4.1118e+66
3.17019e+66
2.39287e+66
1.77913e+66
1.31017e+66
9.60502e+65
7.04554e+65
5.20194e+65
3.86902e+65
-3.17678e+67
-1.76483e+67
-8.37046e+66
-4.31333e+66
-2.39422e+66
-1.41641e+66
-8.81946e+65
-5.69861e+65
-3.76935e+65
-2.53e+65
-1.71609e+65
-1.17431e+65
-8.10503e+64
-5.64712e+64
-3.99383e+64
-2.71163e+66
-1.49734e+66
-7.82308e+65
-4.29859e+65
-2.5523e+65
-1.61729e+65
-1.07644e+65
-7.4046e+64
-5.18778e+64
-3.66996e+64
-2.61217e+64
-1.86923e+64
-1.34615e+64
-9.77291e+63
-7.17339e+63
-6.65535e+65
-2.51917e+65
-9.5466e+64
-4.11132e+64
-2.02526e+64
-1.11406e+64
-6.6955e+63
-4.29693e+63
-2.87842e+63
-1.97892e+63
-1.38335e+63
-9.78987e+62
-7.00078e+62
-5.0557e+62
-3.70847e+62
-1.18312e+65
-5.08011e+64
-1.98481e+64
-9.10389e+63
-4.69859e+63
-2.64254e+63
-1.58585e+63
-9.96312e+62
-6.4448e+62
-4.25078e+62
-2.84683e+62
-1.93112e+62
-1.32483e+62
-9.19305e+61
-6.46836e+61
-3.29032e+63
-2.08246e+63
-1.08685e+63
-6.54803e+62
-4.09413e+62
-2.63529e+62