/*--------------------------------*- C++ -*----------------------------------*\
  =========                 |
  \\      /  F ield         | OpenFOAM: The Open Source CFD Toolbox
   \\    /   O peration     | Website:  https://openfoam.org
    \\  /    A nd           | Version:  8
     \\/     M anipulation  |
\*---------------------------------------------------------------------------*/
FoamFile
{
    version     2.0;
    format      ascii;
    class       volScalarField;
    location    "900";
    object      epsilon;
}
// * * * * * * * * * * * * * * * * * * * * * * * * * * * * * * * * * * * * * //

dimensions      [0 2 -3 0 0 0 0];

internalField   nonuniform List<scalar> 
7320
(
11607.3
10157.7
9314.43
8772.21
8390.2
8102.79
7875.93
7690.7
7535.77
7403.76
7289.61
7189.73
7101.46
7022.84
6952.31
6888.69
6831
6778.46
6730.43
6686.38
6645.85
6608.48
6573.93
6541.93
6512.24
6484.64
6458.97
6435.04
6412.73
6391.9
6372.45
6354.26
6337.25
6321.34
6306.45
6292.52
6279.48
6267.29
6255.88
6245.21
6235.24
6225.93
6217.24
6209.14
6201.6
6194.58
6188.07
6182.04
6176.46
6171.32
6166.58
6162.24
6158.28
6154.67
6151.41
6148.48
6145.86
6143.54
6141.52
6139.77
6138.3
6137.08
6136.11
6135.38
6134.88
6134.61
6134.56
6134.72
6135.08
6135.64
6136.4
6137.33
6138.44
6139.72
6141.17
6142.76
6144.5
6146.38
6148.38
6150.5
6152.74
6155.08
6157.51
6160.04
6162.65
6165.33
6168.09
6170.92
6173.82
6176.78
6179.81
6182.91
6186.08
6189.31
6192.62
6196
6199.47
6203.02
6206.67
6210.41
6214.25
6218.2
6222.26
6226.44
6230.74
6235.17
6239.72
6244.4
6249.22
6254.17
6259.25
6264.46
6269.8
6275.27
6280.86
6286.56
6292.37
6298.29
6304.29
6310.37
6316.4
6322.58
3749.32
3919.37
3598.69
3368.86
3210.19
3093.2
3002.11
2928.43
2867.18
2815.25
2770.5
2731.45
2697.02
2666.41
2638.99
2614.29
2591.92
2571.56
2552.97
2535.93
2520.26
2505.82
2492.48
2480.12
2468.66
2458.02
2448.11
2438.89
2430.29
2422.26
2414.76
2407.75
2401.19
2395.06
2389.33
2383.96
2378.93
2374.23
2369.83
2365.72
2361.88
2358.29
2354.93
2351.81
2348.9
2346.19
2343.67
2341.34
2339.19
2337.19
2335.36
2333.68
2332.14
2330.74
2329.47
2328.33
2327.31
2326.4
2325.61
2324.92
2324.33
2323.85
2323.45
2323.16
2322.95
2322.82
2322.78
2322.82
2322.93
2323.12
2323.39
2323.72
2324.12
2324.59
2325.11
2325.7
2326.34
2327.03
2327.78
2328.57
2329.41
2330.29
2331.22
2332.17
2333.17
2334.2
2335.26
2336.35
2337.47
2338.63
2339.81
2341.01
2342.25
2343.52
2344.81
2346.14
2347.5
2348.89
2350.31
2351.77
2353.26
2354.79
2356.36
2357.97
2359.61
2361.3
2363.02
2364.79
2366.6
2368.44
2370.33
2372.26
2374.22
2376.22
2378.25
2380.31
2382.41
2384.53
2386.67
2388.83
2390.96
2393.14
1528.99
1989.05
1884.98
1770.23
1685.89
1623.05
1574.14
1534.67
1501.95
1474.25
1450.43
1429.67
1411.39
1395.16
1380.63
1367.55
1355.71
1344.94
1335.11
1326.11
1317.83
1310.2
1303.16
1296.64
1290.59
1284.98
1279.75
1274.89
1270.35
1266.12
1262.16
1258.47
1255.01
1251.78
1248.75
1245.92
1243.27
1240.79
1238.48
1236.31
1234.28
1232.38
1230.62
1228.97
1227.43
1226
1224.67
1223.44
1222.3
1221.25
1220.28
1219.39
1218.57
1217.83
1217.16
1216.55
1216.01
1215.52
1215.1
1214.73
1214.42
1214.15
1213.94
1213.78
1213.66
1213.58
1213.56
1213.57
1213.62
1213.71
1213.84
1214.01
1214.22
1214.46
1214.73
1215.04
1215.37
1215.74
1216.13
1216.55
1216.99
1217.46
1217.94
1218.45
1218.97
1219.52
1220.07
1220.65
1221.23
1221.83
1222.44
1223.06
1223.7
1224.34
1225
1225.67
1226.35
1227.05
1227.76
1228.48
1229.22
1229.97
1230.74
1231.53
1232.34
1233.16
1234.01
1234.88
1235.76
1236.67
1237.6
1238.55
1239.52
1240.52
1241.53
1242.57
1243.63
1244.7
1245.79
1246.9
1248
1249.13
720.941
1168.15
1165.72
1105.65
1054.38
1014.75
983.61
958.429
937.557
919.91
904.751
891.558
879.953
869.656
860.45
852.168
844.676
837.868
831.656
825.967
820.741
815.927
811.482
807.369
803.556
800.014
796.721
793.654
790.795
788.127
785.635
783.306
781.129
779.092
777.187
775.403
773.734
772.172
770.71
769.343
768.065
766.87
765.755
764.715
763.745
762.843
762.004
761.226
760.505
759.839
759.225
758.661
758.145
757.674
757.246
756.86
756.513
756.205
755.933
755.696
755.492
755.321
755.182
755.072
754.992
754.94
754.916
754.917
754.945
754.998
755.076
755.178
755.303
755.451
755.62
755.81
756.02
756.248
756.493
756.755
757.031
757.322
757.625
757.939
758.263
758.596
758.938
759.286
759.641
760.001
760.366
760.736
761.11
761.489
761.873
762.261
762.654
763.053
763.459
763.871
764.291
764.721
765.159
765.609
766.07
766.544
767.031
767.533
768.05
768.583
769.133
769.701
770.286
770.89
771.512
772.152
772.812
773.489
774.184
774.897
775.617
776.354
358.82
725.629
779.829
754.392
722.982
696.536
675.147
657.664
643.11
630.786
620.195
610.98
602.879
595.694
589.274
583.502
578.284
573.544
569.221
565.264
561.63
558.284
555.195
552.337
549.689
547.229
544.943
542.813
540.829
538.977
537.247
535.631
534.12
532.707
531.384
530.146
528.987
527.903
526.888
525.938
525.05
524.221
523.446
522.722
522.048
521.42
520.836
520.294
519.792
519.327
518.899
518.505
518.144
517.814
517.514
517.243
516.999
516.781
516.589
516.42
516.275
516.152
516.051
515.97
515.91
515.869
515.848
515.845
515.86
515.893
515.944
516.011
516.094
516.194
516.308
516.437
516.58
516.735
516.902
517.08
517.267
517.464
517.667
517.878
518.094
518.314
518.539
518.766
518.996
519.227
519.46
519.695
519.93
520.167
520.405
520.645
520.887
521.132
521.38
521.633
521.891
522.156
522.427
522.707
522.997
523.297
523.609
523.933
524.271
524.623
524.991
525.375
525.775
526.193
526.629
527.083
527.555
528.045
528.554
529.081
529.62
530.173
180.95
454.606
539.365
539.228
522.289
504.944
489.985
477.422
466.83
457.801
450.016
443.23
437.258
431.96
427.226
422.969
419.121
415.626
412.44
409.523
406.846
404.381
402.106
400.001
398.051
396.241
394.557
392.99
391.529
390.166
388.893
387.704
386.592
385.551
384.577
383.666
382.813
382.014
381.267
380.567
379.913
379.301
378.729
378.196
377.698
377.235
376.803
376.403
376.031
375.687
375.37
375.078
374.809
374.564
374.34
374.138
373.955
373.792
373.647
373.52
373.409
373.316
373.237
373.175
373.127
373.093
373.074
373.069
373.076
373.097
373.131
373.178
373.236
373.306
373.388
373.479
373.581
373.692
373.81
373.936
374.069
374.207
374.35
374.496
374.645
374.797
374.95
375.104
375.258
375.412
375.566
375.72
375.873
376.027
376.18
376.334
376.489
376.646
376.806
376.969
377.136
377.309
377.489
377.675
377.871
378.076
378.292
378.52
378.76
379.014
379.283
379.566
379.866
380.182
380.516
380.867
381.235
381.621
382.024
382.445
382.881
383.328
91.0616
278.177
374.321
393.387
388.302
378.207
368.135
359.167
351.387
344.653
338.793
333.658
329.123
325.091
321.482
318.234
315.297
312.628
310.193
307.964
305.918
304.034
302.295
300.686
299.195
297.811
296.524
295.326
294.209
293.167
292.194
291.284
290.434
289.638
288.893
288.195
287.542
286.931
286.359
285.823
285.322
284.853
284.414
284.005
283.623
283.267
282.936
282.628
282.342
282.077
281.832
281.607
281.399
281.21
281.036
280.879
280.737
280.609
280.496
280.395
280.308
280.233
280.171
280.12
280.08
280.052
280.034
280.027
280.03
280.043
280.066
280.099
280.141
280.192
280.251
280.318
280.392
280.472
280.559
280.651
280.746
280.846
280.948
281.053
281.158
281.265
281.372
281.478
281.584
281.689
281.794
281.897
281.999
282.101
282.203
282.305
282.408
282.512
282.619
282.729
282.843
282.962
283.088
283.22
283.36
283.509
283.669
283.839
284.021
284.216
284.424
284.647
284.884
285.137
285.406
285.69
285.991
286.308
286.641
286.99
287.355
287.728
46.0967
162.189
254.261
286.985
292.083
288.344
282.427
276.399
270.841
265.871
261.463
257.553
254.072
250.96
248.165
245.642
243.355
241.274
239.374
237.632
236.033
234.559
233.197
231.938
230.77
229.686
228.677
227.738
226.862
226.045
225.281
224.568
223.9
223.275
222.69
222.142
221.629
221.149
220.699
220.278
219.883
219.514
219.169
218.846
218.545
218.264
218.003
217.759
217.533
217.324
217.13
216.951
216.786
216.635
216.497
216.371
216.258
216.155
216.064
215.983
215.912
215.851
215.799
215.756
215.723
215.698
215.682
215.674
215.674
215.682
215.697
215.72
215.75
215.787
215.831
215.88
215.935
215.995
216.058
216.126
216.196
216.269
216.344
216.419
216.496
216.572
216.648
216.723
216.797
216.871
216.943
217.014
217.084
217.154
217.223
217.293
217.363
217.436
217.51
217.587
217.669
217.755
217.846
217.945
218.05
218.164
218.287
218.42
218.564
218.72
218.887
219.068
219.262
219.469
219.691
219.927
220.177
220.442
220.721
221.015
221.322
221.637
24.139
88.6484
164.986
205.253
218.887
220.976
218.885
215.492
211.862
208.378
205.161
202.236
199.59
197.197
195.031
193.064
191.273
189.637
188.14
186.765
185.499
184.331
183.251
182.251
181.323
180.461
179.658
178.91
178.212
177.561
176.952
176.382
175.849
175.35
174.883
174.445
174.035
173.65
173.29
172.953
172.637
172.341
172.064
171.805
171.563
171.338
171.127
170.931
170.749
170.58
170.424
170.279
170.146
170.023
169.911
169.808
169.716
169.632
169.557
169.49
169.431
169.38
169.337
169.301
169.272
169.25
169.235
169.226
169.224
169.228
169.238
169.254
169.276
169.303
169.335
169.372
169.412
169.457
169.505
169.555
169.607
169.661
169.716
169.772
169.828
169.883
169.938
169.992
170.046
170.098
170.149
170.199
170.249
170.298
170.347
170.396
170.446
170.498
170.552
170.609
170.669
170.733
170.803
170.879
170.961
171.051
171.149
171.255
171.372
171.498
171.635
171.784
171.944
172.116
172.3
172.497
172.706
172.928
173.162
173.408
173.667
173.932
13.5084
45.5623
99.8141
140.768
160.687
168.047
169.612
168.74
166.918
164.789
162.633
160.564
158.629
156.839
155.192
153.678
152.288
151.01
149.834
148.749
147.746
146.819
145.959
145.161
144.42
143.729
143.086
142.486
141.925
141.401
140.911
140.452
140.022
139.62
139.243
138.889
138.557
138.246
137.955
137.681
137.425
137.185
136.961
136.75
136.554
136.37
136.199
136.039
135.891
135.753
135.625
135.506
135.397
135.296
135.204
135.12
135.043
134.973
134.911
134.855
134.806
134.763
134.726
134.695
134.67
134.651
134.637
134.628
134.624
134.626
134.632
134.643
134.658
134.678
134.702
134.729
134.759
134.793
134.829
134.866
134.906
134.946
134.988
135.029
135.071
135.112
135.153
135.193
135.232
135.27
135.307
135.344
135.38
135.415
135.451
135.487
135.524
135.562
135.603
135.646
135.692
135.742
135.797
135.856
135.922
135.994
136.073
136.159
136.254
136.358
136.47
136.593
136.725
136.867
137.02
137.183
137.357
137.542
137.737
137.942
138.158
138.379
8.23297
22.8776
55.2867
90.2281
113.178
124.85
129.856
131.463
131.425
130.618
129.473
128.204
126.919
125.67
124.481
123.362
122.317
121.343
120.436
119.594
118.81
118.08
117.401
116.769
116.178
115.627
115.113
114.631
114.181
113.759
113.364
112.994
112.647
112.321
112.015
111.729
111.459
111.207
110.97
110.747
110.539
110.343
110.159
109.988
109.827
109.677
109.536
109.405
109.283
109.17
109.065
108.967
108.877
108.794
108.717
108.647
108.583
108.526
108.473
108.427
108.385
108.349
108.317
108.291
108.269
108.251
108.238
108.23
108.226
108.225
108.229
108.236
108.247
108.261
108.278
108.299
108.322
108.347
108.374
108.403
108.433
108.464
108.495
108.527
108.558
108.589
108.62
108.65
108.68
108.709
108.737
108.764
108.791
108.818
108.845
108.872
108.9
108.93
108.961
108.995
109.031
109.07
109.114
109.161
109.214
109.272
109.336
109.407
109.484
109.569
109.661
109.761
109.87
109.987
110.112
110.247
110.39
110.542
110.702
110.871
111.049
111.232
5.47937
11.9932
28.2309
52.6649
74.495
88.7635
96.7042
100.69
102.44
102.969
102.841
102.365
101.714
100.983
100.226
99.4734
98.7429
98.0428
97.3776
96.7488
96.1563
95.5991
95.0758
94.5845
94.1235
93.6908
93.2848
92.9036
92.5457
92.2096
91.8938
91.5971
91.3182
91.0561
90.8097
90.5781
90.3603
90.1556
89.9633
89.7825
89.6128
89.4535
89.304
89.1638
89.0325
88.9095
88.7946
88.6872
88.587
88.4938
88.4071
88.3267
88.2522
88.1834
88.1202
88.0621
88.009
87.9608
87.9172
87.878
87.8431
87.8124
87.7857
87.7629
87.7439
87.7286
87.717
87.7089
87.7042
87.7028
87.7045
87.7092
87.7168
87.7272
87.7401
87.7554
87.7728
87.7921
87.8129
87.835
87.8581
87.8819
87.9062
87.9306
87.955
87.9793
88.0031
88.0265
88.0493
88.0716
88.0933
88.1146
88.1357
88.1566
88.1776
88.1991
88.2213
88.2445
88.2693
88.2958
88.3247
88.3563
88.3911
88.4294
88.4718
88.5187
88.5705
88.6275
88.6902
88.7588
88.8337
88.9152
89.0034
89.0985
89.2007
89.3101
89.4266
89.5502
89.681
89.8187
89.9637
90.1131
3.95841
6.92866
14.0447
27.7128
44.4801
58.7408
68.535
74.555
78.0226
79.9011
80.8188
81.1603
81.1575
80.9504
80.6246
80.2329
79.8081
79.3708
78.9339
78.5054
78.0901
77.6909
77.3093
76.9458
76.6006
76.2734
75.9636
75.6707
75.3939
75.1325
74.8858
74.6529
74.4331
74.2259
74.0305
73.8462
73.6725
73.5089
73.3548
73.2097
73.0732
72.9448
72.8242
72.7108
72.6045
72.5048
72.4115
72.3241
72.2426
72.1665
72.0958
72.03
71.969
71.9126
71.8607
71.8129
71.7692
71.7294
71.6933
71.6608
71.6318
71.6061
71.5837
71.5645
71.5484
71.5353
71.5252
71.5179
71.5134
71.5116
71.5123
71.5154
71.5208
71.5285
71.5382
71.5499
71.5633
71.5782
71.5944
71.6117
71.6298
71.6486
71.6677
71.687
71.7064
71.7256
71.7446
71.7633
71.7815
71.7993
71.8168
71.8339
71.8508
71.8677
71.8846
71.9019
71.9198
71.9386
71.9585
71.9799
72.0032
72.0287
72.0566
72.0875
72.1216
72.1593
72.2009
72.2468
72.2971
72.3523
72.4125
72.478
72.5488
72.6253
72.7074
72.7953
72.889
72.9884
73.0935
73.2043
73.321
73.4416
3.07723
4.48267
7.4297
13.6627
23.6765
35.0257
44.8492
52.0825
56.9685
60.1185
62.0853
63.271
63.946
64.2875
64.4108
64.3915
64.2795
64.1082
63.8999
63.6698
63.4282
63.1823
62.937
62.6954
62.4598
62.2316
62.0117
61.8006
61.5987
61.4058
61.2221
61.0472
60.8811
60.7234
60.5738
60.4321
60.2979
60.1709
60.0509
59.9376
59.8305
59.7296
59.6345
59.545
59.4608
59.3817
59.3075
59.2379
59.1729
59.1121
59.0555
59.0028
58.9538
58.9085
58.8667
58.8282
58.793
58.7608
58.7316
58.7053
58.6818
58.661
58.6428
58.6271
58.6139
58.6032
58.5948
58.5887
58.5849
58.5833
58.5837
58.586
58.5901
58.5961
58.6037
58.6129
58.6236
58.6354
58.6484
58.6622
58.6768
58.6919
58.7074
58.7231
58.7388
58.7546
58.7701
58.7854
58.8005
58.8152
58.8297
58.8439
58.858
58.872
58.886
58.9004
58.9152
58.9306
58.947
58.9645
58.9834
59.004
59.0266
59.0515
59.0788
59.109
59.1422
59.1788
59.2189
59.2627
59.3106
59.3626
59.4188
59.4795
59.5447
59.6144
59.6888
59.7677
59.8511
59.9391
60.0319
60.1282
2.55068
3.21778
4.43832
6.94254
11.6103
18.4647
26.1707
33.1843
38.7612
42.8701
45.7762
47.7853
49.1524
50.0674
50.6656
51.0415
51.2609
51.37
51.4011
51.3772
51.3148
51.2258
51.1186
50.9996
50.8734
50.7433
50.6119
50.4808
50.3516
50.225
50.1018
49.9824
49.8673
49.7565
49.6503
49.5486
49.4515
49.3588
49.2707
49.1868
49.1073
49.0319
48.9605
48.893
48.8293
48.7693
48.7128
48.6597
48.61
48.5634
48.5199
48.4793
48.4416
48.4067
48.3744
48.3447
48.3174
48.2926
48.27
48.2497
48.2316
48.2155
48.2016
48.1896
48.1796
48.1715
48.1652
48.1608
48.1581
48.1572
48.158
48.1602
48.164
48.1691
48.1755
48.1833
48.1921
48.202
48.2127
48.2243
48.2364
48.249
48.262
48.2751
48.2884
48.3017
48.3149
48.3279
48.3407
48.3534
48.3658
48.378
48.39
48.4021
48.4141
48.4263
48.4389
48.4519
48.4656
48.4801
48.4957
48.5125
48.5308
48.5508
48.5727
48.5968
48.6232
48.6521
48.6837
48.7183
48.7559
48.7967
48.8409
48.8884
48.9395
48.9941
49.0524
49.1142
49.1796
49.2485
49.3214
49.3974
2.23299
2.5213
3.02004
3.97831
5.81132
8.95327
13.4245
18.6064
23.6547
28.0086
31.4918
34.1618
36.1611
37.6393
38.7238
39.5144
40.0864
40.4959
40.7841
40.9815
41.1107
41.1886
41.2279
41.238
41.2264
41.1984
41.1584
41.1096
41.0547
40.9954
40.9335
40.87
40.806
40.7421
40.6789
40.6168
40.5563
40.4974
40.4405
40.3856
40.3328
40.2823
40.234
40.188
40.1442
40.1027
40.0634
40.0263
39.9914
39.9586
39.9279
39.8992
39.8725
39.8477
39.8248
39.8038
39.7845
39.767
39.7511
39.7369
39.7243
39.7133
39.7038
39.6958
39.6893
39.6842
39.6805
39.6783
39.6774
39.6778
39.6795
39.6824
39.6865
39.6916
39.6977
39.7048
39.7128
39.7216
39.7311
39.7412
39.7518
39.7629
39.7742
39.7858
39.7974
39.8091
39.8207
39.8322
39.8436
39.8548
39.8659
39.8767
39.8875
39.8982
39.9089
39.9196
39.9306
39.9418
39.9535
39.9658
39.9788
39.9928
40.0078
40.024
40.0416
40.0608
40.0817
40.1045
40.1293
40.1563
40.1856
40.2174
40.2516
40.2885
40.328
40.3702
40.4152
40.463
40.5135
40.5668
40.6232
40.6824
2.04415
2.12289
2.29752
2.64296
3.30166
4.4877
6.42602
9.18516
12.5445
16.0848
19.4152
22.3108
24.7067
26.6315
28.1526
29.344
30.2729
30.9955
31.5567
31.9918
32.3282
32.5874
32.7857
32.936
33.0484
33.1307
33.1891
33.2286
33.2529
33.2653
33.2683
33.2638
33.2534
33.2386
33.2203
33.1994
33.1767
33.1528
33.128
33.1028
33.0776
33.0525
33.0278
33.0037
32.9803
32.9576
32.9359
32.9151
32.8954
32.8767
32.859
32.8425
32.8271
32.8128
32.7996
32.7875
32.7766
32.7667
32.7579
32.7502
32.7435
32.738
32.7334
32.7299
32.7274
32.7259
32.7254
32.7258
32.7273
32.7297
32.7331
32.7374
32.7425
32.7484
32.755
32.7623
32.7703
32.7788
32.7879
32.7975
32.8074
32.8177
32.8282
32.8389
32.8496
32.8604
32.8712
32.8818
32.8924
32.9028
32.9131
32.9232
32.9332
32.943
32.9529
32.9627
32.9726
32.9827
32.993
33.0038
33.0149
33.0267
33.0392
33.0526
33.0669
33.0823
33.099
33.117
33.1364
33.1575
33.1802
33.2046
33.231
33.2592
33.2895
33.3217
33.356
33.3925
33.4309
33.4716
33.5145
33.5601
1.93662
1.89378
1.9091
1.99887
2.20581
2.60135
3.28857
4.38475
5.96585
7.99812
10.3235
12.7231
15.0051
17.0512
18.8156
20.3
21.5307
22.5425
23.3709
24.0479
24.6009
25.053
25.4228
25.7255
25.9736
26.1769
26.3435
26.4799
26.5915
26.6825
26.7565
26.8165
26.8647
26.9033
26.9338
26.9576
26.9758
26.9895
26.9994
27.0062
27.0105
27.0127
27.0133
27.0126
27.0108
27.0084
27.0053
27.002
26.9984
26.9947
26.9911
26.9876
26.9843
26.9813
26.9786
26.9762
26.9743
26.9728
26.9718
26.9713
26.9713
26.9718
26.9729
26.9746
26.9768
26.9796
26.9829
26.9869
26.9915
26.9967
27.0025
27.0088
27.0158
27.0232
27.0312
27.0395
27.0483
27.0574
27.0669
27.0768
27.0868
27.0971
27.1075
27.118
27.1286
27.1392
27.1497
27.1601
27.1704
27.1805
27.1905
27.2004
27.2101
27.2196
27.2291
27.2385
27.2479
27.2573
27.2668
27.2766
27.2865
27.2969
27.3076
27.3189
27.3309
27.3435
27.357
27.3713
27.3867
27.4032
27.4208
27.4396
27.4598
27.4813
27.5042
27.5286
27.5544
27.5818
27.6107
27.6411
27.6734
27.7078
1.87971
1.76618
1.6969
1.6702
1.69599
1.79455
1.99808
2.35263
2.91532
3.74022
4.85282
6.22679
7.78258
9.41177
11.0108
12.5043
13.8504
15.0348
16.0607
16.9406
17.6911
18.3291
18.8711
19.3314
19.7227
20.0558
20.3398
20.5824
20.79
20.968
21.121
21.2527
21.3662
21.4643
21.5492
21.6228
21.6867
21.7424
21.7908
21.8332
21.8703
21.9028
21.9314
21.9567
21.9791
21.999
22.0167
22.0327
22.0471
22.0601
22.0721
22.0831
22.0933
22.1029
22.1119
22.1206
22.1288
22.1369
22.1447
22.1525
22.1601
22.1678
22.1755
22.1832
22.1911
22.1991
22.2073
22.2156
22.2242
22.2331
22.2421
22.2515
22.2611
22.271
22.2811
22.2914
22.3019
22.3125
22.3232
22.3341
22.3451
22.3562
22.3672
22.3783
22.3894
22.4004
22.4113
22.4221
22.4327
22.4431
22.4534
22.4635
22.4734
22.4831
22.4927
22.5021
22.5114
22.5207
22.53
22.5392
22.5486
22.5581
22.5678
22.5778
22.5882
22.5989
22.6101
22.6219
22.6343
22.6474
22.6612
22.6758
22.6913
22.7077
22.725
22.7433
22.7626
22.7829
22.8043
22.8267
22.8505
22.8761
1.85262
1.70013
1.58443
1.50014
1.44691
1.42874
1.45383
1.53512
1.69135
1.94726
2.33147
2.87025
3.57781
4.44716
5.44734
6.52935
7.63811
8.72432
9.75159
10.698
11.554
12.3183
12.995
13.5909
14.1139
14.5724
14.974
15.3259
15.6346
15.9057
16.1442
16.3544
16.5401
16.7043
16.85
16.9795
17.0948
17.1977
17.2898
17.3725
17.4467
17.5137
17.5742
17.6291
17.6789
17.7243
17.7657
17.8037
17.8387
17.8709
17.9007
17.9284
17.9542
17.9783
18.0009
18.0222
18.0424
18.0615
18.0797
18.0971
18.1138
18.1299
18.1455
18.1606
18.1754
18.1897
18.2039
18.2177
18.2314
18.245
18.2584
18.2718
18.2851
18.2983
18.3115
18.3247
18.3379
18.3509
18.3639
18.3768
18.3895
18.4022
18.4148
18.4273
18.4396
18.4517
18.4637
18.4755
18.487
18.4984
18.5095
18.5203
18.531
18.5414
18.5515
18.5615
18.5713
18.5809
18.5904
18.5998
18.6091
18.6184
18.6277
18.637
18.6465
18.6562
18.666
18.6762
18.6866
18.6974
18.7085
18.7202
18.7323
18.7449
18.758
18.7718
18.7862
18.8011
18.8168
18.8331
18.8504
18.8691
1.84139
1.6697
1.52946
1.4157
1.32537
1.25752
1.21298
1.19428
1.2059
1.25453
1.3495
1.50277
1.72823
2.03963
2.44734
2.95456
3.55469
4.23102
4.95936
5.71237
6.46405
7.19312
7.88439
8.52868
9.12169
9.66264
10.153
10.5957
10.9943
11.3526
11.6744
11.9636
12.2235
12.4573
12.668
12.858
13.0296
13.1848
13.3256
13.4534
13.5697
13.6757
13.7725
13.8612
13.9424
14.0171
14.0859
14.1495
14.2082
14.2627
14.3133
14.3604
14.4044
14.4455
14.4841
14.5204
14.5545
14.5868
14.6173
14.6463
14.6739
14.7002
14.7253
14.7494
14.7725
14.7948
14.8162
14.837
14.8572
14.8767
14.8958
14.9144
14.9326
14.9504
14.9678
14.985
15.0018
15.0184
15.0346
15.0505
15.0661
15.0814
15.0963
15.1111
15.1255
15.1396
15.1534
15.1669
15.1801
15.193
15.2056
15.2179
15.2299
15.2415
15.2528
15.2639
15.2747
15.2852
15.2954
15.3055
15.3153
15.325
15.3345
15.3439
15.3533
15.3626
15.3718
15.3811
15.3905
15.3999
15.4094
15.4191
15.429
15.439
15.4493
15.4599
15.4707
15.4818
15.4933
15.5051
15.5175
15.531
1.83747
1.65774
1.50597
1.37779
1.26982
1.17973
1.10613
1.0485
1.0071
0.982967
0.978021
0.995182
1.03851
1.11327
1.22579
1.383
1.59157
1.8566
2.1803
2.56083
2.99199
3.4637
3.96323
4.47698
4.99198
5.49723
5.98422
6.44713
6.88244
7.28853
7.66513
8.01289
8.33305
8.6272
8.89711
9.1446
9.37152
9.57962
9.77057
9.94592
10.1071
10.2554
10.392
10.5181
10.6345
10.7422
10.842
10.9346
11.0206
11.1007
11.1754
11.2451
11.3103
11.3714
11.4288
11.4827
11.5335
11.5814
11.6267
11.6695
11.7101
11.7487
11.7854
11.8204
11.8538
11.8857
11.9163
11.9457
11.9739
12.0011
12.0273
12.0526
12.0771
12.1008
12.1239
12.1463
12.168
12.1892
12.2099
12.23
12.2495
12.2685
12.287
12.305
12.3225
12.3396
12.3561
12.3723
12.388
12.4032
12.4181
12.4325
12.4465
12.46
12.4732
12.486
12.4984
12.5104
12.522
12.5333
12.5443
12.555
12.5654
12.5755
12.5854
12.595
12.6044
12.6137
12.6227
12.6317
12.6405
12.6492
12.6578
12.6664
12.6749
12.6834
12.6919
12.7004
12.709
12.7176
12.7265
12.7362
1.83635
1.65389
1.49762
1.36332
1.24761
1.14783
1.062
0.988661
0.926848
0.875995
0.835924
0.806832
0.789309
0.784375
0.793528
0.818789
0.862716
0.92835
1.01906
1.13827
1.28904
1.47355
1.69265
1.94546
2.22922
2.53944
2.87029
3.21516
3.56728
3.92031
4.26872
4.60806
4.93501
5.24733
5.54367
5.8234
6.08641
6.33298
6.56364
6.77909
6.98012
7.16757
7.34232
7.50522
7.65713
7.79886
7.93116
8.05475
8.17032
8.27846
8.37977
8.47476
8.56393
8.64773
8.72656
8.80081
8.87083
8.93695
8.99945
9.05862
9.11469
9.16789
9.21844
9.26653
9.31234
9.35602
9.39774
9.43762
9.47581
9.51241
9.54755
9.58132
9.61381
9.64511
9.6753
9.70445
9.73261
9.75986
9.78625
9.81181
9.83659
9.86061
9.88386
9.90635
9.92812
9.94921
9.96963
9.98942
10.0086
10.0272
10.0451
10.0626
10.0794
10.0957
10.1115
10.1267
10.1415
10.1557
10.1694
10.1827
10.1955
10.2079
10.2198
10.2313
10.2424
10.253
10.2633
10.2733
10.2829
10.2921
10.301
10.3096
10.3179
10.3259
10.3336
10.3411
10.3483
10.3553
10.3621
10.3687
10.3753
10.3824
1.8361
1.6529
1.49526
1.35888
1.24033
1.13688
1.04634
0.966998
0.8975
0.836801
0.784121
0.738903
0.700795
0.66963
0.645428
0.628393
0.618928
0.617651
0.625408
0.643286
0.672608
0.714903
0.771843
0.84514
0.936407
1.04697
1.17771
1.32885
1.49987
1.68946
1.89555
2.11545
2.34602
2.58391
2.82575
3.06842
3.30912
3.54551
3.77572
3.99838
4.21253
4.41758
4.61322
4.79937
4.97613
5.1437
5.30236
5.45246
5.59436
5.72846
5.85518
5.97492
6.08809
6.19509
6.29629
6.39207
6.48276
6.5687
6.65019
6.72752
6.80096
6.87075
6.93713
7.00032
7.06053
7.11795
7.17275
7.22511
7.27518
7.3231
7.36901
7.41304
7.45531
7.49591
7.53496
7.57253
7.60872
7.64361
7.67726
7.70975
7.74113
7.77145
7.80077
7.82912
7.85651
7.88294
7.90845
7.93309
7.95689
7.97988
8.00208
8.02353
8.04424
8.06423
8.08352
8.10213
8.12007
8.13735
8.15399
8.17
8.18539
8.20018
8.21437
8.22797
8.241
8.25347
8.26538
8.27674
8.28756
8.29786
8.30764
8.31691
8.32567
8.33395
8.34174
8.34907
8.35593
8.36235
8.36834
8.37393
8.3793
8.38486
1.83605
1.6527
1.49473
1.35782
1.23848
1.13393
1.04192
0.960651
0.888632
0.82467
0.767793
0.717216
0.672311
0.632587
0.597667
0.567277
0.541239
0.519467
0.501959
0.488804
0.480184
0.476377
0.477764
0.484832
0.498176
0.518492
0.546563
0.583231
0.629359
0.685781
0.75324
0.832317
0.923369
1.02647
1.14136
1.26745
1.40383
1.54927
1.70234
1.86143
2.02486
2.19096
2.35813
2.52491
2.69003
2.85242
3.01119
3.16569
3.31544
3.46009
3.59948
3.73349
3.86214
3.98546
4.10357
4.21659
4.32468
4.428
4.52673
4.62107
4.71119
4.7973
4.87959
4.95824
5.03344
5.10537
5.17421
5.24012
5.30326
5.36378
5.42182
5.47751
5.53097
5.58234
5.63171
5.6792
5.72489
5.76888
5.81127
5.85212
5.89152
5.92952
5.96621
6.00164
6.03586
6.06892
6.10085
6.13165
6.16133
6.18995
6.21756
6.24418
6.26985
6.29459
6.31843
6.34139
6.36349
6.38474
6.40517
6.42479
6.44361
6.46165
6.47892
6.49542
6.51116
6.52616
6.54042
6.55395
6.56676
6.57885
6.59023
6.60091
6.6109
6.6202
6.62882
6.63678
6.64408
6.65074
6.65677
6.66221
6.66721
6.67213
1.83603
1.65264
1.49462
1.3576
1.23811
1.13332
1.04098
0.959246
0.886595
0.821781
0.76377
0.711705
0.664871
0.622675
0.584622
0.550304
0.519386
0.491594
0.466712
0.444572
0.425055
0.408081
0.393614
0.381659
0.372259
0.365503
0.36152
0.360489
0.362631
0.368221
0.377575
0.391057
0.409065
0.432026
0.460379
0.49456
0.534976
0.581988
0.635877
0.696829
0.764907
0.84004
0.922013
1.01046
1.1049
1.2047
1.30914
1.41744
1.52877
1.64228
1.75714
1.87258
1.98787
2.10236
2.2155
2.32681
2.43591
2.54251
2.64638
2.74736
2.84536
2.94033
3.03225
3.12112
3.20699
3.28991
3.36994
3.44715
3.52161
3.59341
3.66262
3.72935
3.79367
3.85567
3.91545
3.97309
4.02867
4.08229
4.13402
4.18394
4.23214
4.27867
4.32362
4.36704
4.40899
4.44953
4.48871
4.52658
4.56318
4.59852
4.63258
4.66541
4.69705
4.72753
4.75688
4.78513
4.81231
4.83843
4.86352
4.88759
4.91066
4.93274
4.95385
4.97399
4.99318
5.01143
5.02873
5.04511
5.06057
5.07511
5.08875
5.10149
5.11334
5.12431
5.13442
5.14367
5.15208
5.15966
5.16643
5.17243
5.1778
5.18284
1.83602
1.65261
1.49457
1.35754
1.23801
1.13319
1.0408
0.958995
0.886239
0.821274
0.763051
0.710688
0.663449
0.620708
0.581938
0.54669
0.514581
0.485287
0.45853
0.434076
0.411723
0.391305
0.372681
0.355736
0.340378
0.326535
0.314157
0.30321
0.293681
0.285572
0.278905
0.273723
0.270083
0.268068
0.267776
0.26933
0.272873
0.278569
0.2866
0.297167
0.310483
0.326773
0.346262
0.369175
0.395723
0.426098
0.460463
0.49894
0.541608
0.588489
0.63955
0.694691
0.753755
0.816521
0.882714
0.95201
1.02404
1.09842
1.17473
1.25255
1.33145
1.41104
1.49092
1.57074
1.65017
1.72892
1.80674
1.88342
1.95879
2.0327
2.10505
2.17577
2.24479
2.31208
2.37763
2.44144
2.50351
2.56386
2.62251
2.67948
2.73481
2.78852
2.84064
2.89121
2.94025
2.9878
3.03388
3.07853
3.12178
3.16365
3.20419
3.2434
3.28129
3.31783
3.35304
3.38697
3.41963
3.45104
3.48121
3.51018
3.53795
3.56452
3.58993
3.61416
3.63724
3.65918
3.67997
3.69963
3.71818
3.73561
3.75194
3.76719
3.78137
3.79448
3.80655
3.8176
3.82765
3.83671
3.84482
3.852
3.8584
3.86426
1.83602
1.65258
1.49453
1.35749
1.23795
1.13313
1.04073
0.958918
0.886153
0.821175
0.76293
0.710534
0.663244
0.620428
0.581551
0.546153
0.513841
0.484276
0.457165
0.432255
0.409327
0.388188
0.368672
0.350636
0.333951
0.31851
0.304216
0.290989
0.278758
0.267465
0.25706
0.247503
0.238763
0.230816
0.223648
0.217252
0.211627
0.206783
0.202736
0.199511
0.19714
0.195665
0.195138
0.195619
0.197177
0.199891
0.203849
0.209148
0.215891
0.224188
0.234154
0.245906
0.259562
0.275237
0.293041
0.313075
0.335426
0.36017
0.38736
0.41703
0.449189
0.483822
0.520886
0.560311
0.602003
0.645839
0.691676
0.739348
0.788674
0.839457
0.891491
0.944565
0.998465
1.05298
1.1079
1.16303
1.21818
1.27318
1.32788
1.38211
1.43577
1.48872
1.54089
1.59219
1.64254
1.6919
1.74021
1.78744
1.83356
1.87855
1.92239
1.96507
2.00657
2.04692
2.08608
2.12402
2.1607
2.19612
2.23027
2.26315
2.29475
2.32509
2.35415
2.38193
2.40845
2.43369
2.45767
2.4804
2.50188
2.52213
2.54117
2.559
2.57566
2.59116
2.60553
2.61879
2.63097
2.6421
2.65222
2.66137
2.66965
2.67725
1.83601
1.65256
1.4945
1.35744
1.2379
1.13307
1.04068
0.958862
0.886097
0.821119
0.762874
0.710479
0.663188
0.620369
0.581486
0.546077
0.513746
0.484154
0.457003
0.432037
0.409031
0.387791
0.368143
0.349936
0.333036
0.317326
0.302702
0.28907
0.276348
0.264464
0.253353
0.242957
0.233225
0.224112
0.215578
0.207589
0.200113
0.193125
0.186603
0.180527
0.174883
0.169658
0.164845
0.160438
0.156435
0.152837
0.149649
0.146879
0.144537
0.142639
0.141203
0.140252
0.139811
0.139911
0.140587
0.141877
0.143823
0.146472
0.149873
0.154082
0.159152
0.165144
0.172116
0.180131
0.189247
0.199525
0.211021
0.223788
0.237875
0.253324
0.270169
0.288437
0.308143
0.329293
0.351882
0.375892
0.401293
0.428044
0.45609
0.485365
0.515792
0.547285
0.579746
0.613073
0.647154
0.681874
0.717113
0.752751
0.788665
0.824735
0.860843
0.896872
0.932714
0.968265
1.00343
1.03811
1.07226
1.10577
1.13856
1.17056
1.20171
1.23196
1.26127
1.28961
1.31695
1.34328
1.36859
1.39287
1.41611
1.43833
1.45953
1.47972
1.49892
1.51713
1.53439
1.55071
1.56612
1.58063
1.59428
1.60709
1.61912
1.63047
1.83601
1.65254
1.49448
1.35742
1.23787
1.13304
1.04064
0.958826
0.886061
0.821083
0.762838
0.710444
0.663153
0.620336
0.581454
0.546046
0.513716
0.484124
0.456972
0.432004
0.408994
0.387747
0.368088
0.349865
0.332945
0.317207
0.302545
0.288866
0.276084
0.264125
0.25292
0.24241
0.232539
0.223258
0.214524
0.206295
0.198537
0.191216
0.184303
0.177772
0.171597
0.165758
0.160235
0.155011
0.150069
0.145397
0.140981
0.136812
0.132879
0.129176
0.125696
0.122433
0.119385
0.116549
0.113924
0.11151
0.109309
0.107324
0.105559
0.104021
0.102717
0.101657
0.10085
0.100309
0.100049
0.100085
0.100436
0.10112
0.10216
0.103578
0.105401
0.107653
0.110364
0.113563
0.117281
0.121548
0.126396
0.131857
0.137963
0.144744
0.152229
0.160446
0.16942
0.179173
0.189723
0.201085
0.213269
0.22628
0.240116
0.254772
0.270235
0.286487
0.303503
0.321253
0.339702
0.358807
0.378523
0.3988
0.41959
0.440839
0.462482
0.484453
0.506682
0.529102
0.551644
0.57424
0.596825
0.619335
0.641708
0.663888
0.68582
0.707452
0.728739
0.749638
0.77011
0.790121
0.809641
0.828644
0.847108
0.865016
0.882358
0.8991