/*--------------------------------*- C++ -*----------------------------------*\
  =========                 |
  \\      /  F ield         | OpenFOAM: The Open Source CFD Toolbox
   \\    /   O peration     | Website:  https://openfoam.org
    \\  /    A nd           | Version:  8
     \\/     M anipulation  |
\*---------------------------------------------------------------------------*/
FoamFile
{
    version     2.0;
    format      ascii;
    class       volScalarField;
    location    "900";
    object      k;
}
// * * * * * * * * * * * * * * * * * * * * * * * * * * * * * * * * * * * * * //

dimensions      [0 2 -2 0 0 0 0];

internalField   nonuniform List<scalar> 
7320
(
6.07652
5.55942
5.24732
5.04165
4.8942
4.78178
4.69211
4.61825
4.55602
4.50265
4.45625
4.41545
4.37924
4.34686
4.31771
4.29132
4.26733
4.24542
4.22534
4.20689
4.18987
4.17415
4.15959
4.14608
4.13352
4.12184
4.11095
4.10079
4.09131
4.08244
4.07416
4.0664
4.05914
4.05234
4.04598
4.04002
4.03444
4.02921
4.02432
4.01974
4.01546
4.01146
4.00773
4.00425
4.00101
3.99799
3.99519
3.99259
3.99019
3.98797
3.98593
3.98406
3.98235
3.9808
3.97939
3.97813
3.977
3.976
3.97512
3.97437
3.97373
3.97321
3.97279
3.97247
3.97226
3.97214
3.97212
3.97219
3.97234
3.97258
3.97291
3.97331
3.97379
3.97434
3.97497
3.97566
3.97641
3.97722
3.97809
3.97901
3.97998
3.98099
3.98205
3.98314
3.98427
3.98544
3.98663
3.98786
3.98911
3.99039
3.9917
3.99304
3.99441
3.9958
3.99722
3.99868
4.00017
4.00169
4.00325
4.00485
4.00649
4.00817
4.0099
4.01168
4.0135
4.01538
4.01731
4.0193
4.02134
4.02343
4.02558
4.02779
4.03005
4.03236
4.03473
4.03714
4.0396
4.0421
4.04465
4.04722
4.04978
4.0524
4.84215
5.67924
5.54001
5.36046
5.21715
5.10399
5.01225
4.93597
4.87129
4.81558
4.76697
4.72412
4.68601
4.65186
4.62109
4.59321
4.56782
4.54462
4.52335
4.50378
4.48573
4.46904
4.45358
4.43924
4.4259
4.41348
4.40191
4.39111
4.38103
4.37161
4.3628
4.35455
4.34683
4.3396
4.33284
4.3265
4.32057
4.31501
4.30982
4.30495
4.30041
4.29616
4.2922
4.28851
4.28507
4.28187
4.2789
4.27615
4.27361
4.27127
4.26911
4.26714
4.26534
4.2637
4.26223
4.2609
4.25972
4.25867
4.25777
4.25699
4.25633
4.25579
4.25537
4.25505
4.25485
4.25475
4.25475
4.25484
4.25503
4.25531
4.25569
4.25615
4.2567
4.25732
4.25803
4.25881
4.25966
4.26058
4.26156
4.2626
4.26369
4.26484
4.26602
4.26725
4.26852
4.26981
4.27114
4.27249
4.27387
4.27527
4.27668
4.27812
4.27957
4.28105
4.28254
4.28405
4.28558
4.28714
4.28872
4.29033
4.29198
4.29366
4.29538
4.29715
4.29896
4.30082
4.30274
4.30471
4.30674
4.30884
4.311
4.31322
4.31551
4.31787
4.3203
4.3228
4.32536
4.32799
4.33069
4.33344
4.33621
4.33903
3.59581
5.0514
5.15997
5.06781
4.96411
4.87324
4.79598
4.72999
4.67307
4.62344
4.57977
4.541
4.50635
4.47517
4.44698
4.42135
4.39797
4.37656
4.35689
4.33877
4.32204
4.30655
4.29219
4.27885
4.26644
4.25488
4.2441
4.23404
4.22464
4.21585
4.20763
4.19994
4.19274
4.186
4.17969
4.17378
4.16824
4.16307
4.15822
4.15369
4.14946
4.14551
4.14183
4.13839
4.1352
4.13223
4.12948
4.12694
4.12459
4.12243
4.12044
4.11863
4.11698
4.11549
4.11414
4.11294
4.11187
4.11094
4.11013
4.10944
4.10886
4.1084
4.10805
4.1078
4.10766
4.10761
4.10766
4.10781
4.10804
4.10837
4.10878
4.10928
4.10986
4.11053
4.11127
4.11209
4.11298
4.11393
4.11495
4.11602
4.11714
4.1183
4.1195
4.12074
4.122
4.12328
4.12458
4.12588
4.1272
4.12852
4.12984
4.13116
4.13247
4.13379
4.13511
4.13643
4.13775
4.13908
4.14042
4.14178
4.14316
4.14456
4.146
4.14748
4.149
4.15058
4.15222
4.15392
4.1557
4.15755
4.15948
4.16151
4.16362
4.16583
4.16815
4.17056
4.17308
4.1757
4.17843
4.18126
4.18418
4.18713
2.74725
4.48339
4.83294
4.83938
4.78111
4.71517
4.65355
4.59832
4.54927
4.50567
4.46677
4.43188
4.40045
4.372
4.34614
4.32254
4.30093
4.28108
4.2628
4.24593
4.23032
4.21585
4.20241
4.18991
4.17828
4.16743
4.15731
4.14786
4.13902
4.13076
4.12302
4.11579
4.10901
4.10267
4.09673
4.09117
4.08597
4.0811
4.07654
4.07229
4.06832
4.06461
4.06116
4.05794
4.05496
4.05218
4.04962
4.04725
4.04507
4.04306
4.04123
4.03956
4.03804
4.03667
4.03545
4.03436
4.0334
4.03256
4.03185
4.03125
4.03077
4.03039
4.03011
4.02993
4.02986
4.02987
4.02999
4.03019
4.03048
4.03086
4.03133
4.03189
4.03253
4.03325
4.03405
4.03493
4.03587
4.03688
4.03795
4.03907
4.04023
4.04143
4.04267
4.04392
4.04519
4.04647
4.04776
4.04903
4.0503
4.05156
4.0528
4.05402
4.05522
4.05641
4.05758
4.05873
4.05987
4.061
4.06214
4.06328
4.06444
4.06562
4.06683
4.06808
4.06939
4.07075
4.07218
4.07369
4.07529
4.07699
4.0788
4.08071
4.08276
4.08493
4.08723
4.08967
4.09226
4.09499
4.09787
4.1009
4.10406
4.10727
2.10346
3.90602
4.48941
4.61127
4.60898
4.57387
4.53133
4.489
4.44924
4.41265
4.37922
4.34873
4.32092
4.29549
4.27219
4.2508
4.23111
4.21295
4.19616
4.18061
4.16619
4.15279
4.14032
4.12871
4.11788
4.10777
4.09833
4.08951
4.08125
4.07353
4.0663
4.05953
4.05319
4.04725
4.04169
4.03649
4.03163
4.02708
4.02282
4.01885
4.01515
4.01169
4.00848
4.00549
4.00272
4.00015
3.99778
3.99559
3.99359
3.99175
3.99007
3.98855
3.98718
3.98595
3.98486
3.98389
3.98305
3.98233
3.98172
3.98123
3.98084
3.98055
3.98037
3.98028
3.98028
3.98038
3.98057
3.98085
3.98121
3.98167
3.98221
3.98284
3.98355
3.98434
3.98521
3.98616
3.98717
3.98825
3.98938
3.99055
3.99177
3.99302
3.99429
3.99557
3.99686
3.99815
3.99942
4.00068
4.00191
4.00312
4.00429
4.00543
4.00653
4.0076
4.00864
4.00965
4.01064
4.01162
4.01258
4.01355
4.01452
4.01552
4.01655
4.01763
4.01876
4.01997
4.02126
4.02264
4.02413
4.02574
4.02748
4.02936
4.0314
4.03359
4.03595
4.03849
4.04121
4.04412
4.04721
4.05049
4.05396
4.05749
1.61624
3.30894
4.10161
4.35522
4.42201
4.42574
4.40724
4.38106
4.35281
4.32483
4.29808
4.27292
4.24944
4.22762
4.20738
4.18859
4.17115
4.15496
4.13991
4.1259
4.11285
4.10069
4.08934
4.07874
4.06884
4.05958
4.05091
4.0428
4.03521
4.02809
4.02143
4.01519
4.00935
4.00388
3.99875
3.99396
3.98947
3.98528
3.98137
3.97772
3.97432
3.97115
3.96821
3.96548
3.96295
3.96061
3.95846
3.95649
3.95468
3.95304
3.95155
3.9502
3.94899
3.94792
3.94698
3.94616
3.94546
3.94488
3.9444
3.94402
3.94375
3.94358
3.9435
3.94352
3.94362
3.94382
3.94411
3.94448
3.94493
3.94548
3.94611
3.94682
3.94762
3.94849
3.94945
3.95047
3.95156
3.95271
3.95391
3.95516
3.95644
3.95774
3.95906
3.96038
3.96169
3.963
3.96428
3.96552
3.96674
3.96791
3.96903
3.97011
3.97114
3.97212
3.97306
3.97396
3.97484
3.97568
3.97652
3.97735
3.97819
3.97905
3.97995
3.9809
3.98192
3.98301
3.9842
3.98551
3.98693
3.9885
3.99023
3.99211
3.99418
3.99644
3.9989
4.00156
4.00444
4.00754
4.01086
4.0144
4.01818
4.02203
1.26812
2.7064
3.65726
4.05358
4.20386
4.25636
4.26838
4.26267
4.24897
4.23181
4.21339
4.19484
4.17674
4.15936
4.14285
4.12725
4.11255
4.09875
4.0858
4.07365
4.06226
4.05158
4.04157
4.03219
4.02339
4.01514
4.0074
4.00014
3.99333
3.98695
3.98096
3.97535
3.97009
3.96516
3.96055
3.95624
3.95221
3.94844
3.94493
3.94166
3.93862
3.93579
3.93317
3.93074
3.92851
3.92645
3.92456
3.92284
3.92127
3.91985
3.91858
3.91744
3.91643
3.91555
3.9148
3.91415
3.91362
3.91319
3.91287
3.91265
3.91252
3.91248
3.91254
3.91268
3.91291
3.91323
3.91363
3.91412
3.91468
3.91533
3.91607
3.91688
3.91778
3.91876
3.91981
3.92092
3.9221
3.92334
3.92462
3.92595
3.9273
3.92867
3.93004
3.93141
3.93277
3.9341
3.93541
3.93667
3.93788
3.93904
3.94014
3.94119
3.94217
3.9431
3.94398
3.94481
3.94561
3.94637
3.94712
3.94786
3.94861
3.94938
3.9502
3.95106
3.952
3.95303
3.95417
3.95543
3.95683
3.95838
3.96011
3.96203
3.96415
3.96648
3.96903
3.97182
3.97485
3.97813
3.98166
3.98545
3.9895
3.99363
1.04443
2.13048
3.15609
3.69382
3.94125
4.05401
4.10457
4.12487
4.12967
4.12622
4.11833
4.10811
4.09673
4.0849
4.07304
4.06139
4.0501
4.03924
4.02888
4.01901
4.00966
4.0008
3.99243
3.98452
3.97707
3.97005
3.96343
3.95721
3.95135
3.94585
3.94068
3.93583
3.93128
3.92702
3.92303
3.9193
3.91582
3.91257
3.90954
3.90672
3.90411
3.90169
3.89946
3.89741
3.89552
3.8938
3.89223
3.8908
3.88953
3.88838
3.88737
3.88649
3.88572
3.88507
3.88454
3.88411
3.88378
3.88355
3.88341
3.88337
3.88342
3.88355
3.88377
3.88407
3.88445
3.88491
3.88546
3.88608
3.88678
3.88756
3.88842
3.88936
3.89038
3.89147
3.89263
3.89385
3.89514
3.89648
3.89786
3.89927
3.90071
3.90216
3.90361
3.90505
3.90647
3.90786
3.90921
3.9105
3.91175
3.91293
3.91404
3.91509
3.91607
3.91699
3.91784
3.91865
3.91941
3.92013
3.92084
3.92153
3.92223
3.92296
3.92373
3.92455
3.92545
3.92644
3.92755
3.92879
3.93019
3.93175
3.9335
3.93544
3.93761
3.94001
3.94265
3.94554
3.94869
3.95211
3.95581
3.95978
3.96405
3.9684
0.919762
1.62589
2.61278
3.26902
3.62244
3.80741
3.90596
3.95917
3.98747
4.00145
4.00694
4.00725
4.00438
3.99954
3.99352
3.98681
3.97977
3.97259
3.96544
3.95842
3.95158
3.94497
3.93862
3.93255
3.92675
3.92124
3.91601
3.91105
3.90637
3.90195
3.89779
3.89387
3.89019
3.88673
3.8835
3.88048
3.87766
3.87504
3.8726
3.87035
3.86826
3.86634
3.86458
3.86298
3.86152
3.8602
3.85902
3.85796
3.85704
3.85623
3.85554
3.85496
3.85449
3.85413
3.85386
3.85369
3.85361
3.85362
3.85371
3.85389
3.85415
3.85449
3.85491
3.8554
3.85596
3.85661
3.85732
3.85812
3.85898
3.85992
3.86093
3.86201
3.86317
3.8644
3.86569
3.86705
3.86846
3.86992
3.87142
3.87294
3.87449
3.87604
3.87759
3.87912
3.88063
3.8821
3.88352
3.88488
3.88619
3.88742
3.88858
3.88967
3.89069
3.89163
3.89251
3.89333
3.8941
3.89484
3.89554
3.89623
3.89693
3.89765
3.8984
3.89922
3.90011
3.90109
3.9022
3.90344
3.90484
3.90641
3.90817
3.91015
3.91235
3.91479
3.91748
3.92044
3.92367
3.92719
3.93099
3.93508
3.93949
3.94398
0.860369
1.23773
2.06198
2.78202
3.23846
3.50547
3.66218
3.75644
3.81442
3.85055
3.87304
3.88674
3.89464
3.89864
3.89999
3.89953
3.89781
3.89526
3.89213
3.88865
3.88496
3.88115
3.87732
3.87351
3.86978
3.86614
3.86262
3.85924
3.856
3.85291
3.84999
3.84722
3.8446
3.84215
3.83985
3.8377
3.8357
3.83385
3.83214
3.83056
3.82913
3.82782
3.82664
3.82559
3.82465
3.82383
3.82312
3.82252
3.82202
3.82162
3.82133
3.82112
3.82101
3.82099
3.82105
3.8212
3.82143
3.82173
3.82211
3.82256
3.82308
3.82367
3.82433
3.82505
3.82584
3.8267
3.82763
3.82863
3.82969
3.83082
3.83201
3.83327
3.8346
3.83599
3.83745
3.83896
3.84052
3.84212
3.84376
3.84543
3.8471
3.84879
3.85046
3.85211
3.85374
3.85532
3.85685
3.85832
3.85972
3.86104
3.8623
3.86347
3.86456
3.86558
3.86653
3.86741
3.86823
3.86901
3.86976
3.8705
3.87123
3.87197
3.87276
3.87359
3.8745
3.8755
3.87662
3.87787
3.87928
3.88086
3.88263
3.88462
3.88683
3.88929
3.892
3.89498
3.89825
3.9018
3.90564
3.90978
3.91425
3.9188
0.836787
0.98815
1.55966
2.25312
2.7872
3.13869
3.36248
3.50657
3.60152
3.66555
3.70958
3.74028
3.76186
3.77709
3.78779
3.79521
3.80023
3.80349
3.80544
3.80641
3.80665
3.80636
3.80567
3.8047
3.80353
3.80223
3.80084
3.79941
3.79796
3.79653
3.79514
3.79379
3.7925
3.79127
3.79012
3.78905
3.78806
3.78716
3.78635
3.78562
3.78498
3.78442
3.78396
3.78358
3.78328
3.78307
3.78295
3.7829
3.78293
3.78304
3.78322
3.78348
3.78381
3.78421
3.78468
3.78522
3.78582
3.78648
3.7872
3.78798
3.78883
3.78972
3.79068
3.79169
3.79276
3.79389
3.79507
3.79632
3.79762
3.79898
3.80039
3.80187
3.80341
3.805
3.80665
3.80835
3.81009
3.81187
3.81368
3.81551
3.81736
3.8192
3.82103
3.82284
3.82461
3.82634
3.82801
3.82963
3.83117
3.83263
3.83401
3.83531
3.83653
3.83766
3.83872
3.83971
3.84063
3.84151
3.84235
3.84316
3.84396
3.84478
3.84562
3.8465
3.84746
3.84849
3.84964
3.85091
3.85234
3.85393
3.8557
3.85769
3.85989
3.86234
3.86504
3.868
3.87124
3.87477
3.87859
3.88271
3.88715
3.89169
0.830413
0.857509
1.16926
1.7285
2.28148
2.70333
2.99742
3.19899
3.33861
3.4372
3.50825
3.56042
3.59936
3.62883
3.65138
3.6688
3.68236
3.69298
3.70133
3.70792
3.71312
3.71725
3.72051
3.72309
3.72514
3.72675
3.72802
3.72903
3.72983
3.73046
3.73097
3.73139
3.73174
3.73204
3.73232
3.73259
3.73285
3.73312
3.73341
3.73373
3.73407
3.73445
3.73487
3.73532
3.73582
3.73636
3.73695
3.73758
3.73827
3.739
3.73977
3.7406
3.74147
3.74239
3.74336
3.74437
3.74543
3.74654
3.74768
3.74888
3.75011
3.75139
3.75271
3.75407
3.75548
3.75693
3.75843
3.75998
3.76158
3.76322
3.76491
3.76665
3.76844
3.77028
3.77216
3.77409
3.77605
3.77805
3.78007
3.78211
3.78415
3.7862
3.78822
3.79022
3.79219
3.7941
3.79596
3.79776
3.79948
3.80112
3.80268
3.80415
3.80554
3.80684
3.80806
3.8092
3.81027
3.81129
3.81226
3.81319
3.81411
3.81503
3.81596
3.81693
3.81795
3.81905
3.82024
3.82155
3.823
3.8246
3.82638
3.82835
3.83053
3.83294
3.83559
3.8385
3.84167
3.84513
3.84887
3.8529
3.85726
3.86171
0.831632
0.801461
0.924682
1.27902
1.76057
2.20994
2.5635
2.82478
3.0153
3.15518
3.2594
3.33832
3.39906
3.44651
3.48408
3.51418
3.53856
3.5585
3.57496
3.58866
3.60014
3.60984
3.61808
3.62514
3.63123
3.63651
3.64112
3.64518
3.64878
3.652
3.65489
3.65751
3.65991
3.66212
3.66418
3.66611
3.66793
3.66967
3.67133
3.67294
3.67451
3.67604
3.67754
3.67903
3.68051
3.68199
3.68346
3.68494
3.68642
3.68792
3.68943
3.69096
3.6925
3.69406
3.69564
3.69724
3.69887
3.70052
3.70219
3.70388
3.7056
3.70734
3.70911
3.71091
3.71273
3.71459
3.71647
3.71839
3.72035
3.72234
3.72437
3.72643
3.72853
3.73067
3.73284
3.73505
3.73729
3.73955
3.74183
3.74412
3.74642
3.7487
3.75097
3.75321
3.75541
3.75756
3.75965
3.76168
3.76363
3.7655
3.76728
3.76897
3.77058
3.77209
3.77352
3.77486
3.77613
3.77733
3.77848
3.77959
3.78066
3.78172
3.78279
3.78387
3.785
3.78619
3.78745
3.78881
3.7903
3.79192
3.79369
3.79565
3.7978
3.80015
3.80274
3.80556
3.80864
3.81198
3.8156
3.81949
3.82369
3.828
0.835915
0.782667
0.803403
0.968303
1.29566
1.69673
2.07275
2.38225
2.62383
2.80953
2.95259
3.06386
3.15146
3.22133
3.27774
3.32383
3.3619
3.39365
3.42038
3.44308
3.46251
3.47926
3.4938
3.50652
3.51771
3.52762
3.53644
3.54435
3.55147
3.55793
3.56381
3.5692
3.57417
3.57877
3.58305
3.58705
3.59082
3.59438
3.59776
3.60098
3.60407
3.60703
3.6099
3.61267
3.61537
3.618
3.62057
3.6231
3.62558
3.62803
3.63044
3.63284
3.63521
3.63756
3.6399
3.64223
3.64456
3.64688
3.64919
3.65151
3.65382
3.65614
3.65846
3.66079
3.66313
3.66548
3.66784
3.67022
3.67262
3.67504
3.67748
3.67994
3.68243
3.68494
3.68747
3.69002
3.6926
3.69518
3.69778
3.70038
3.70298
3.70557
3.70813
3.71066
3.71315
3.71558
3.71796
3.72027
3.7225
3.72465
3.72671
3.72868
3.73056
3.73234
3.73403
3.73563
3.73715
3.73859
3.73997
3.74129
3.74257
3.74382
3.74506
3.74631
3.74758
3.74888
3.75025
3.75169
3.75324
3.75489
3.75669
3.75863
3.76075
3.76305
3.76556
3.76829
3.77125
3.77445
3.7779
3.78161
3.78562
3.78973
0.841165
0.780282
0.755
0.801817
0.962762
1.23783
1.56799
1.88853
2.16639
2.39488
2.57903
2.72692
2.8462
2.94318
3.02278
3.08874
3.14394
3.19054
3.23023
3.26431
3.29379
3.31947
3.34199
3.36186
3.37951
3.39527
3.40941
3.42217
3.43374
3.44429
3.45394
3.46281
3.47101
3.47861
3.48568
3.4923
3.4985
3.50435
3.50988
3.51512
3.5201
3.52486
3.52942
3.5338
3.53802
3.54209
3.54603
3.54986
3.55358
3.55721
3.56076
3.56422
3.56762
3.57096
3.57425
3.57748
3.58067
3.58382
3.58694
3.59002
3.59307
3.5961
3.59911
3.6021
3.60507
3.60803
3.61099
3.61394
3.61689
3.61984
3.62279
3.62574
3.6287
3.63167
3.63464
3.63763
3.64061
3.64361
3.6466
3.64958
3.65255
3.6555
3.65842
3.66131
3.66415
3.66694
3.66967
3.67232
3.67489
3.67738
3.67978
3.68209
3.68429
3.6864
3.68841
3.69033
3.69215
3.69389
3.69555
3.69715
3.69869
3.70019
3.70165
3.70311
3.70456
3.70604
3.70755
3.70911
3.71074
3.71247
3.7143
3.71626
3.71836
3.72062
3.72306
3.72569
3.72852
3.73156
3.73484
3.73835
3.74213
3.746
0.846372
0.784571
0.740866
0.731421
0.780818
0.913761
1.13036
1.39676
1.66969
1.92048
2.13792
2.32135
2.47447
2.60211
2.70889
2.79873
2.87484
2.93979
2.99561
3.04393
3.08604
3.12297
3.15556
3.18449
3.2103
3.23346
3.25433
3.27323
3.29043
3.30614
3.32056
3.33383
3.3461
3.35748
3.36808
3.37798
3.38726
3.39598
3.4042
3.41198
3.41936
3.42637
3.43305
3.43944
3.44556
3.45144
3.4571
3.46255
3.46782
3.47293
3.47788
3.48269
3.48738
3.49194
3.4964
3.50076
3.50503
3.50922
3.51333
3.51736
3.52134
3.52525
3.5291
3.53291
3.53667
3.5404
3.54408
3.54774
3.55137
3.55497
3.55856
3.56213
3.56568
3.56922
3.57274
3.57626
3.57976
3.58325
3.58672
3.59018
3.59361
3.59702
3.60038
3.6037
3.60698
3.61019
3.61333
3.61641
3.61939
3.62229
3.6251
3.62781
3.63042
3.63292
3.63532
3.63761
3.63981
3.64192
3.64393
3.64586
3.64773
3.64953
3.65129
3.65301
3.65471
3.6564
3.6581
3.65983
3.66161
3.66344
3.66536
3.66736
3.66948
3.67172
3.67411
3.67665
3.67936
3.68226
3.68535
3.68865
3.69219
3.69581
0.851011
0.791143
0.741126
0.708367
0.70346
0.741579
0.838108
0.996907
1.20263
1.4285
1.65059
1.85477
2.03555
2.19259
2.3279
2.44426
2.54449
2.63115
2.70642
2.77214
2.82983
2.88074
2.9259
2.96617
3.00225
3.03473
3.0641
3.09076
3.11507
3.13731
3.15775
3.17658
3.19401
3.21018
3.22523
3.23928
3.25243
3.26478
3.27641
3.28739
3.29777
3.30762
3.31698
3.3259
3.33442
3.34256
3.35037
3.35787
3.36509
3.37205
3.37876
3.38526
3.39155
3.39765
3.40358
3.40935
3.41497
3.42045
3.4258
3.43103
3.43614
3.44116
3.44608
3.4509
3.45565
3.46032
3.46492
3.46945
3.47393
3.47835
3.48273
3.48706
3.49135
3.4956
3.49982
3.50399
3.50814
3.51225
3.51633
3.52037
3.52437
3.52833
3.53225
3.5361
3.5399
3.54363
3.54729
3.55087
3.55436
3.55776
3.56105
3.56425
3.56734
3.57031
3.57318
3.57594
3.57859
3.58113
3.58357
3.58592
3.58818
3.59036
3.59248
3.59454
3.59655
3.59853
3.60049
3.60246
3.60443
3.60643
3.60848
3.61058
3.61276
3.61502
3.6174
3.61989
3.62251
3.62528
3.62821
3.63131
3.63461
3.63799
0.854799
0.797919
0.746862
0.705362
0.677885
0.670753
0.692779
0.753704
0.85933
1.00619
1.18133
1.368
1.55204
1.72458
1.88152
2.02185
2.14624
2.2561
2.35311
2.43889
2.51496
2.58264
2.64307
2.69726
2.74602
2.79009
2.83005
2.86643
2.89966
2.93013
2.95815
2.98401
3.00794
3.03015
3.05083
3.07013
3.08818
3.10513
3.12106
3.13608
3.15026
3.1637
3.17644
3.18855
3.20009
3.2111
3.22162
3.2317
3.24137
3.25066
3.2596
3.26821
3.27653
3.28456
3.29234
3.29987
3.30718
3.31428
3.32119
3.32792
3.33447
3.34086
3.34711
3.35322
3.35919
3.36505
3.37079
3.37642
3.38196
3.38741
3.39277
3.39806
3.40327
3.40842
3.41349
3.4185
3.42345
3.42834
3.43317
3.43795
3.44266
3.44732
3.4519
3.45642
3.46087
3.46524
3.46952
3.47372
3.47782
3.48182
3.48571
3.48949
3.49316
3.49671
3.50014
3.50345
3.50664
3.50971
3.51267
3.51552
3.51827
3.52092
3.52348
3.52596
3.52837
3.53072
3.53303
3.5353
3.53755
3.53979
3.54204
3.5443
3.54661
3.54896
3.55137
3.55387
3.55645
3.55913
3.56193
3.56486
3.56795
3.5711
0.857613
0.803838
0.754023
0.710069
0.674015
0.648368
0.636594
0.64348
0.674826
0.73588
0.828724
0.950234
1.09243
1.24518
1.3992
1.54782
1.68713
1.81538
1.93217
2.03791
2.13338
2.21952
2.29731
2.36767
2.43146
2.48942
2.54224
2.59051
2.63474
2.67539
2.71285
2.74747
2.77954
2.80934
2.83709
2.86299
2.88723
2.90997
2.93133
2.95146
2.97045
2.98841
3.00543
3.02158
3.03694
3.05157
3.06553
3.07886
3.09163
3.10386
3.11561
3.1269
3.13776
3.14823
3.15834
3.16811
3.17755
3.1867
3.19557
3.20417
3.21254
3.22067
3.22858
3.2363
3.24382
3.25116
3.25834
3.26536
3.27223
3.27896
3.28557
3.29205
3.29843
3.30469
3.31085
3.31691
3.32287
3.32874
3.33452
3.34021
3.34582
3.35134
3.35677
3.36212
3.36737
3.37252
3.37758
3.38253
3.38738
3.39211
3.39672
3.40122
3.40559
3.40983
3.41394
3.41792
3.42176
3.42548
3.42907
3.43253
3.43587
3.43909
3.4422
3.4452
3.44811
3.45093
3.45367
3.45635
3.45897
3.46154
3.46408
3.4666
3.46911
3.47163
3.47416
3.47673
3.47933
3.482
3.48473
3.48753
3.49046
3.49343
0.859482
0.808378
0.760626
0.716973
0.678334
0.645749
0.620512
0.604371
0.599722
0.609658
0.637654
0.686738
0.758296
0.851094
0.961178
1.08279
1.20982
1.33698
1.46042
1.57773
1.68765
1.78972
1.88396
1.9707
2.05043
2.12369
2.19105
2.25304
2.31019
2.36296
2.41178
2.45704
2.49907
2.5382
2.57469
2.6088
2.64074
2.6707
2.69887
2.7254
2.75043
2.77409
2.79649
2.81774
2.83792
2.85712
2.87541
2.89286
2.90954
2.9255
2.94079
2.95547
2.96956
2.98311
2.99617
3.00875
3.02089
3.03263
3.04397
3.05496
3.0656
3.07593
3.08595
3.09569
3.10517
3.11439
3.12338
3.13214
3.1407
3.14905
3.15723
3.16522
3.17305
3.18073
3.18825
3.19563
3.20288
3.20998
3.21696
3.22381
3.23054
3.23716
3.24365
3.25003
3.25628
3.26242
3.26844
3.27433
3.2801
3.28573
3.29123
3.2966
3.30182
3.3069
3.31184
3.31663
3.32127
3.32577
3.33012
3.33432
3.33838
3.3423
3.34608
3.34974
3.35327
3.35668
3.35998
3.36317
3.36628
3.36929
3.37224
3.37511
3.37794
3.38072
3.38347
3.3862
3.38892
3.39165
3.39439
3.39716
3.39999
3.40284
0.860565
0.811411
0.765711
0.723439
0.684828
0.650242
0.620147
0.595142
0.57603
0.563904
0.56022
0.566795
0.585676
0.618805
0.66751
0.731993
0.811019
0.902008
1.00149
1.10577
1.21146
1.31586
1.41705
1.51381
1.60547
1.69173
1.77257
1.84814
1.91867
1.98447
2.04585
2.10313
2.15664
2.20668
2.25352
2.29744
2.33866
2.37742
2.4139
2.44831
2.48079
2.51151
2.54061
2.5682
2.5944
2.61932
2.64304
2.66567
2.68727
2.70792
2.72769
2.74662
2.76479
2.78224
2.79901
2.81516
2.83071
2.84571
2.86019
2.87418
2.88772
2.90082
2.91351
2.92582
2.93776
2.94936
2.96064
2.97161
2.9823
2.99271
3.00286
3.01277
3.02244
3.0319
3.04115
3.05021
3.05907
3.06775
3.07624
3.08457
3.09272
3.10071
3.10854
3.11622
3.12375
3.13112
3.13834
3.1454
3.15231
3.15907
3.16567
3.17211
3.17839
3.1845
3.19045
3.19624
3.20185
3.2073
3.21258
3.21769
3.22263
3.22741
3.23202
3.23647
3.24077
3.24492
3.24892
3.25278
3.25651
3.2601
3.26358
3.26695
3.27022
3.27339
3.27648
3.27949
3.28245
3.28535
3.2882
3.29103
3.29387
3.29668
0.861099
0.813133
0.76901
0.728261
0.690673
0.656203
0.624916
0.596953
0.57254
0.551996
0.535764
0.524447
0.518835
0.519919
0.528854
0.546863
0.575059
0.614217
0.66454
0.725513
0.795886
0.87382
0.957145
1.04364
1.13129
1.21842
1.30375
1.3864
1.4658
1.54163
1.61374
1.68211
1.74682
1.80798
1.86575
1.92031
1.97184
2.02055
2.0666
2.11017
2.15144
2.19056
2.22768
2.26294
2.29646
2.32837
2.35877
2.38776
2.41545
2.44192
2.46724
2.4915
2.51475
2.53707
2.55851
2.57912
2.59896
2.61808
2.6365
2.65429
2.67146
2.68806
2.70412
2.71967
2.73474
2.74935
2.76352
2.77729
2.79066
2.80367
2.81634
2.82867
2.84069
2.85241
2.86384
2.87501
2.88592
2.89658
2.90701
2.9172
2.92717
2.93691
2.94644
2.95577
2.9649
2.97383
2.98256
2.9911
2.99946
3.00762
3.01559
3.02337
3.03096
3.03835
3.04555
3.05256
3.05938
3.06599
3.07241
3.07864
3.08466
3.0905
3.09613
3.10157
3.10683
3.11189
3.11677
3.12146
3.12598
3.13033
3.13451
3.13853
3.14239
3.14611
3.14968
3.15313
3.15645
3.15966
3.16277
3.16578
3.16875
3.17165
0.861317
0.813942
0.770775
0.731184
0.694718
0.661081
0.630095
0.601662
0.575754
0.552397
0.531673
0.513721
0.498751
0.487049
0.478999
0.475087
0.475905
0.482135
0.494503
0.513717
0.540366
0.574817
0.61712
0.666952
0.72361
0.786067
0.853079
0.923306
0.99544
1.06829
1.14087
1.21238
1.28223
1.35001
1.41546
1.47841
1.53881
1.59663
1.6519
1.70469
1.75507
1.80315
1.84902
1.8928
1.93459
1.9745
2.01264
2.0491
2.08399
2.11738
2.14938
2.18005
2.20948
2.23773
2.26488
2.29099
2.31612
2.34031
2.36363
2.38613
2.40784
2.42881
2.44908
2.46869
2.48767
2.50605
2.52387
2.54115
2.55792
2.57421
2.59004
2.60543
2.6204
2.63498
2.64919
2.66303
2.67653
2.6897
2.70256
2.71511
2.72737
2.73935
2.75105
2.76247
2.77363
2.78454
2.79519
2.8056
2.81577
2.8257
2.8354
2.84486
2.85408
2.86308
2.87184
2.88037
2.88867
2.89674
2.90457
2.91218
2.91954
2.92668
2.93358
2.94024
2.94668
2.95288
2.95885
2.9646
2.97012
2.97541
2.98049
2.98535
2.99
2.99445
2.99869
3.00275
3.00661
3.0103
3.01382
3.01719
3.02044
3.02357
0.861389
0.814244
0.77153
0.732597
0.696917
0.664079
0.633769
0.605753
0.579862
0.555979
0.53403
0.513979
0.495828
0.479611
0.4654
0.453309
0.443493
0.436161
0.431574
0.430052
0.431968
0.437737
0.4478
0.462586
0.482476
0.507758
0.538577
0.574904
0.616511
0.662979
0.713718
0.768008
0.825061
0.884069
0.944259
1.00493
1.06548
1.12542
1.18435
1.242
1.29815
1.35266
1.40546
1.45649
1.50575
1.55324
1.59899
1.64303
1.68542
1.72621
1.76546
1.80324
1.83959
1.8746
1.90832
1.94081
1.97212
2.00233
2.03147
2.0596
2.08677
2.11303
2.13841
2.16297
2.18673
2.20975
2.23205
2.25367
2.27464
2.295
2.31476
2.33397
2.35264
2.37079
2.38846
2.40566
2.42241
2.43874
2.45465
2.47017
2.48532
2.50009
2.51452
2.5286
2.54234
2.55574
2.56883
2.5816
2.59406
2.60623
2.61809
2.62967
2.64096
2.65196
2.66267
2.67311
2.68326
2.69313
2.70272
2.71203
2.72106
2.72981
2.73828
2.74646
2.75436
2.76198
2.76931
2.77636
2.78314
2.78963
2.79584
2.80178
2.80744
2.81284
2.81797
2.82284
2.82746
2.83183
2.83596
2.83986
2.84358
2.84714
0.861406
0.814329
0.771776
0.733121
0.697834
0.665476
0.635686
0.608168
0.582682
0.559037
0.53708
0.516692
0.497782
0.480288
0.464168
0.449403
0.435996
0.423969
0.413369
0.404262
0.396745
0.390937
0.38699
0.385084
0.385432
0.38827
0.393857
0.402461
0.414344
0.429748
0.448872
0.471851
0.49874
0.529499
0.563987
0.601961
0.643087
0.68696
0.733121
0.781087
0.830372
0.880512
0.93108
0.981696
1.03204
1.08185
1.1309
1.17905
1.22616
1.27216
1.31699
1.36062
1.40302
1.4442
1.48417
1.52292
1.5605
1.59692
1.63221
1.6664
1.69954
1.73164
1.76276
1.79293
1.82218
1.85055
1.87808
1.9048
1.93073
1.95593
1.9804
2.00418
2.02731
2.0498
2.07168
2.09298
2.11371
2.13391
2.15358
2.17276
2.19146
2.2097
2.22749
2.24485
2.26179
2.27832
2.29445
2.31018
2.32552
2.34048
2.35506
2.36929
2.38315
2.39665
2.40981
2.42261
2.43507
2.44719
2.45896
2.47039
2.48147
2.49222
2.50262
2.51268
2.52239
2.53175
2.54077
2.54945
2.55777
2.56576
2.57339
2.58068
2.58763
2.59423
2.6005
2.60644
2.61205
2.61733
2.62231
2.62697
2.63139
2.63558
0.861407
0.814342
0.77183
0.73326
0.698113
0.665954
0.636417
0.609191
0.584014
0.560665
0.538959
0.518737
0.499869
0.482247
0.46578
0.450397
0.43604
0.422666
0.410246
0.398762
0.388209
0.378592
0.36993
0.362255
0.355609
0.350053
0.345657
0.342512
0.340722
0.340409
0.341708
0.344772
0.349758
0.356833
0.366159
0.37789
0.392165
0.409092
0.428747
0.45116
0.476313
0.504137
0.534507
0.567251
0.602151
0.638956
0.677387
0.717154
0.757962
0.799523
0.841565
0.883841
0.926127
0.968232
1.00999
1.05127
1.09197
1.13199
1.17128
1.2098
1.24751
1.28439
1.32043
1.35562
1.38997
1.42349
1.45617
1.48803
1.51909
1.54936
1.57886
1.6076
1.63561
1.66291
1.68951
1.71544
1.74072
1.76537
1.78941
1.81285
1.83573
1.85805
1.87983
1.90109
1.92183
1.94209
1.96186
1.98115
1.99999
2.01836
2.03627
2.05372
2.07073
2.08729
2.10343
2.11913
2.13441
2.14927
2.16371
2.17772
2.19132
2.2045
2.21726
2.2296
2.24152
2.25302
2.26409
2.27475
2.28498
2.29478
2.30416
2.31312
2.32165
2.32977
2.33747
2.34476
2.35164
2.35813
2.36421
2.36992
2.3753
2.38039
0.861405
0.814337
0.771831
0.733277
0.698164
0.666062
0.636607
0.60949
0.584448
0.561253
0.53971
0.519653
0.500935
0.483431
0.467033
0.451647
0.437194
0.423603
0.410816
0.398785
0.387468
0.376832
0.366852
0.357508
0.348789
0.340687
0.333204
0.326348
0.32013
0.314572
0.309702
0.305553
0.30217
0.299604
0.297914
0.29717
0.297449
0.298836
0.301424
0.305311
0.310599
0.317392
0.325788
0.335883
0.347762
0.361495
0.377137
0.394719
0.41425
0.43571
0.459055
0.484211
0.511079
0.539535
0.569435
0.600622
0.632922
0.666161
0.700158
0.734738
0.769734
0.804987
0.840351
0.875697
0.91091
0.945891
0.980556
1.01484
1.04868
1.08203
1.11486
1.14715
1.17888
1.21003
1.2406
1.27058
1.29998
1.32878
1.357
1.38464
1.4117
1.43818
1.4641
1.48946
1.51427
1.53852
1.56224
1.58542
1.60808
1.63022
1.65185
1.67296
1.69356
1.71364
1.7332
1.75225
1.7708
1.78884
1.80637
1.82341
1.83994
1.85596
1.87149
1.88651
1.90103
1.91503
1.92854
1.94153
1.95401
1.96599
1.97746
1.98842
1.99889
2.00885
2.01832
2.0273
2.03579
2.04381
2.05136
2.05846
2.06516
2.0715
0.861402
0.814329
0.77182
0.733266
0.698157
0.666065
0.636627
0.609537
0.584532
0.561385
0.539902
0.519913
0.50127
0.483846
0.467525
0.45221
0.437813
0.424257
0.411474
0.399403
0.387993
0.377196
0.366972
0.357284
0.348103
0.339402
0.331157
0.323351
0.315968
0.308997
0.302429
0.296259
0.290486
0.285112
0.28014
0.275581
0.271445
0.267749
0.264512
0.261758
0.259514
0.257813
0.256693
0.256195
0.256365
0.257255
0.25892
0.261418
0.264812
0.269165
0.274542
0.281005
0.288617
0.297435
0.307512
0.318892
0.33161
0.345693
0.361151
0.377985
0.39618
0.415707
0.436523
0.45857
0.481779
0.506069
0.531347
0.557516
0.584471
0.612104
0.640305
0.668967
0.697983
0.727253
0.75668
0.786176
0.81566
0.845058
0.874305
0.903343
0.932124
0.960604
0.988749
1.01653
1.04392
1.0709
1.09745
1.12356
1.14922
1.17441
1.19914
1.22339
1.24715
1.27043
1.29321
1.31548
1.33722
1.35841
1.37906
1.39917
1.41872
1.43772
1.45615
1.47403
1.49133
1.50807
1.52424
1.53984
1.55487
1.56933
1.58323
1.59656
1.60934
1.62156
1.63323
1.64437
1.65497
1.66505
1.67462
1.6837
1.69231
1.70053
0.8614
0.814321
0.77181
0.733253
0.698143
0.66605
0.636614
0.609527
0.584528
0.561391
0.53992
0.519948
0.501326
0.483926
0.467634
0.45235
0.437986
0.424462
0.411709
0.399665
0.388273
0.377484
0.367254
0.35754
0.348309
0.339526
0.331164
0.323195
0.315596
0.308347
0.301429
0.294824
0.288519
0.282502
0.27676
0.271286
0.266072
0.261112
0.256403
0.251941
0.247725
0.243758
0.24004
0.236576
0.233372
0.230436
0.227777
0.225408
0.223341
0.221593
0.220182
0.219128
0.218455
0.218189
0.218358
0.218993
0.220126
0.221793
0.224031
0.226878
0.230376
0.234562
0.239479
0.245165
0.251659
0.258996
0.267209
0.276327
0.286374
0.29737
0.309327
0.322252
0.336143
0.350992
0.366782
0.383489
0.401081
0.41952
0.438759
0.458746
0.479424
0.50073
0.522599
0.544962
0.567748
0.590888
0.61431
0.637944
0.661722
0.685581
0.709456
0.73329
0.757027
0.780619
0.804019
0.827185
0.850089
0.872688
0.894944
0.916823
0.9383
0.959357
0.979974
1.00014
1.01984
1.03906
1.0578
1.07606
1.09382
1.11108
1.12784
1.14411
1.15987
1.17514
1.1899
1.20417
1.21795
1.23123
1.24404
1.25636
1.26823
1.27966
0.861399
0.814317
0.771804
0.733245
0.698133
0.666039
0.636602
0.609515
0.584516
0.561379
0.53991
0.51994
0.501322
0.483926
0.46764
0.452363
0.438006
0.424492
0.411749
0.399716
0.388335
0.377557
0.367336
0.357631
0.348405
0.339624
0.331258
0.323279
0.315662
0.308383
0.301421
0.294758
0.288376
0.282259
0.276392
0.270762
0.265357
0.260167
0.25518
0.250389
0.245786
0.241362
0.237113
0.233033
0.229117
0.225362
0.221764
0.218323
0.215035
0.211901
0.208922
0.206097
0.20343
0.200923
0.198581
0.196407
0.194407
0.192589
0.19096
0.18953
0.188308
0.187306
0.186537
0.186016
0.185756
0.185776
0.186095
0.186731
0.187706
0.189043
0.190766
0.192899
0.195469
0.198503
0.202027
0.206068
0.210655
0.215815
0.221573
0.227955
0.234984
0.242681
0.251066
0.260154
0.269958
0.280488
0.291747
0.303736
0.316452
0.329884
0.344019
0.358839
0.37432
0.390433
0.407147
0.424425
0.442228
0.460512