/*--------------------------------*- C++ -*----------------------------------*\
  =========                 |
  \\      /  F ield         | OpenFOAM: The Open Source CFD Toolbox
   \\    /   O peration     | Website:  https://openfoam.org
    \\  /    A nd           | Version:  8
     \\/     M anipulation  |
\*---------------------------------------------------------------------------*/
FoamFile
{
    version     2.0;
    format      ascii;
    class       volScalarField;
    location    "900";
    object      nut;
}
// * * * * * * * * * * * * * * * * * * * * * * * * * * * * * * * * * * * * * //

dimensions      [0 2 -1 0 0 0 0];

internalField   nonuniform List<scalar> 
7320
(
0.000286299
0.000273847
0.000266049
0.000260783
0.000256941
0.000253973
0.00025158
0.000249592
0.000247905
0.000246449
0.000245176
0.000244051
0.000243048
0.000242148
0.000241334
0.000240596
0.000239922
0.000239306
0.000238739
0.000238217
0.000237735
0.000237288
0.000236874
0.000236489
0.000236131
0.000235797
0.000235485
0.000235194
0.000234922
0.000234667
0.000234429
0.000234206
0.000233997
0.000233801
0.000233617
0.000233445
0.000233284
0.000233132
0.000232991
0.000232858
0.000232734
0.000232618
0.00023251
0.000232409
0.000232315
0.000232227
0.000232146
0.000232071
0.000232001
0.000231936
0.000231877
0.000231823
0.000231773
0.000231728
0.000231687
0.00023165
0.000231617
0.000231588
0.000231562
0.00023154
0.000231522
0.000231506
0.000231494
0.000231485
0.000231479
0.000231475
0.000231475
0.000231476
0.000231481
0.000231488
0.000231497
0.000231509
0.000231523
0.000231539
0.000231557
0.000231578
0.0002316
0.000231624
0.000231649
0.000231676
0.000231705
0.000231735
0.000231766
0.000231798
0.000231832
0.000231866
0.000231902
0.000231938
0.000231975
0.000232013
0.000232051
0.00023209
0.00023213
0.000232171
0.000232212
0.000232254
0.000232297
0.000232341
0.000232386
0.000232431
0.000232478
0.000232525
0.000232574
0.000232624
0.000232675
0.000232728
0.000232782
0.000232837
0.000232894
0.000232952
0.000233012
0.000233073
0.000233136
0.0002332
0.000233266
0.000233333
0.000233402
0.000233472
0.000233543
0.000233616
0.000233688
0.000233762
0.000562815
0.000740638
0.000767571
0.000767651
0.000763096
0.000757975
0.000753148
0.000748779
0.000744861
0.00074135
0.000738193
0.000735345
0.000732764
0.000730416
0.000728271
0.000726307
0.000724501
0.000722838
0.000721301
0.000719879
0.00071856
0.000717334
0.000716194
0.000715131
0.00071414
0.000713215
0.00071235
0.000711541
0.000710784
0.000710076
0.000709412
0.00070879
0.000708208
0.000707662
0.000707151
0.000706672
0.000706223
0.000705803
0.000705411
0.000705044
0.000704701
0.000704381
0.000704083
0.000703806
0.000703548
0.000703309
0.000703088
0.000702884
0.000702696
0.000702524
0.000702367
0.000702223
0.000702093
0.000701977
0.000701872
0.00070178
0.000701698
0.000701628
0.000701568
0.000701519
0.000701479
0.000701448
0.000701426
0.000701413
0.000701409
0.000701413
0.000701426
0.000701446
0.000701474
0.000701509
0.000701553
0.000701605
0.000701664
0.00070173
0.000701804
0.000701884
0.000701971
0.000702064
0.000702162
0.000702266
0.000702373
0.000702484
0.000702597
0.000702713
0.00070283
0.000702947
0.000703065
0.000703181
0.000703296
0.00070341
0.000703521
0.00070363
0.000703736
0.00070384
0.000703941
0.000704039
0.000704136
0.000704231
0.000704324
0.000704418
0.000704511
0.000704605
0.000704702
0.0007048
0.000704903
0.00070501
0.000705123
0.000705242
0.000705369
0.000705504
0.000705649
0.000705804
0.00070597
0.000706148
0.000706339
0.000706542
0.000706759
0.00070699
0.000707235
0.000707495
0.000707769
0.000708043
0.00076108
0.00115457
0.00127125
0.00130573
0.00131552
0.00131688
0.00131508
0.00131204
0.00130855
0.00130497
0.00130147
0.00129811
0.00129493
0.00129193
0.00128913
0.0012865
0.00128405
0.00128176
0.00127961
0.00127761
0.00127574
0.00127398
0.00127234
0.0012708
0.00126936
0.00126801
0.00126674
0.00126555
0.00126444
0.0012634
0.00126242
0.0012615
0.00126064
0.00125983
0.00125908
0.00125837
0.00125771
0.0012571
0.00125652
0.00125599
0.00125549
0.00125502
0.00125459
0.0012542
0.00125383
0.00125349
0.00125318
0.0012529
0.00125264
0.0012524
0.00125219
0.00125201
0.00125184
0.00125169
0.00125157
0.00125146
0.00125137
0.0012513
0.00125124
0.0012512
0.00125118
0.00125117
0.00125117
0.00125119
0.00125122
0.00125127
0.00125133
0.00125141
0.00125149
0.0012516
0.00125171
0.00125184
0.00125199
0.00125215
0.00125232
0.0012525
0.0012527
0.0012529
0.00125311
0.00125333
0.00125356
0.00125379
0.00125402
0.00125425
0.00125448
0.0012547
0.00125492
0.00125512
0.00125532
0.00125551
0.00125568
0.00125585
0.001256
0.00125613
0.00125626
0.00125637
0.00125648
0.00125657
0.00125666
0.00125675
0.00125683
0.00125691
0.00125699
0.00125709
0.00125719
0.0012573
0.00125743
0.00125758
0.00125775
0.00125795
0.00125817
0.00125843
0.00125872
0.00125905
0.00125942
0.00125983
0.00126028
0.00126077
0.00126132
0.0012619
0.00126254
0.00126318
0.00094219
0.00154866
0.00180331
0.00190635
0.0019512
0.00197187
0.00198147
0.00198555
0.00198668
0.00198617
0.00198472
0.00198276
0.00198051
0.00197813
0.00197571
0.00197331
0.00197095
0.00196867
0.00196648
0.00196438
0.00196238
0.00196047
0.00195867
0.00195695
0.00195534
0.00195381
0.00195237
0.00195101
0.00194973
0.00194852
0.00194739
0.00194633
0.00194534
0.0019444
0.00194353
0.00194272
0.00194196
0.00194125
0.0019406
0.00193999
0.00193943
0.00193891
0.00193844
0.001938
0.00193761
0.00193725
0.00193693
0.00193664
0.00193639
0.00193616
0.00193597
0.00193581
0.00193567
0.00193556
0.00193548
0.00193542
0.00193539
0.00193538
0.00193539
0.00193542
0.00193547
0.00193555
0.00193564
0.00193575
0.00193588
0.00193603
0.00193621
0.0019364
0.00193661
0.00193684
0.00193709
0.00193736
0.00193765
0.00193797
0.00193831
0.00193866
0.00193903
0.00193941
0.00193981
0.00194021
0.00194062
0.00194103
0.00194144
0.00194184
0.00194223
0.00194261
0.00194297
0.0019433
0.00194361
0.0019439
0.00194415
0.00194438
0.00194457
0.00194474
0.00194488
0.001945
0.00194509
0.00194516
0.00194521
0.00194526
0.00194529
0.00194533
0.00194537
0.00194543
0.0019455
0.0019456
0.00194574
0.00194591
0.00194612
0.0019464
0.00194673
0.00194712
0.00194759
0.00194813
0.00194876
0.00194947
0.00195027
0.00195117
0.00195216
0.00195324
0.00195444
0.00195564
0.00110978
0.00189233
0.00232606
0.0025368
0.00264438
0.00270313
0.00273713
0.00275765
0.00277031
0.00277817
0.00278296
0.00278574
0.00278718
0.00278769
0.00278758
0.00278703
0.00278618
0.00278514
0.00278397
0.00278273
0.00278144
0.00278014
0.00277885
0.00277758
0.00277634
0.00277515
0.002774
0.0027729
0.00277185
0.00277085
0.00276991
0.00276903
0.0027682
0.00276742
0.00276669
0.00276602
0.0027654
0.00276483
0.00276431
0.00276383
0.0027634
0.00276302
0.00276268
0.00276238
0.00276212
0.0027619
0.00276172
0.00276157
0.00276146
0.00276139
0.00276135
0.00276134
0.00276137
0.00276142
0.0027615
0.00276161
0.00276175
0.00276192
0.0027621
0.00276232
0.00276255
0.00276281
0.0027631
0.0027634
0.00276373
0.00276409
0.00276447
0.00276487
0.0027653
0.00276575
0.00276623
0.00276675
0.00276729
0.00276785
0.00276845
0.00276907
0.00276971
0.00277037
0.00277105
0.00277173
0.00277242
0.0027731
0.00277377
0.00277443
0.00277506
0.00277567
0.00277624
0.00277676
0.00277725
0.00277768
0.00277806
0.00277839
0.00277866
0.00277888
0.00277905
0.00277917
0.00277925
0.00277929
0.0027793
0.00277929
0.00277927
0.00277924
0.00277923
0.00277923
0.00277926
0.00277933
0.00277945
0.00277964
0.00277991
0.00278027
0.00278072
0.00278129
0.00278198
0.00278279
0.00278375
0.00278485
0.00278611
0.00278752
0.0027891
0.00279085
0.00279278
0.00279473
0.00129926
0.00216764
0.00280717
0.00316585
0.00336954
0.00349116
0.00356775
0.00361825
0.00365279
0.00367709
0.00369457
0.00370734
0.00371679
0.00372385
0.00372913
0.0037331
0.00373607
0.00373829
0.00373993
0.00374111
0.00374196
0.00374253
0.0037429
0.00374312
0.00374321
0.00374322
0.00374316
0.00374305
0.00374291
0.00374276
0.0037426
0.00374244
0.00374229
0.00374216
0.00374203
0.00374194
0.00374186
0.00374181
0.00374178
0.00374179
0.00374182
0.00374189
0.00374198
0.00374211
0.00374226
0.00374245
0.00374267
0.00374292
0.0037432
0.0037435
0.00374384
0.0037442
0.0037446
0.00374502
0.00374547
0.00374594
0.00374644
0.00374696
0.0037475
0.00374807
0.00374866
0.00374928
0.00374991
0.00375057
0.00375126
0.00375197
0.0037527
0.00375347
0.00375426
0.00375508
0.00375594
0.00375683
0.00375776
0.00375872
0.00375972
0.00376074
0.0037618
0.00376287
0.00376397
0.00376507
0.00376617
0.00376726
0.00376833
0.00376937
0.00377037
0.00377132
0.00377222
0.00377305
0.0037738
0.00377448
0.00377507
0.00377557
0.00377599
0.00377632
0.00377657
0.00377674
0.00377684
0.00377688
0.00377686
0.00377681
0.00377672
0.00377663
0.00377654
0.00377648
0.00377645
0.00377647
0.00377658
0.00377678
0.00377708
0.00377752
0.00377811
0.00377886
0.00377979
0.00378091
0.00378225
0.0037838
0.00378558
0.00378761
0.00378989
0.00379241
0.00379523
0.00379806
0.00158937
0.00236976
0.00321596
0.00375923
0.00409609
0.00431112
0.00445413
0.00455312
0.00462407
0.00467641
0.00471597
0.00474649
0.00477044
0.00478951
0.00480489
0.00481744
0.00482777
0.00483636
0.00484356
0.00484964
0.00485482
0.00485926
0.00486309
0.00486643
0.00486936
0.00487194
0.00487424
0.0048763
0.00487816
0.00487986
0.00488143
0.00488288
0.00488423
0.00488551
0.00488672
0.00488789
0.00488901
0.00489009
0.00489115
0.0048922
0.00489323
0.00489425
0.00489526
0.00489627
0.00489729
0.00489831
0.00489933
0.00490037
0.00490141
0.00490246
0.00490353
0.00490461
0.0049057
0.00490681
0.00490793
0.00490907
0.00491021
0.00491138
0.00491256
0.00491375
0.00491495
0.00491618
0.00491741
0.00491867
0.00491994
0.00492124
0.00492256
0.0049239
0.00492528
0.00492668
0.00492813
0.00492961
0.00493113
0.00493269
0.00493429
0.00493593
0.00493759
0.00493929
0.004941
0.00494271
0.00494442
0.00494612
0.00494778
0.0049494
0.00495095
0.00495244
0.00495383
0.00495513
0.00495632
0.00495738
0.00495833
0.00495914
0.00495982
0.00496037
0.00496079
0.00496109
0.00496128
0.00496137
0.00496137
0.0049613
0.00496119
0.00496104
0.00496088
0.00496074
0.00496065
0.00496061
0.00496068
0.00496086
0.00496119
0.00496169
0.00496239
0.00496331
0.00496447
0.00496591
0.00496763
0.00496966
0.00497201
0.00497471
0.00497775
0.00498114
0.00498495
0.00498878
0.00212976
0.0025187
0.00352583
0.00427893
0.00478634
0.00512981
0.00536872
0.00554022
0.00566706
0.00576335
0.00583815
0.00589739
0.00594512
0.00598413
0.00601645
0.00604352
0.00606643
0.00608601
0.00610287
0.00611753
0.00613035
0.00614164
0.00615166
0.00616061
0.00616864
0.00617589
0.00618248
0.00618849
0.00619402
0.00619911
0.00620384
0.00620825
0.00621238
0.00621626
0.00621993
0.00622341
0.00622672
0.0062299
0.00623294
0.00623588
0.00623872
0.00624147
0.00624414
0.00624675
0.00624931
0.00625181
0.00625427
0.00625668
0.00625907
0.00626143
0.00626376
0.00626607
0.00626837
0.00627064
0.00627291
0.00627516
0.0062774
0.00627963
0.00628186
0.00628407
0.00628629
0.0062885
0.00629071
0.00629292
0.00629513
0.00629736
0.0062996
0.00630185
0.00630413
0.00630644
0.00630877
0.00631115
0.00631356
0.00631602
0.00631851
0.00632105
0.00632362
0.00632622
0.00632883
0.00633145
0.00633405
0.00633663
0.00633916
0.00634162
0.006344
0.00634627
0.00634842
0.00635043
0.00635228
0.00635397
0.00635548
0.00635679
0.00635792
0.00635886
0.00635961
0.00636018
0.00636058
0.00636082
0.00636093
0.00636093
0.00636083
0.00636066
0.00636047
0.00636027
0.00636011
0.00636001
0.00636002
0.00636016
0.00636048
0.00636101
0.00636179
0.00636285
0.00636423
0.00636595
0.00636805
0.00637055
0.00637348
0.00637687
0.00638072
0.00638504
0.00638992
0.00639484
0.0031541
0.00268382
0.00372393
0.00468584
0.00539542
0.00590413
0.0062731
0.00654666
0.00675434
0.00691556
0.00704326
0.00714624
0.00723059
0.00730064
0.00735953
0.00740958
0.00745254
0.00748974
0.00752221
0.00755076
0.00757604
0.00759856
0.00761874
0.00763694
0.00765342
0.00766842
0.00768215
0.00769477
0.00770641
0.00771719
0.00772723
0.0077366
0.00774538
0.00775364
0.00776144
0.00776882
0.00777583
0.0077825
0.00778887
0.00779498
0.00780084
0.00780649
0.00781193
0.0078172
0.0078223
0.00782726
0.00783208
0.00783678
0.00784137
0.00784586
0.00785026
0.00785457
0.00785881
0.00786297
0.00786707
0.00787111
0.0078751
0.00787903
0.00788291
0.00788675
0.00789055
0.00789431
0.00789803
0.00790173
0.0079054
0.00790906
0.00791271
0.00791636
0.00792001
0.00792366
0.00792734
0.00793105
0.00793479
0.00793857
0.00794238
0.00794623
0.00795012
0.00795402
0.00795794
0.00796186
0.00796575
0.0079696
0.00797338
0.00797707
0.00798064
0.00798407
0.00798733
0.00799041
0.00799326
0.00799589
0.00799827
0.00800039
0.00800224
0.00800383
0.00800514
0.0080062
0.00800701
0.00800759
0.00800796
0.00800814
0.00800818
0.00800809
0.00800793
0.00800773
0.00800753
0.00800738
0.00800734
0.00800743
0.00800773
0.00800826
0.00800909
0.00801026
0.00801181
0.00801379
0.00801624
0.0080192
0.0080227
0.00802678
0.00803146
0.00803675
0.00804276
0.00804882
0.00493181
0.00302612
0.0038337
0.00494834
0.00587406
0.00658116
0.00711649
0.00752622
0.00784508
0.00809766
0.00830115
0.00846767
0.00860586
0.00872199
0.00882068
0.0089054
0.00897879
0.0090429
0.00909931
0.00914929
0.00919386
0.00923384
0.00926988
0.00930254
0.00933229
0.00935949
0.00938447
0.00940751
0.00942883
0.00944864
0.00946709
0.00948435
0.00950053
0.00951576
0.00953012
0.0095437
0.00955658
0.00956883
0.00958049
0.00959164
0.00960231
0.00961254
0.00962238
0.00963185
0.00964099
0.00964982
0.00965837
0.00966667
0.00967472
0.00968255
0.00969018
0.00969763
0.00970489
0.009712
0.00971895
0.00972576
0.00973244
0.00973899
0.00974543
0.00975175
0.00975797
0.0097641
0.00977013
0.00977608
0.00978196
0.00978778
0.00979355
0.00979928
0.00980497
0.00981064
0.00981631
0.00982198
0.00982766
0.00983337
0.00983909
0.00984485
0.00985062
0.00985641
0.0098622
0.00986797
0.0098737
0.00987936
0.00988493
0.00989038
0.00989567
0.00990077
0.00990564
0.00991026
0.0099146
0.00991863
0.00992232
0.00992567
0.00992865
0.00993126
0.00993351
0.00993538
0.00993691
0.00993811
0.00993899
0.0099396
0.00993997
0.00994014
0.00994017
0.00994008
0.00993996
0.00993984
0.0099398
0.0099399
0.00994019
0.00994074
0.00994161
0.00994287
0.00994458
0.0099468
0.00994957
0.00995297
0.00995702
0.00996179
0.00996731
0.00997359
0.00998077
0.00998801
0.00765447
0.00384129
0.0039599
0.0050637
0.00617752
0.00710148
0.0078361
0.00841791
0.00888249
0.00925803
0.00956562
0.00982082
0.0100351
0.0102171
0.0103732
0.0105082
0.0106262
0.0107298
0.0108217
0.0109035
0.0109768
0.0110429
0.0111028
0.0111573
0.011207
0.0112527
0.0112948
0.0113337
0.0113697
0.0114033
0.0114346
0.0114639
0.0114914
0.0115173
0.0115417
0.0115648
0.0115867
0.0116075
0.0116273
0.0116462
0.0116642
0.0116815
0.011698
0.011714
0.0117293
0.011744
0.0117583
0.0117721
0.0117854
0.0117983
0.0118109
0.0118231
0.0118349
0.0118465
0.0118578
0.0118688
0.0118795
0.01189
0.0119003
0.0119103
0.0119202
0.0119298
0.0119393
0.0119486
0.0119578
0.0119668
0.0119757
0.0119845
0.0119932
0.0120018
0.0120104
0.0120189
0.0120274
0.0120359
0.0120444
0.0120529
0.0120614
0.0120699
0.0120783
0.0120867
0.012095
0.0121033
0.0121114
0.0121193
0.012127
0.0121345
0.0121417
0.0121485
0.012155
0.0121611
0.0121667
0.0121719
0.0121766
0.0121808
0.0121845
0.0121877
0.0121904
0.0121927
0.0121945
0.0121959
0.012197
0.0121977
0.0121982
0.0121985
0.0121986
0.0121987
0.0121989
0.0121991
0.0121995
0.0122001
0.0122011
0.0122025
0.0122044
0.0122068
0.01221
0.0122138
0.0122184
0.0122238
0.0122302
0.0122375
0.0122459
0.0122543
0.0113266
0.00551803
0.00435849
0.00510578
0.00628855
0.00740978
0.00836168
0.0091471
0.00979278
0.0103264
0.0107711
0.0111453
0.0114634
0.0117362
0.0119723
0.0121782
0.0123592
0.0125193
0.0126619
0.0127896
0.0129046
0.0130086
0.0131032
0.0131896
0.0132687
0.0133415
0.0134088
0.013471
0.0135289
0.0135828
0.0136332
0.0136805
0.0137248
0.0137666
0.013806
0.0138433
0.0138786
0.0139122
0.0139441
0.0139745
0.0140035
0.0140313
0.0140579
0.0140835
0.014108
0.0141316
0.0141544
0.0141763
0.0141975
0.014218
0.0142379
0.0142572
0.0142759
0.014294
0.0143117
0.0143289
0.0143456
0.0143619
0.0143779
0.0143934
0.0144086
0.0144235
0.014438
0.0144523
0.0144663
0.01448
0.0144935
0.0145067
0.0145198
0.0145328
0.0145455
0.0145582
0.0145708
0.0145833
0.0145957
0.0146081
0.0146204
0.0146326
0.0146448
0.0146569
0.0146689
0.0146808
0.0146924
0.0147039
0.014715
0.0147259
0.0147363
0.0147463
0.0147559
0.0147649
0.0147734
0.0147812
0.0147885
0.0147951
0.014801
0.0148063
0.0148109
0.0148149
0.0148183
0.0148211
0.0148234
0.0148252
0.0148266
0.0148277
0.0148285
0.0148292
0.0148298
0.0148304
0.0148312
0.0148321
0.0148334
0.014835
0.0148372
0.01484
0.0148436
0.0148479
0.0148531
0.0148593
0.0148665
0.0148748
0.0148844
0.0148941
0.0157248
0.0083437
0.00547916
0.00531275
0.00627167
0.00748282
0.00862975
0.00963244
0.0104877
0.0112134
0.0118305
0.0123582
0.0128125
0.0132064
0.0135503
0.0138528
0.0141205
0.0143588
0.0145721
0.0147641
0.0149377
0.0150955
0.0152394
0.0153712
0.0154923
0.0156041
0.0157075
0.0158035
0.0158929
0.0159763
0.0160543
0.0161275
0.0161964
0.0162612
0.0163225
0.0163804
0.0164354
0.0164875
0.0165372
0.0165845
0.0166296
0.0166728
0.0167141
0.0167537
0.0167917
0.0168283
0.0168635
0.0168974
0.0169301
0.0169617
0.0169923
0.0170219
0.0170505
0.0170783
0.0171053
0.0171315
0.017157
0.0171819
0.017206
0.0172296
0.0172526
0.017275
0.0172969
0.0173183
0.0173392
0.0173597
0.0173798
0.0173996
0.017419
0.0174381
0.0174569
0.0174755
0.0174939
0.017512
0.0175301
0.017548
0.0175657
0.0175833
0.0176008
0.0176181
0.0176352
0.0176521
0.0176687
0.0176851
0.017701
0.0177166
0.0177316
0.0177461
0.01776
0.0177732
0.0177858
0.0177975
0.0178085
0.0178186
0.0178279
0.0178363
0.0178438
0.0178505
0.0178564
0.0178616
0.017866
0.0178697
0.0178728
0.0178754
0.0178776
0.0178794
0.0178811
0.0178826
0.0178841
0.0178858
0.0178877
0.0178899
0.0178927
0.017896
0.0179002
0.0179051
0.017911
0.0179181
0.0179262
0.0179356
0.0179465
0.0179574
0.0204365
0.0122987
0.00781877
0.0061763
0.00638132
0.00739745
0.00862145
0.00980678
0.0108762
0.0118169
0.0126375
0.0133529
0.0139782
0.0145273
0.0150118
0.0154416
0.0158248
0.0161683
0.0164775
0.0167573
0.0170115
0.0172433
0.0174556
0.0176506
0.0178304
0.0179968
0.018151
0.0182945
0.0184284
0.0185535
0.0186708
0.018781
0.0188847
0.0189825
0.0190749
0.0191624
0.0192454
0.0193243
0.0193994
0.0194709
0.0195391
0.0196044
0.0196668
0.0197267
0.0197841
0.0198393
0.0198924
0.0199436
0.0199928
0.0200404
0.0200864
0.0201308
0.0201738
0.0202155
0.0202559
0.0202952
0.0203332
0.0203703
0.0204063
0.0204413
0.0204755
0.0205087
0.0205412
0.0205728
0.0206037
0.020634
0.0206635
0.0206925
0.0207209
0.0207488
0.0207763
0.0208033
0.0208299
0.0208561
0.0208821
0.0209077
0.0209331
0.0209582
0.0209831
0.0210077
0.0210319
0.0210559
0.0210794
0.0211026
0.0211252
0.0211473
0.0211688
0.0211896
0.0212096
0.0212288
0.021247
0.0212644
0.0212807
0.0212959
0.0213101
0.0213232
0.0213352
0.021346
0.0213558
0.0213646
0.0213724
0.0213792
0.0213852
0.0213904
0.021395
0.021399
0.0214025
0.0214058
0.0214089
0.0214119
0.0214151
0.0214185
0.0214224
0.0214267
0.0214318
0.0214378
0.0214447
0.0214527
0.021462
0.0214727
0.021485
0.0214971
0.024966
0.017029
0.011559
0.0083344
0.00718515
0.00746836
0.008455
0.00967289
0.0108973
0.0120408
0.0130773
0.0140053
0.014833
0.0155712
0.0162309
0.0168222
0.0173542
0.0178345
0.01827
0.0186661
0.0190279
0.0193593
0.0196641
0.0199451
0.020205
0.0204461
0.0206704
0.0208795
0.0210749
0.021258
0.0214298
0.0215915
0.0217439
0.0218878
0.022024
0.022153
0.0222755
0.022392
0.0225028
0.0226086
0.0227095
0.022806
0.0228983
0.0229869
0.0230718
0.0231534
0.0232319
0.0233075
0.0233803
0.0234505
0.0235184
0.0235839
0.0236473
0.0237087
0.0237682
0.0238259
0.0238819
0.0239362
0.023989
0.0240404
0.0240904
0.024139
0.0241864
0.0242326
0.0242777
0.0243217
0.0243647
0.0244068
0.024448
0.0244883
0.0245279
0.0245668
0.024605
0.0246426
0.0246797
0.0247162
0.0247523
0.0247879
0.0248231
0.0248578
0.024892
0.0249257
0.0249589
0.0249915
0.0250234
0.0250546
0.025085
0.0251145
0.0251431
0.0251706
0.025197
0.0252222
0.0252461
0.0252687
0.02529
0.0253099
0.0253284
0.0253454
0.0253611
0.0253754
0.0253884
0.0254002
0.0254107
0.0254202
0.0254287
0.0254363
0.0254432
0.0254495
0.0254554
0.025461
0.0254665
0.025472
0.0254778
0.025484
0.0254908
0.0254983
0.0255067
0.0255163
0.0255271
0.0255392
0.0255531
0.0255667
0.0288721
0.0219727
0.0163572
0.0121026
0.00944208
0.00839318
0.00856599
0.00943681
0.0106072
0.0118514
0.0130626
0.0141965
0.0152393
0.0161903
0.0170549
0.0178406
0.0185555
0.0192071
0.0198026
0.0203481
0.0208492
0.0213109
0.0217373
0.0221321
0.0224988
0.02284
0.0231583
0.0234559
0.0237348
0.0239966
0.024243
0.0244751
0.0246943
0.0249016
0.025098
0.0252843
0.0254613
0.0256298
0.0257904
0.0259436
0.0260899
0.0262299
0.026364
0.0264925
0.0266158
0.0267344
0.0268484
0.0269581
0.0270639
0.0271659
0.0272644
0.0273595
0.0274516
0.0275406
0.0276269
0.0277105
0.0277915
0.0278702
0.0279467
0.028021
0.0280932
0.0281635
0.0282319
0.0282985
0.0283635
0.0284269
0.0284887
0.0285491
0.0286082
0.0286661
0.0287227
0.0287782
0.0288327
0.0288862
0.0289388
0.0289906
0.0290415
0.0290918
0.0291412
0.02919
0.029238
0.0292853
0.0293317
0.0293774
0.0294221
0.0294659
0.0295087
0.0295503
0.0295907
0.0296298
0.0296675
0.0297038
0.0297385
0.0297715
0.0298029
0.0298325
0.0298604
0.0298864
0.0299108
0.0299333
0.0299542
0.0299733
0.0299909
0.030007
0.0300218
0.0300352
0.0300475
0.0300589
0.0300694
0.0300793
0.0300887
0.0300979
0.030107
0.0301163
0.0301259
0.030136
0.0301469
0.0301588
0.0301718
0.030186
0.030202
0.0302173
0.0318859
0.0265354
0.0215162
0.0170871
0.0134893
0.0110289
0.00983786
0.0097379
0.0103766
0.011418
0.0126294
0.0138773
0.0150935
0.0162465
0.0173241
0.0183239
0.0192482
0.0201018
0.0208901
0.0216189
0.0222936
0.0229193
0.0235006
0.0240417
0.0245463
0.025018
0.0254596
0.0258738
0.0262632
0.0266297
0.0269753
0.0273019
0.0276108
0.0279035
0.0281812
0.0284451
0.0286963
0.0289355
0.0291638
0.0293818
0.0295903
0.0297899
0.0299812
0.0301647
0.0303409
0.0305102
0.0306732
0.0308301
0.0309814
0.0311273
0.0312682
0.0314044
0.031536
0.0316634
0.0317868
0.0319064
0.0320223
0.0321348
0.0322441
0.0323502
0.0324534
0.0325537
0.0326514
0.0327464
0.0328391
0.0329294
0.0330175
0.0331035
0.0331875
0.0332696
0.03335
0.0334286
0.0335057
0.0335812
0.0336554
0.0337283
0.0337999
0.0338704
0.0339396
0.0340078
0.0340749
0.0341408
0.0342056
0.0342692
0.0343316
0.0343928
0.0344525
0.0345109
0.0345676
0.0346228
0.0346762
0.0347277
0.0347774
0.034825
0.0348706
0.034914
0.0349552
0.0349942
0.035031
0.0350655
0.0350979
0.035128
0.0351561
0.0351822
0.0352063
0.0352287
0.0352494
0.0352687
0.0352866
0.0353034
0.0353192
0.0353344
0.035349
0.0353633
0.0353776
0.035392
0.0354069
0.0354224
0.0354388
0.0354562
0.0354752
0.0354929
0.0339568
0.0302574
0.0262964
0.0224018
0.0187493
0.0155657
0.0131348
0.01166
0.0111401
0.0113925
0.0121663
0.0132379
0.014448
0.0156984
0.0169334
0.0181236
0.0192548
0.0203216
0.0213231
0.0222613
0.0231394
0.0239613
0.0247308
0.0254521
0.0261288
0.0267645
0.0273626
0.0279259
0.0284574
0.0289594
0.0294343
0.0298842
0.0303108
0.0307161
0.0311014
0.0314683
0.0318181
0.0321518
0.0324707
0.0327757
0.0330677
0.0333475
0.033616
0.0338738
0.0341215
0.0343599
0.0345893
0.0348104
0.0350237
0.0352295
0.0354283
0.0356204
0.0358062
0.0359861
0.0361603
0.0363292
0.0364929
0.0366518
0.0368061
0.036956
0.0371017
0.0372434
0.0373813
0.0375155
0.0376463
0.0377737
0.037898
0.0380192
0.0381375
0.0382532
0.0383662
0.0384768
0.0385851
0.038691
0.038795
0.0388969
0.0389969
0.0390952
0.0391917
0.0392866
0.0393798
0.0394713
0.0395613
0.0396496
0.0397362
0.0398211
0.0399042
0.0399854
0.0400646
0.0401417
0.0402167
0.0402894
0.0403598
0.0404276
0.0404929
0.0405555
0.0406155
0.0406727
0.0407271
0.0407787
0.0408275
0.0408735
0.0409168
0.0409575
0.0409956
0.0410313
0.0410647
0.0410959
0.0411251
0.0411525
0.0411783
0.0412028
0.0412261
0.0412485
0.0412702
0.0412915
0.0413128
0.0413341
0.0413559
0.0413782
0.0414017
0.0414233
0.0352156
0.0329264
0.0301548
0.0271692
0.0241079
0.0210828
0.0182539
0.0158401
0.0140585
0.0130304
0.012737
0.0130508
0.0138009
0.0148263
0.0160022
0.0172434
0.018496
0.0197278
0.0209204
0.0220639
0.0231539
0.024189
0.0251701
0.026099
0.026978
0.0278099
0.0285976
0.0293438
0.0300513
0.0307226
0.0313602
0.0319664
0.0325433
0.0330929
0.0336169
0.0341171
0.0345949
0.035052
0.0354894
0.0359086
0.0363106
0.0366964
0.0370671
0.0374235
0.0377664
0.0380966
0.0384149
0.0387218
0.0390181
0.0393042
0.0395808
0.0398483
0.0401071
0.0403578
0.0406007
0.0408362
0.0410647
0.0412865
0.0415019
0.0417112
0.0419147
0.0421126
0.0423052
0.0424927
0.0426753
0.0428533
0.0430269
0.0431962
0.0433614
0.0435228
0.0436805
0.0438347
0.0439855
0.0441331
0.0442777
0.0444193
0.0445582
0.0446945
0.0448282
0.0449595
0.0450884
0.0452149
0.0453392
0.0454611
0.0455807
0.045698
0.0458128
0.0459252
0.0460351
0.0461423
0.0462467
0.0463483
0.046447
0.0465426
0.046635
0.0467242
0.04681
0.0468925
0.0469715
0.047047
0.047119
0.0471874
0.0472524
0.047314
0.0473723
0.0474272
0.047479
0.0475279
0.0475738
0.0476171
0.047658
0.0476965
0.0477331
0.0477679
0.0478012
0.0478333
0.0478645
0.047895
0.0479252
0.0479552
0.0479858
0.0480135
0.0358864
0.034593
0.0328633
0.0308401
0.0286213
0.0262674
0.0238358
0.0214144
0.0191386
0.0171788
0.0156958
0.0147878
0.0144645
0.0146594
0.0152639
0.0161609
0.0172464
0.01844
0.0196844
0.0209414
0.0221859
0.0234025
0.0245816
0.025718
0.0268092
0.0278544
0.0288542
0.0298095
0.0307222
0.0315938
0.0324266
0.0332223
0.0339831
0.0347108
0.0354074
0.0360744
0.0367138
0.037327
0.0379154
0.0384806
0.0390239
0.0395464
0.0400492
0.0405335
0.0410003
0.0414505
0.041885
0.0423045
0.0427099
0.043102
0.0434812
0.0438484
0.044204
0.0445486
0.0448829
0.0452071
0.0455219
0.0458276
0.0461246
0.0464134
0.0466943
0.0469676
0.0472336
0.0474927
0.0477452
0.0479912
0.0482312
0.0484653
0.0486938
0.0489169
0.049135
0.0493481
0.0495565
0.0497604
0.0499601
0.0501555
0.050347
0.0505347
0.0507189
0.0508995
0.0510767
0.0512506
0.0514213
0.0515888
0.0517531
0.0519141
0.052072
0.0522266
0.0523779
0.0525258
0.0526702
0.0528111
0.0529482
0.0530815
0.0532109
0.0533363
0.0534576
0.0535747
0.0536875
0.053796
0.0539001
0.0539998
0.0540951
0.054186
0.0542726
0.0543549
0.0544331
0.0545071
0.0545773
0.0546437
0.0547065
0.0547659
0.0548221
0.0548755
0.0549262
0.0549746
0.055021
0.0550655
0.0551087
0.0551507
0.0551923
0.0552297
0.0361963
0.0354884
0.0345011
0.0332718
0.0318469
0.0302605
0.0285351
0.0266917
0.024764
0.0228124
0.0209309
0.0192398
0.0178631
0.0168966
0.0163857
0.0163216
0.0166534
0.0173069
0.0182017
0.0192644
0.020434
0.0216643
0.0229216
0.0241827
0.0254314
0.0266568
0.0278519
0.0290123
0.0301354
0.0312203
0.0322666
0.0332747
0.0342455
0.03518
0.0360794
0.0369452
0.0377787
0.0385814
0.0393546
0.0400998
0.0408182
0.041511
0.0421797
0.0428252
0.0434487
0.0440513
0.044634
0.0451976
0.0457432
0.0462716
0.0467835
0.0472797
0.0477609
0.0482278
0.0486811
0.0491213
0.049549
0.0499648
0.0503691
0.0507625
0.0511454
0.0515181
0.0518813
0.0522351
0.05258
0.0529164
0.0532446
0.0535648
0.0538775
0.054183
0.0544814
0.0547732
0.0550585
0.0553377
0.0556109
0.0558785
0.0561406
0.0563973
0.0566489
0.0568957
0.0571378
0.0573753
0.0576083
0.0578369
0.0580611
0.058281
0.0584967
0.058708
0.058915
0.0591175
0.0593157
0.0595092
0.0596981
0.0598823
0.0600615
0.0602358
0.0604051
0.0605691
0.0607278
0.0608812
0.0610291
0.0611716
0.0613085
0.0614399
0.0615657
0.0616861
0.0618009
0.0619105
0.0620147
0.0621138
0.0622079
0.0622972
0.0623819
0.0624623
0.0625385
0.0626109
0.0626797
0.0627454
0.0628082
0.0628683
0.0629267
0.0629794
0.0363185
0.0358964
0.035342
0.0346443
0.0338099
0.0328502
0.0317745
0.0305881
0.0292942
0.0278982
0.0264145
0.0248739
0.0233287
0.0218531
0.0205352
0.0194615
0.0187
0.018288
0.0182293
0.0184992
0.0190539
0.0198402
0.020804
0.0218958
0.0230737
0.0243048
0.0255638
0.0268322
0.0280965
0.0293469
0.0305766
0.0317807
0.0329559
0.0341003
0.0352127
0.0362927
0.0373403
0.0383559
0.03934
0.0402934
0.041217
0.0421116
0.0429782
0.0438179
0.0446317
0.0454205
0.0461853
0.0469272
0.0476469
0.0483454
0.0490235
0.0496821
0.0503219
0.0509438
0.0515484
0.0521364
0.0527086
0.0532654
0.0538076
0.0543357
0.0548503
0.0553518
0.0558407
0.0563176
0.0567828
0.0572369
0.0576801
0.058113
0.0585359
0.0589492
0.0593532
0.0597483
0.0601349
0.0605131
0.0608835
0.0612461
0.0616014
0.0619495
0.0622907
0.0626251
0.0629531
0.0632749
0.0635905
0.0639002
0.0642041
0.0645022
0.0647945
0.0650812
0.0653622
0.0656375
0.0659071
0.0661708
0.0664287
0.0666806
0.0669264
0.0671659
0.0673992
0.0676261
0.0678464
0.0680601
0.068267
0.0684671
0.0686602
0.0688465
0.0690257
0.0691979
0.0693631
0.0695213
0.0696727
0.0698171
0.0699549
0.0700861
0.0702108
0.0703294
0.070442
0.0705489
0.0706503
0.0707466
0.0708381
0.0709252
0.0710087
0.0710845
0.0363591
0.0360515
0.0357024
0.0352937
0.0348163
0.0342669
0.0336458
0.0329534
0.032189
0.0313505
0.0304344
0.0294384
0.0283636
0.0272185
0.0260225
0.0248094
0.0236274
0.0225355
0.0215963
0.0208663
0.020387
0.0201807
0.0202495
0.0205783
0.0211397
0.021899
0.0228189
0.0238634
0.0249997
0.0262001
0.0274421
0.0287078
0.0299836
0.0312592
0.0325266
0.0337799
0.0350147
0.0362278
0.0374167
0.0385799
0.0397163
0.0408256
0.0419075
0.0429622
0.0439899
0.044991
0.045966
0.0469156
0.0478402
0.0487406
0.0496176
0.0504716
0.0513037
0.0521143
0.0529043
0.0536743
0.054425
0.055157
0.0558711
0.0565677
0.0572475
0.057911
0.0585588
0.0591914
0.0598093
0.0604131
0.0610032
0.06158
0.0621441
0.0626958
0.0632356
0.0637639
0.064281
0.0647874
0.0652834
0.0657694
0.0662456
0.0667124
0.0671702
0.067619
0.0680593
0.0684911
0.0689148
0.0693306
0.0697387
0.0701392
0.0705321
0.0709177
0.0712958
0.0716666
0.07203
0.072386
0.0727346
0.0730756
0.0734089
0.0737346
0.0740523
0.0743621
0.0746638
0.0749573
0.0752424
0.075519
0.0757871
0.0760464
0.076297
0.0765387
0.0767715
0.0769954
0.0772104
0.0774165
0.0776138
0.0778023
0.0779822
0.0781536
0.0783168
0.0784719
0.0786192
0.078759
0.0788917
0.0790175
0.0791374
0.0792476
0.0363702
0.0360998
0.0358287
0.035546
0.0352425