/*--------------------------------*- C++ -*----------------------------------*\
  =========                 |
  \\      /  F ield         | OpenFOAM: The Open Source CFD Toolbox
   \\    /   O peration     | Website:  https://openfoam.org
    \\  /    A nd           | Version:  8
     \\/     M anipulation  |
\*---------------------------------------------------------------------------*/
FoamFile
{
    version     2.0;
    format      ascii;
    class       volScalarField;
    location    "900";
    object      p;
}
// * * * * * * * * * * * * * * * * * * * * * * * * * * * * * * * * * * * * * //

dimensions      [0 2 -2 0 0 0 0];

internalField   nonuniform List<scalar> 
7320
(
159.466
153.609
151.699
149.915
148.206
146.51
144.846
143.222
141.63
140.064
138.52
136.996
135.491
134.002
132.528
131.068
129.62
128.185
126.76
125.346
123.942
122.546
121.16
119.781
118.41
117.047
115.69
114.34
112.997
111.66
110.328
109.003
107.682
106.367
105.057
103.752
102.451
101.155
99.8636
98.5762
97.2928
96.0133
94.7377
93.4658
92.1975
90.9328
89.6714
88.4133
87.1585
85.9068
84.6581
83.4124
82.1696
80.9297
79.6924
78.4579
77.226
75.9966
74.7697
73.5453
72.3232
71.1035
69.886
68.6708
67.4577
66.2467
65.0379
63.831
62.6261
61.4232
60.2222
59.023
57.8256
56.63
55.4361
54.2439
53.0533
51.8643
50.6769
49.4911
48.3067
47.1238
45.9424
44.7624
43.5837
42.4064
41.2303
40.0556
38.8821
37.7098
36.5388
35.3689
34.2001
33.0324
31.8657
30.7001
29.5355
28.3718
27.209
26.0471
24.886
23.7256
22.5659
21.4069
20.2485
19.0907
17.9333
16.7764
15.6198
14.4635
13.3074
12.1516
10.9958
9.84006
8.68428
7.52838
6.37231
5.21598
4.05926
2.90253
1.74387
0.599025
158.668
153.596
151.7
149.915
148.206
146.51
144.846
143.222
141.63
140.064
138.52
136.996
135.491
134.002
132.528
131.068
129.62
128.185
126.76
125.346
123.942
122.546
121.16
119.781
118.41
117.047
115.69
114.34
112.997
111.66
110.328
109.003
107.682
106.367
105.057
103.752
102.451
101.155
99.8636
98.5762
97.2928
96.0133
94.7377
93.4658
92.1975
90.9328
89.6714
88.4133
87.1585
85.9068
84.6581
83.4124
82.1696
80.9297
79.6924
78.4579
77.226
75.9966
74.7697
73.5453
72.3232
71.1035
69.886
68.6708
67.4577
66.2467
65.0379
63.831
62.6261
61.4232
60.2222
59.023
57.8256
56.63
55.4361
54.2439
53.0533
51.8643
50.6769
49.4911
48.3067
47.1238
45.9424
44.7624
43.5837
42.4064
41.2303
40.0556
38.8821
37.7098
36.5388
35.3689
34.2001
33.0324
31.8657
30.7001
29.5355
28.3718
27.209
26.0471
24.886
23.7256
22.5659
21.4069
20.2485
19.0907
17.9333
16.7763
15.6198
14.4635
13.3074
12.1516
10.9958
9.84006
8.68427
7.52837
6.3723
5.21598
4.05925
2.90253
1.74386
0.599023
158.463
153.602
151.701
149.916
148.206
146.511
144.847
143.222
141.63
140.064
138.52
136.996
135.491
134.002
132.528
131.068
129.621
128.185
126.76
125.346
123.942
122.546
121.16
119.781
118.41
117.047
115.69
114.34
112.997
111.66
110.328
109.003
107.682
106.367
105.057
103.752
102.451
101.155
99.8637
98.5762
97.2928
96.0133
94.7377
93.4658
92.1975
90.9328
89.6714
88.4133
87.1585
85.9068
84.6581
83.4124
82.1696
80.9297
79.6924
78.4579
77.226
75.9966
74.7697
73.5453
72.3232
71.1035
69.886
68.6708
67.4577
66.2467
65.0379
63.831
62.6261
61.4232
60.2222
59.023
57.8256
56.63
55.4361
54.2439
53.0533
51.8643
50.6769
49.4911
48.3067
47.1238
45.9424
44.7624
43.5837
42.4063
41.2303
40.0556
38.8821
37.7098
36.5387
35.3689
34.2001
33.0324
31.8657
30.7001
29.5355
28.3718
27.209
26.0471
24.886
23.7256
22.5659
21.4069
20.2485
19.0907
17.9333
16.7763
15.6198
14.4635
13.3074
12.1516
10.9958
9.84005
8.68427
7.52837
6.3723
5.21597
4.05924
2.90252
1.74385
0.599019
158.449
153.609
151.703
149.917
148.207
146.511
144.847
143.223
141.631
140.064
138.52
136.997
135.491
134.002
132.528
131.068
129.621
128.185
126.761
125.346
123.942
122.546
121.16
119.781
118.41
117.047
115.69
114.34
112.997
111.66
110.328
109.003
107.682
106.367
105.057
103.752
102.451
101.155
99.8637
98.5762
97.2928
96.0134
94.7377
93.4658
92.1976
90.9328
89.6714
88.4133
87.1585
85.9068
84.6581
83.4124
82.1696
80.9297
79.6924
78.4579
77.226
75.9966
74.7697
73.5453
72.3232
71.1035
69.886
68.6708
67.4577
66.2467
65.0379
63.831
62.6261
61.4232
60.2222
59.023
57.8256
56.63
55.4361
54.2438
53.0533
51.8643
50.6769
49.4911
48.3067
47.1238
45.9424
44.7623
43.5837
42.4063
41.2303
40.0556
38.8821
37.7098
36.5387
35.3689
34.2001
33.0324
31.8657
30.7001
29.5355
28.3718
27.209
26.0471
24.8859
23.7256
22.5659
21.4069
20.2485
19.0907
17.9333
16.7763
15.6198
14.4635
13.3074
12.1515
10.9958
9.84004
8.68426
7.52836
6.37229
5.21596
4.05923
2.90251
1.74384
0.599014
158.421
153.613
151.705
149.918
148.208
146.512
144.848
143.223
141.631
140.065
138.521
136.997
135.491
134.002
132.528
131.068
129.621
128.185
126.761
125.346
123.942
122.547
121.16
119.781
118.41
117.047
115.69
114.341
112.997
111.66
110.329
109.003
107.682
106.367
105.057
103.752
102.451
101.155
99.8637
98.5762
97.2928
96.0134
94.7378
93.4659
92.1976
90.9328
89.6714
88.4134
87.1585
85.9068
84.6581
83.4125
82.1697
80.9297
79.6925
78.4579
77.226
75.9966
74.7697
73.5453
72.3232
71.1035
69.886
68.6708
67.4577
66.2467
65.0379
63.831
62.6261
61.4232
60.2222
59.023
57.8256
56.63
55.4361
54.2438
53.0533
51.8643
50.6769
49.4911
48.3067
47.1238
45.9424
44.7623
43.5837
42.4063
41.2303
40.0556
38.8821
37.7098
36.5387
35.3688
34.2001
33.0324
31.8657
30.7001
29.5355
28.3718
27.209
26.0471
24.8859
23.7256
22.5659
21.4069
20.2485
19.0906
17.9333
16.7763
15.6197
14.4635
13.3074
12.1515
10.9958
9.84003
8.68425
7.52835
6.37228
5.21595
4.05922
2.9025
1.74383
0.599008
158.38
153.617
151.707
149.919
148.209
146.513
144.848
143.224
141.631
140.065
138.521
136.997
135.492
134.003
132.529
131.068
129.621
128.185
126.761
125.347
123.942
122.547
121.16
119.781
118.41
117.047
115.69
114.341
112.997
111.66
110.329
109.003
107.683
106.367
105.057
103.752
102.452
101.155
99.8637
98.5763
97.2929
96.0134
94.7378
93.4659
92.1976
90.9328
89.6714
88.4134
87.1585
85.9068
84.6582
83.4125
82.1697
80.9297
79.6925
78.4579
77.226
75.9966
74.7697
73.5453
72.3232
71.1035
69.886
68.6708
67.4577
66.2468
65.0379
63.831
62.6261
61.4232
60.2222
59.023
57.8256
56.63
55.4361
54.2438
53.0533
51.8643
50.6769
49.4911
48.3067
47.1238
45.9424
44.7623
43.5837
42.4063
41.2303
40.0556
38.8821
37.7098
36.5387
35.3688
34.2
33.0324
31.8657
30.7001
29.5355
28.3718
27.209
26.047
24.8859
23.7256
22.5659
21.4069
20.2485
19.0906
17.9332
16.7763
15.6197
14.4635
13.3074
12.1515
10.9958
9.84002
8.68423
7.52833
6.37226
5.21594
4.05921
2.90249
1.74382
0.599001
158.344
153.622
151.71
149.921
148.21
146.514
144.849
143.224
141.632
140.065
138.521
136.997
135.492
134.003
132.529
131.069
129.621
128.186
126.761
125.347
123.942
122.547
121.16
119.781
118.41
117.047
115.69
114.341
112.997
111.66
110.329
109.003
107.683
106.367
105.057
103.752
102.452
101.155
99.8638
98.5763
97.2929
96.0134
94.7378
93.4659
92.1976
90.9329
89.6715
88.4134
87.1586
85.9068
84.6582
83.4125
82.1697
80.9297
79.6925
78.4579
77.226
75.9966
74.7697
73.5453
72.3232
71.1035
69.886
68.6708
67.4577
66.2468
65.0379
63.831
62.6261
61.4232
60.2222
59.023
57.8256
56.63
55.4361
54.2438
53.0533
51.8643
50.6769
49.4911
48.3067
47.1238
45.9424
44.7623
43.5837
42.4063
41.2303
40.0556
38.8821
37.7098
36.5387
35.3688
34.2
33.0323
31.8657
30.7001
29.5354
28.3718
27.2089
26.047
24.8859
23.7255
22.5659
21.4069
20.2485
19.0906
17.9332
16.7763
15.6197
14.4634
13.3074
12.1515
10.9957
9.84
8.68422
7.52832
6.37225
5.21592
4.0592
2.90248
1.74381
0.598993
158.317
153.628
151.712
149.923
148.212
146.515
144.85
143.225
141.633
140.066
138.522
136.998
135.492
134.003
132.529
131.069
129.621
128.186
126.761
125.347
123.942
122.547
121.16
119.781
118.411
117.047
115.691
114.341
112.997
111.66
110.329
109.003
107.683
106.368
105.057
103.752
102.452
101.156
99.8638
98.5763
97.2929
96.0135
94.7379
93.466
92.1977
90.9329
89.6715
88.4134
87.1586
85.9069
84.6582
83.4125
82.1697
80.9297
79.6925
78.4579
77.226
75.9966
74.7698
73.5453
72.3232
71.1035
69.886
68.6708
67.4577
66.2468
65.0379
63.831
62.6261
61.4232
60.2222
59.023
57.8256
56.63
55.436
54.2438
53.0533
51.8643
50.6769
49.4911
48.3067
47.1238
45.9424
44.7623
43.5836
42.4063
41.2303
40.0556
38.8821
37.7098
36.5387
35.3688
34.2
33.0323
31.8657
30.7001
29.5354
28.3717
27.2089
26.047
24.8859
23.7255
22.5659
21.4069
20.2485
19.0906
17.9332
16.7763
15.6197
14.4634
13.3074
12.1515
10.9957
9.83998
8.6842
7.5283
6.37223
5.2159
4.05918
2.90246
1.74379
0.598981
158.295
153.634
151.715
149.926
148.214
146.516
144.851
143.226
141.633
140.067
138.522
136.998
135.493
134.004
132.529
131.069
129.622
128.186
126.761
125.347
123.943
122.547
121.16
119.782
118.411
117.047
115.691
114.341
112.998
111.66
110.329
109.003
107.683
106.368
105.058
103.752
102.452
101.156
99.8639
98.5764
97.293
96.0135
94.7379
93.466
92.1977
90.9329
89.6715
88.4135
87.1586
85.9069
84.6582
83.4125
82.1697
80.9298
79.6925
78.458
77.226
75.9967
74.7698
73.5453
72.3233
71.1035
69.886
68.6708
67.4577
66.2468
65.0379
63.831
62.6262
61.4232
60.2222
59.023
57.8256
56.63
55.436
54.2438
53.0533
51.8643
50.6769
49.491
48.3067
47.1238
45.9423
44.7623
43.5836
42.4063
41.2303
40.0555
38.882
37.7098
36.5387
35.3688
34.2
33.0323
31.8657
30.7001
29.5354
28.3717
27.2089
26.047
24.8859
23.7255
22.5658
21.4068
20.2484
19.0906
17.9332
16.7763
15.6197
14.4634
13.3073
12.1515
10.9957
9.83996
8.68418
7.52828
6.37221
5.21588
4.05916
2.90244
1.74377
0.598966
158.275
153.641
151.717
149.928
148.216
146.518
144.853
143.227
141.635
140.068
138.523
136.999
135.493
134.004
132.53
131.07
129.622
128.186
126.762
125.347
123.943
122.547
121.161
119.782
118.411
117.047
115.691
114.341
112.998
111.66
110.329
109.003
107.683
106.368
105.058
103.752
102.452
101.156
99.864
98.5765
97.2931
96.0136
94.738
93.4661
92.1978
90.933
89.6716
88.4135
87.1587
85.907
84.6583
83.4126
82.1698
80.9298
79.6925
78.458
77.2261
75.9967
74.7698
73.5453
72.3233
71.1035
69.8861
68.6708
67.4577
66.2468
65.0379
63.831
62.6262
61.4232
60.2222
59.023
57.8256
56.63
55.436
54.2438
53.0533
51.8643
50.6769
49.491
48.3067
47.1238
45.9423
44.7623
43.5836
42.4063
41.2303
40.0555
38.882
37.7098
36.5387
35.3688
34.2
33.0323
31.8656
30.7
29.5354
28.3717
27.2089
26.047
24.8858
23.7255
22.5658
21.4068
20.2484
19.0905
17.9332
16.7762
15.6196
14.4634
13.3073
12.1514
10.9957
9.83993
8.68415
7.52825
6.37218
5.21586
4.05913
2.90241
1.74375
0.598947
158.254
153.649
151.719
149.931
148.218
146.52
144.854
143.229
141.636
140.069
138.524
137
135.494
134.005
132.531
131.07
129.623
128.187
126.762
125.348
123.943
122.548
121.161
119.782
118.411
117.048
115.691
114.341
112.998
111.661
110.329
109.003
107.683
106.368
105.058
103.753
102.452
101.156
99.8641
98.5766
97.2932
96.0137
94.7381
93.4662
92.1979
90.9331
89.6717
88.4136
87.1587
85.907
84.6583
83.4126
82.1698
80.9298
79.6926
78.458
77.2261
75.9967
74.7698
73.5454
72.3233
71.1036
69.8861
68.6708
67.4577
66.2468
65.0379
63.831
62.6262
61.4232
60.2222
59.023
57.8256
56.63
55.436
54.2438
53.0533
51.8643
50.6769
49.491
48.3067
47.1238
45.9423
44.7623
43.5836
42.4063
41.2302
40.0555
38.882
37.7097
36.5387
35.3688
34.2
33.0323
31.8656
30.7
29.5354
28.3717
27.2089
26.0469
24.8858
23.7255
22.5658
21.4068
20.2484
19.0905
17.9331
16.7762
15.6196
14.4633
13.3073
12.1514
10.9956
9.8399
8.68412
7.52822
6.37215
5.21583
4.0591
2.90238
1.74372
0.598921
158.231
153.658
151.721
149.933
148.221
146.522
144.856
143.23
141.637
140.07
138.525
137.001
135.495
134.006
132.531
131.071
129.623
128.187
126.763
125.348
123.944
122.548
121.161
119.783
118.412
117.048
115.691
114.342
112.998
111.661
110.329
109.004
107.683
106.368
105.058
103.753
102.452
101.156
99.8643
98.5767
97.2933
96.0138
94.7382
93.4663
92.198
90.9332
89.6718
88.4137
87.1588
85.9071
84.6584
83.4127
82.1699
80.9299
79.6926
78.4581
77.2261
75.9968
74.7699
73.5454
72.3233
71.1036
69.8861
68.6709
67.4578
66.2468
65.0379
63.8311
62.6262
61.4232
60.2222
59.023
57.8256
56.63
55.436
54.2438
53.0533
51.8643
50.6769
49.491
48.3067
47.1238
45.9423
44.7623
43.5836
42.4063
41.2302
40.0555
38.882
37.7097
36.5386
35.3687
34.1999
33.0322
31.8656
30.7
29.5353
28.3716
27.2088
26.0469
24.8858
23.7254
22.5657
21.4068
20.2483
19.0905
17.9331
16.7762
15.6196
14.4633
13.3072
12.1514
10.9956
9.83986
8.68408
7.52819
6.37212
5.21579
4.05907
2.90235
1.74369
0.598886
158.205
153.669
151.723
149.935
148.223
146.524
144.858
143.232
141.639
140.071
138.527
137.002
135.496
134.007
132.532
131.072
129.624
128.188
126.763
125.349
123.944
122.549
121.162
119.783
118.412
117.048
115.692
114.342
112.998
111.661
110.33
109.004
107.684
106.368
105.058
103.753
102.452
101.156
99.8644
98.5769
97.2935
96.014
94.7383
93.4664
92.1981
90.9333
89.6719
88.4138
87.1589
85.9072
84.6585
83.4128
82.17
80.93
79.6927
78.4582
77.2262
75.9968
74.7699
73.5455
72.3234
71.1036
69.8862
68.6709
67.4578
66.2468
65.0379
63.8311
62.6262
61.4233
60.2222
59.023
57.8256
56.63
55.4361
54.2438
53.0533
51.8643
50.6769
49.491
48.3067
47.1238
45.9423
44.7623
43.5836
42.4062
41.2302
40.0555
38.882
37.7097
36.5386
35.3687
34.1999
33.0322
31.8656
30.7
29.5353
28.3716
27.2088
26.0469
24.8858
23.7254
22.5657
21.4067
20.2483
19.0904
17.9331
16.7761
15.6195
14.4633
13.3072
12.1513
10.9956
9.83982
8.68404
7.52814
6.37207
5.21575
4.05903
2.90231
1.74365
0.598839
158.175
153.68
151.725
149.936
148.225
146.527
144.86
143.234
141.641
140.073
138.528
137.004
135.497
134.008
132.533
131.073
129.625
128.189
126.764
125.35
123.945
122.549
121.162
119.784
118.413
117.049
115.692
114.342
112.999
111.662
110.33
109.004
107.684
106.369
105.058
103.753
102.453
101.156
99.8647
98.5771
97.2937
96.0142
94.7385
93.4666
92.1982
90.9334
89.672
88.4139
87.159
85.9073
84.6586
83.4129
82.1701
80.9301
79.6928
78.4582
77.2263
75.9969
74.77
73.5455
72.3234
71.1037
69.8862
68.6709
67.4579
66.2469
65.038
63.8311
62.6262
61.4233
60.2222
59.023
57.8256
56.63
55.4361
54.2438
53.0533
51.8643
50.6769
49.491
48.3067
47.1238
45.9423
44.7623
43.5836
42.4062
41.2302
40.0555
38.882
37.7097
36.5386
35.3687
34.1999
33.0322
31.8655
30.6999
29.5353
28.3716
27.2088
26.0468
24.8857
23.7253
22.5657
21.4067
20.2483
19.0904
17.933
16.7761
15.6195
14.4632
13.3072
12.1513
10.9955
9.83977
8.684
7.5281
6.37203
5.2157
4.05898
2.90226
1.74361
0.598775
158.139
153.694
151.726
149.938
148.226
146.528
144.862
143.236
141.643
140.075
138.53
137.005
135.499
134.009
132.535
131.074
129.626
128.19
126.765
125.35
123.946
122.55
121.163
119.784
118.413
117.049
115.693
114.343
112.999
111.662
110.33
109.005
107.684
106.369
105.059
103.754
102.453
101.157
99.8649
98.5774
97.2939
96.0144
94.7387
93.4668
92.1985
90.9336
89.6722
88.4141
87.1592
85.9075
84.6588
83.413
82.1702
80.9302
79.6929
78.4584
77.2264
75.997
74.7701
73.5456
72.3235
71.1038
69.8863
68.671
67.4579
66.2469
65.038
63.8312
62.6263
61.4233
60.2223
59.0231
57.8257
56.63
55.4361
54.2439
53.0533
51.8643
50.6769
49.491
48.3067
47.1238
45.9423
44.7623
43.5836
42.4062
41.2302
40.0555
38.8819
37.7097
36.5386
35.3687
34.1999
33.0322
31.8655
30.6999
29.5352
28.3715
27.2087
26.0468
24.8857
23.7253
22.5656
21.4066
20.2482
19.0904
17.933
16.776
15.6194
14.4632
13.3071
12.1512
10.9955
9.83972
8.68394
7.52804
6.37197
5.21565
4.05893
2.90221
1.74355
0.598688
158.098
153.71
151.727
149.939
148.227
146.53
144.864
143.238
141.645
140.077
138.532
137.007
135.501
134.011
132.536
131.075
129.627
128.191
126.766
125.352
123.947
122.551
121.164
119.785
118.414
117.05
115.694
114.344
113
111.663
110.331
109.005
107.685
106.369
105.059
103.754
102.453
101.157
99.8653
98.5777
97.2942
96.0147
94.739
93.4671
92.1987
90.9339
89.6725
88.4143
87.1594
85.9077
84.659
83.4132
82.1704
80.9304
79.6931
78.4585
77.2265
75.9971
74.7702
73.5457
72.3236
71.1039
69.8864
68.6711
67.458
66.247
65.0381
63.8313
62.6264
61.4234
60.2223
59.0231
57.8257
56.6301
55.4361
54.2439
53.0533
51.8643
50.6769
49.4911
48.3067
47.1238
45.9423
44.7623
43.5836
42.4062
41.2302
40.0554
38.8819
37.7097
36.5386
35.3687
34.1998
33.0321
31.8655
30.6999
29.5352
28.3715
27.2087
26.0468
24.8856
23.7253
22.5656
21.4066
20.2482
19.0903
17.9329
16.776
15.6194
14.4631
13.3071
12.1512
10.9954
9.83966
8.68388
7.52798
6.37191
5.21559
4.05887
2.90215
1.7435
0.598568
158.05
153.729
151.728
149.94
148.228
146.53
144.865
143.239
141.646
140.079
138.534
137.009
135.502
134.012
132.538
131.077
129.629
128.192
126.767
125.353
123.948
122.552
121.165
119.786
118.415
117.051
115.694
114.344
113.001
111.663
110.332
109.006
107.685
106.37
105.06
103.754
102.454
101.158
99.8658
98.5782
97.2947
96.0151
94.7394
93.4674
92.1991
90.9342
89.6728
88.4146
87.1597
85.9079
84.6592
83.4135
82.1706
80.9306
79.6933
78.4587
77.2267
75.9973
74.7704
73.5459
72.3238
71.104
69.8865
68.6712
67.4581
66.2472
65.0382
63.8314
62.6265
61.4235
60.2224
59.0232
57.8258
56.6301
55.4362
54.244
53.0534
51.8644
50.677
49.4911
48.3067
47.1238
45.9424
44.7623
43.5836
42.4063
41.2302
40.0555
38.8819
37.7097
36.5386
35.3686
34.1998
33.0321
31.8655
30.6998
29.5352
28.3715
27.2087
26.0467
24.8856
23.7252
22.5655
21.4065
20.2481
19.0903
17.9329
16.7759
15.6193
14.463
13.307
12.1511
10.9953
9.8396
8.68382
7.52792
6.37185
5.21552
4.0588
2.90208
1.74343
0.598404
157.994
153.752
151.729
149.941
148.229
146.531
144.866
143.24
141.647
140.08
138.535
137.011
135.504
134.014
132.539
131.078
129.63
128.194
126.769
125.354
123.949
122.553
121.166
119.787
118.416
117.052
115.695
114.345
113.002
111.664
110.333
109.007
107.686
106.371
105.061
103.755
102.454
101.158
99.8663
98.5787
97.2952
96.0156
94.7399
93.4679
92.1995
90.9346
89.6732
88.415
87.1601
85.9083
84.6596
83.4138
82.1709
80.9309
79.6936
78.459
77.227
75.9976
74.7706
73.5461
72.324
71.1042
69.8867
68.6714
67.4583
66.2473
65.0384
63.8315
62.6266
61.4236
60.2226
59.0233
57.8259
56.6302
55.4363
54.2441
53.0535
51.8645
50.6771
49.4912
48.3068
47.1239
45.9424
44.7623
43.5836
42.4063
41.2302
40.0555
38.882
37.7097
36.5386
35.3687
34.1998
33.0321
31.8655
30.6998
29.5352
28.3715
27.2086
26.0467
24.8856
23.7252
22.5655
21.4065
20.2481
19.0902
17.9328
16.7759
15.6193
14.463
13.3069
12.1511
10.9953
9.83953
8.68375
7.52785
6.37178
5.21545
4.05873
2.902
1.74336
0.598178
157.931
153.778
151.73
149.942
148.23
146.532
144.866
143.241
141.648
140.081
138.536
137.012
135.506
134.016
132.541
131.08
129.632
128.196
126.771
125.356
123.951
122.555
121.167
119.788
118.417
117.053
115.697
114.346
113.003
111.665
110.334
109.008
107.687
106.372
105.061
103.756
102.455
101.159
99.867
98.5794
97.2958
96.0162
94.7405
93.4685
92.2001
90.9352
89.6737
88.4155
87.1606
85.9087
84.66
83.4142
82.1713
80.9313
79.694
78.4593
77.2273
75.9979
74.7709
73.5464
72.3243
71.1045
69.887
68.6717
67.4586
66.2475
65.0386
63.8317
62.6268
61.4238
60.2227
59.0235
57.8261
56.6304
55.4365
54.2442
53.0536
51.8646
50.6772
49.4913
48.3069
47.124
45.9425
44.7624
43.5837
42.4064
41.2303
40.0556
38.882
37.7097
36.5386
35.3687
34.1999
33.0322
31.8655
30.6999
29.5352
28.3715
27.2086
26.0467
24.8856
23.7252
22.5655
21.4065
20.248
19.0902
17.9328
16.7758
15.6192
14.4629
13.3069
12.151
10.9952
9.83947
8.68369
7.52779
6.37171
5.21538
4.05866
2.90192
1.74329
0.597865
157.857
153.809
151.732
149.943
148.231
146.533
144.867
143.241
141.648
140.081
138.537
137.012
135.506
134.017
132.542
131.082
129.634
128.197
126.772
125.357
123.952
122.556
121.169
119.79
118.419
117.055
115.698
114.348
113.004
111.666
110.335
109.009
107.688
106.373
105.062
103.757
102.456
101.16
99.8679
98.5802
97.2966
96.017
94.7412
93.4692
92.2008
90.9358
89.6743
88.4161
87.1612
85.9093
84.6605
83.4147
82.1718
80.9318
79.6944
78.4598
77.2278
75.9983
74.7713
73.5468
72.3247
71.1049
69.8873
68.672
67.4589
66.2479
65.0389
63.832
62.6271
61.4241
60.223
59.0237
57.8263
56.6306
55.4367
54.2444
53.0538
51.8648
50.6774
49.4915
48.3071
47.1241
45.9426
44.7626
43.5839
42.4065
41.2304
40.0557
38.8821
37.7098
36.5387
35.3688
34.1999
33.0322
31.8655
30.6999
29.5352
28.3715
27.2087
26.0467
24.8856
23.7252
22.5655
21.4065
20.248
19.0902
17.9328
16.7758
15.6192
14.4629
13.3068
12.151
10.9952
9.83942
8.68364
7.52773
6.37165
5.21532
4.05859
2.90185
1.74322
0.597434
157.773
153.844
151.734
149.945
148.232
146.534
144.867
143.242
141.649
140.082
138.537
137.013
135.507
134.017
132.543
131.082
129.635
128.199
126.774
125.359
123.954
122.558
121.171
119.792
118.42
117.056
115.699
114.349
113.005
111.668
110.336
109.01
107.689
106.374
105.064
103.758
102.457
101.161
99.8689
98.5812
97.2976
96.018
94.7422
93.4701
92.2016
90.9367
89.6751
88.4169
87.1619
85.91
84.6612
83.4154
82.1725
80.9324
79.695
78.4604
77.2283
75.9989
74.7719
73.5473
72.3252
71.1054
69.8878
68.6725
67.4593
66.2483
65.0393
63.8324
62.6274
61.4244
60.2233
59.0241
57.8266
56.6309
55.437
54.2447
53.0541
51.8651
50.6776
49.4917
48.3073
47.1244
45.9429
44.7628
43.5841
42.4067
41.2306
40.0558
38.8823
37.71
36.5388
35.3689
34.2001
33.0323
31.8656
30.7
29.5353
28.3716
27.2087
26.0468
24.8856
23.7252
22.5655
21.4065
20.2481
19.0902
17.9328
16.7758
15.6192
14.4629
13.3068
12.1509
10.9952
9.83939
8.6836
7.52769
6.37161
5.21527
4.05854
2.90178
1.74316
0.596839
157.678
153.883
151.736
149.947
148.234
146.535
144.868
143.242
141.649
140.082
138.537
137.013
135.507
134.018
132.543
131.083
129.635
128.199
126.774
125.36
123.955
122.559
121.172
119.793
118.422
117.058
115.701
114.351
113.007
111.669
110.338
109.011
107.691
106.375
105.065
103.759
102.458
101.162
99.8702
98.5824
97.2988
96.0191
94.7433
93.4712
92.2027
90.9377
89.6761
88.4179
87.1628
85.911
84.6621
83.4163
82.1733
80.9332
79.6958
78.4611
77.2291
75.9996
74.7726
73.548
72.3258
71.106
69.8884
68.6731
67.4599
66.2488
65.0399
63.8329
62.628
61.4249
60.2238
59.0245
57.8271
56.6314
55.4374
54.2451
53.0545
51.8654
50.678
49.4921
48.3076
47.1247
45.9432
44.7631
43.5843
42.407
41.2309
40.0561
38.8825
37.7102
36.5391
35.3691
34.2003
33.0325
31.8658
30.7002
29.5355
28.3717
27.2089
26.0469
24.8858
23.7253
22.5656
21.4066
20.2482
19.0903
17.9328
16.7759
15.6193
14.4629
13.3069
12.151
10.9952
9.8394
8.6836
7.52769
6.3716
5.21525
4.05852
2.90172
1.74312
0.596022
157.572
153.927
151.738
149.949
148.237
146.537
144.87
143.243
141.65
140.083
138.538
137.013
135.507
134.018
132.543
131.083
129.635
128.199
126.774
125.36
123.955
122.56
121.173
119.794
118.423
117.059
115.702
114.352
113.008
111.671
110.339
109.013
107.692
106.377
105.066
103.761
102.46
101.164
99.8716
98.5838
97.3001
96.0204
94.7445
93.4724
92.2039
90.9389
89.6773
88.419
87.164
85.912
84.6632
83.4173
82.1743
80.9342
79.6968
78.4621
77.23
76.0005
74.7734
73.5489
72.3267
71.1068
69.8892
68.6738
67.4606
66.2496
65.0406
63.8336
62.6286
61.4256
60.2244
59.0251
57.8277
56.6319
55.4379
54.2456
53.055
51.8659
50.6785
49.4925
48.3081
47.1251
45.9436
44.7635
43.5848
42.4074
41.2313
40.0565
38.8829
37.7106
36.5394
35.3694
34.2006
33.0328
31.8661
30.7004
29.5357
28.372
27.2091
26.0471
24.886
23.7255
22.5658
21.4068
20.2483
19.0904
17.933
16.776
15.6194
14.463
13.307
12.151
10.9952
9.83947
8.68366
7.52773
6.37163
5.21528
4.05853
2.90171
1.74311
0.594903
157.454
153.975
151.742
149.951
148.239
146.539
144.871
143.245
141.651
140.083
138.539
137.014
135.508
134.018
132.544
131.083
129.635
128.199
126.775
125.36
123.955
122.56
121.173
119.794
118.423
117.059
115.703
114.353
113.009
111.672
110.34
109.014
107.694
106.378
105.068
103.762
102.461
101.165
99.8731
98.5853
97.3016
96.0219
94.746
93.4738
92.2053
90.9403
89.6786
88.4203
87.1653
85.9133
84.6645
83.4186
82.1756
80.9354
79.698
78.4632
77.2311
76.0016
74.7745
73.5499
72.3277
71.1078
69.8902
68.6748
67.4616
66.2505
65.0415
63.8345
62.6295
61.4264
60.2252
59.0259
57.8284
56.6327
55.4387
54.2464
53.0557
51.8666
50.6791
49.4932
48.3087
47.1258
45.9442
44.7641
43.5853
42.4079
41.2318
40.057
38.8834
37.7111
36.5399
35.3699
34.201
33.0333
31.8665
30.7009
29.5361
28.3724
27.2095
26.0475
24.8863
23.7259
22.5661
21.4071
20.2486
19.0907
17.9332
16.7762
15.6196
14.4633
13.3072
12.1512
10.9954
9.83961
8.68379
7.52786
6.37175
5.21538
4.05862
2.90174
1.74315
0.593385
157.327
154.025
151.746
149.953
148.242
146.541
144.873
143.246
141.652
140.084
138.539
137.015
135.508
134.019
132.544
131.084
129.636
128.2
126.775
125.36
123.956
122.56
121.173
119.794
118.423
117.059
115.703
114.353
113.009
111.672
110.34
109.015
107.694
106.379
105.069
103.763
102.463
101.166
99.8744
98.5867
97.3031
96.0234
94.7475
93.4754
92.2068
90.9418
89.6802
88.4218
87.1667
85.9148
84.6659
83.42
82.177
80.9368
79.6993
78.4646
77.2324
76.0029
74.7758
73.5512
72.3289
71.109
69.8914
68.676
67.4627
66.2516
65.0426
63.8356
62.6306
61.4275
60.2263
59.027
57.8294
56.6337
55.4396
54.2473
53.0566
51.8675
50.68
49.4941
48.3096
47.1266
45.945
44.7649
43.5861
42.4087
41.2325
40.0577
38.8841
37.7118
36.5406
35.3706
34.2017
33.0339
31.8671
30.7014
29.5367
28.3729
27.21
26.048
24.8868
23.7263
22.5666
21.4075
20.249
19.0911
17.9336
16.7766
15.6199
14.4636
13.3075
12.1515
10.9957
9.83988
8.68405
7.52809
6.37196
5.21558
4.05881
2.90187
1.74325
0.59135
157.194
154.076
151.751
149.954
148.245
146.543
144.874
143.247
141.654
140.086
138.54
137.016
135.509
134.02
132.545
131.084
129.636
128.2
126.775
125.361
123.956
122.56
121.173
119.794
118.423
117.06
115.703
114.353
113.009
111.672
110.341
109.015
107.694
106.379
105.069
103.763
102.463
101.167
99.8748
98.5872
97.3037
96.0242
94.7485
93.4764
92.208
90.9431
89.6815
88.4233
87.1682
85.9163
84.6675
83.4215
82.1785
80.9383
79.7009
78.4661
77.234
76.0044
74.7773
73.5526
72.3304
71.1104
69.8928
68.6774
67.4641
66.253
65.0439
63.8369
62.6319
61.4288
60.2276
59.0282
57.8307
56.6349
55.4408
54.2485
53.0578
51.8687
50.6811
49.4952
48.3107
47.1277
45.9461
44.7659
43.5871
42.4097
41.2335
40.0587
38.8851
37.7127
36.5415
35.3715
34.2025
33.0347
31.868
30.7023
29.5375
28.3737
27.2108
26.0487
24.8875
23.727
22.5673
21.4082
20.2496
19.0917
17.9342
16.7772
15.6205
14.4641
13.308
12.152
10.9961
9.84031
8.68445
7.52847
6.37233
5.21592
4.05912
2.90211
1.74343
0.588671
157.06
154.125
151.757
149.955
148.249
146.546
144.876
143.249
141.655
140.087
138.541
137.017
135.51
134.02
132.546
131.085
129.637
128.201
126.776
125.361
123.956
122.561
121.174
119.795
118.424
117.06
115.703
114.353
113.01
111.672
110.341
109.015
107.694
106.379
105.069
103.764
102.463
101.167
99.8749
98.5873
97.3038
96.0243
94.7486
93.4766
92.2082
90.9434
89.6819
88.4238
87.1689
85.9171
84.6683
83.4225
82.1796
80.9396
79.7022
78.4675
77.2354
76.0059
74.7789
73.5542
72.332
71.1121
69.8944
68.679
67.4657
66.2546
65.0455
63.8384
62.6334
61.4303
60.229
59.0297
57.8321
56.6363
55.4422
54.2499
53.0591
51.87
50.6825
49.4965
48.312
47.129
45.9474
44.7672
43.5884
42.4109
41.2348
40.0599
38.8863
37.7139
36.5426
35.3726
34.2037
33.0359
31.8691
30.7033
29.5385
28.3747
27.2118
26.0497
24.8885
23.728
22.5682
21.409
20.2505
19.0925
17.935
16.7779
15.6212
14.4648
13.3087
12.1527
10.9968
9.84094
8.68505
7.52905
6.37288
5.21644
4.05962
2.9025
1.74373
0.585237
156.932
154.17
151.764
149.955
148.252
146.548
144.878
143.25
141.656
140.088
138.543
137.018
135.511
134.021
132.546
131.086
129.638
128.201
126.776
125.362
123.957
122.561
121.174
119.795
118.424
117.06
115.704
114.354
113.01
111.673
110.341
109.015
107.695
106.379
105.069
103.764
102.463
101.167
99.875
98.5874
97.3039
96.0243
94.7486
93.4766
92.2083
90.9434
89.682
88.4238
87.1689
85.9171
84.6684
83.4226
82.1798
80.9397
79.7024
78.4678
77.2359
76.0064
74.7795
73.555
72.3329
71.113
69.8955
68.6802
67.467
66.256
65.047
63.84
62.635
61.4319
60.2307
59.0314
57.8338
56.6381
55.444
54.2516
53.0609
51.8717
50.6842
49.4981
48.3136
47.1306
45.9489
44.7687
43.5899
42.4124
41.2362
40.0613
38.8877
37.7153
36.544
35.374
34.205
33.0372
31.8704
30.7046
29.5399
28.376
27.213
26.051
24.8897
23.7292
22.5693
21.4102
20.2516
19.0936
17.9361
16.779
15.6222
14.4658
13.3096
12.1536
10.9977
9.8418
8.68588
7.52985
6.37364
5.21718
4.06032
2.9031
1.74415
0.581036
156.824
154.207
151.771
149.955
148.255
146.551
144.88
143.252
141.657
140.089
138.543
137.018
135.512
134.022
132.547
131.086
129.638
128.202
126.777
125.362
123.957
122.562
121.174
119.796
118.424
117.061
115.704
114.354
113.01
111.673
110.341
109.015
107.695
106.38
105.069
103.764
102.463
101.167
99.8752
98.5876
97.304
96.0245
94.7488
93.4768
92.2084
90.9435
89.6821
88.4239
87.169
85.9172
84.6685
83.4227
82.1798
80.9398
79.7025
78.4679
77.2359
76.0064
74.7795
73.555
72.3329
71.1131
69.8956
68.6803
67.4671
66.2561
65.0472
63.8403
62.6354
61.4324
60.2313
59.0321
57.8346
56.639
55.445
54.2527
53.0621
51.8731
50.6856
49.4996
48.3152
47.1322
45.9506
44.7705
43.5917
42.4142
41.2381
40.0632
38.8895
37.7171
36.5459
35.3758
34.2068
33.039
31.8721
30.7063
29.5415
28.3776
27.2146
26.0525
24.8912
23.7306
22.5708
21.4116
20.253
19.0949
17.9374
16.7802
15.6235
14.467
13.3108
12.1547
10.9988
9.84287
8.68693
7.53087
6.37463
5.21814
4.06125
2.90391
1.74475
0.576378
156.756
154.229
151.776
149.955
148.256
146.552
144.881
143.253
141.658
140.09
138.544
137.019
135.512
134.022
132.547
131.087
129.638
128.202
126.777
125.363
123.958
122.562
121.175
119.796
118.425
117.061
115.704
114.354
113.01
111.673
110.341
109.016
107.695
106.38
105.07
103.764
102.463
101.167
99.8753
98.5877
97.3042
96.0246
94.7489
93.4769
92.2085
90.9437
89.6822
88.424
87.1691
85.9173
84.6686
83.4228
82.1799
80.9399
79.7026
78.4679
77.2359
76.0065
74.7796
73.5551
72.3329
71.1131
69.8956
68.6803
67.4672
66.2562
65.0473
63.8403
62.6354
61.4324
60.2313
59.0321
57.8347
56.639
55.445
54.2528
53.0622
51.8731
50.6857
49.4998
48.3154
47.1325
45.951
44.7709
43.5921
42.4147
41.2387
40.0638
38.8903
37.7179
36.5468
35.3767
34.2079
33.0401
31.8733
30.7076
29.5428
28.379
27.216
26.0539
24.8926
23.7321
22.5723
21.4131
20.2545
19.0964
17.9389
16.7817
15.6249
14.4685
13.3122
12.1562
11.0002
9.84424
8.68827
7.53218
6.37591
5.21938
4.06246
2.90503
1.74566
0.572742
156.756
154.229
151.776
149.955
148.256
146.552
144.881
143.253
141.658
140.09
138.544
137.019
135.512
134.022
132.547
131.087
129.638
128.202
126.777
125.363
123.958
122.562
121.175
119.796
118.425
117.061
115.704
114.354
113.01
111.673
110.341
109.016
107.695
106.38
105.07
103.764
102.463
101.167
99.8753
98.5877
97.3042
96.0246
94.7489
93.4769
92.2085
90.9437
89.6822
88.424
87.1691
85.9173
84.6686
83.4228
82.1799
80.9399
79.7026
78.4679
77.2359
76.0065