/*--------------------------------*- C++ -*----------------------------------*\
  =========                 |
  \\      /  F ield         | OpenFOAM: The Open Source CFD Toolbox
   \\    /   O peration     | Website:  https://openfoam.org
    \\  /    A nd           | Version:  8
     \\/     M anipulation  |
\*---------------------------------------------------------------------------*/
FoamFile
{
    version     2.0;
    format      ascii;
    class       surfaceScalarField;
    location    "900";
    object      phi;
}
// * * * * * * * * * * * * * * * * * * * * * * * * * * * * * * * * * * * * * //

dimensions      [0 3 -1 0 0 0 0];

internalField   nonuniform List<scalar> 
14458
(
0.00222126
0.00139905
0.00205682
0.000164437
0.00198942
6.74046e-05
0.00194726
4.21619e-05
0.00191671
3.05478e-05
0.00189296
2.37485e-05
0.00187368
1.9277e-05
0.00185758
1.6101e-05
0.00184386
1.37262e-05
0.00183197
1.18875e-05
0.00182154
1.04249e-05
0.00181231
9.23473e-06
0.00180406
8.24831e-06
0.00179664
7.41823e-06
0.00178993
6.71083e-06
0.00178383
6.10112e-06
0.00177826
5.57066e-06
0.00177315
5.10525e-06
0.00176846
4.69408e-06
0.00176413
4.32812e-06
0.00176013
4.00064e-06
0.00175643
3.70602e-06
0.00175299
3.43984e-06
0.00174979
3.19805e-06
0.00174681
2.97768e-06
0.00174403
2.77607e-06
0.00174144
2.59119e-06
0.00173902
2.42081e-06
0.00173676
2.2635e-06
0.00173464
2.11785e-06
0.00173266
1.98278e-06
0.0017308
1.85703e-06
0.00172906
1.73981e-06
0.00172743
1.63029e-06
0.0017259
1.52787e-06
0.00172447
1.43178e-06
0.00172313
1.34154e-06
0.00172187
1.25664e-06
0.00172069
1.17667e-06
0.00171959
1.10122e-06
0.00171856
1.02994e-06
0.0017176
9.62522e-07
0.0017167
8.98518e-07
0.00171586
8.37983e-07
0.00171508
7.80522e-07
0.00171435
7.2593e-07
0.00171368
6.73824e-07
0.00171305
6.2439e-07
0.00171248
5.77269e-07
0.00171194
5.32352e-07
0.00171145
4.88959e-07
0.00171101
4.4801e-07
0.0017106
4.08839e-07
0.00171023
3.71401e-07
0.00170989
3.35095e-07
0.00170959
3.00761e-07
0.00170932
2.67789e-07
0.00170908
2.362e-07
0.00170888
2.04869e-07
0.0017087
1.75696e-07
0.00170855
1.47552e-07
0.00170843
1.20512e-07
0.00170834
9.36265e-08
0.00170827
6.84689e-08
0.00170823
4.40783e-08
0.00170821
2.0609e-08
0.00170821
-3.66386e-09
0.00170823
-2.55767e-08
0.00170828
-4.68106e-08
0.00170835
-6.71444e-08
0.00170843
-8.7983e-08
0.00170854
-1.06732e-07
0.00170867
-1.24839e-07
0.00170881
-1.41955e-07
0.00170897
-1.60566e-07
0.00170914
-1.75923e-07
0.00170933
-1.90611e-07
0.00170954
-2.04209e-07
0.00170976
-2.18833e-07
0.00170999
-2.30668e-07
0.00171023
-2.41963e-07
0.00171048
-2.52235e-07
0.00171074
-2.65209e-07
0.00171102
-2.74015e-07
0.0017113
-2.82593e-07
0.00171159
-2.90322e-07
0.00171189
-3.00427e-07
0.0017122
-3.07347e-07
0.00171251
-3.14507e-07
0.00171284
-3.2115e-07
0.00171317
-3.32441e-07
0.0017135
-3.38972e-07
0.00171385
-3.46163e-07
0.0017142
-3.53038e-07
0.00171457
-3.63715e-07
0.00171494
-3.71128e-07
0.00171532
-3.79533e-07
0.00171571
-3.8784e-07
0.00171611
-4.01725e-07
0.00171652
-4.10856e-07
0.00171694
-4.2102e-07
0.00171737
-4.31025e-07
0.00171782
-4.44843e-07
0.00171828
-4.55636e-07
0.00171874
-4.67291e-07
0.00171923
-4.78708e-07
0.00171972
-4.94312e-07
0.00172023
-5.06142e-07
0.00172075
-5.18369e-07
0.00172128
-5.30106e-07
0.00172182
-5.43679e-07
0.00172238
-5.55146e-07
0.00172295
-5.66473e-07
0.00172353
-5.77046e-07
0.00172412
-5.88499e-07
0.00172472
-5.981e-07
0.00172532
-6.07002e-07
0.00172594
-6.14688e-07
0.00172656
-6.21496e-07
0.00172719
-6.20479e-07
0.00172781
-6.22634e-07
-3.24397e-07
0.00311152
0.00259572
0.00288393
0.000392018
0.00278399
0.000167352
0.00272314
0.000103006
0.0026798
7.38914e-05
0.0026464
5.71457e-05
0.00261943
4.62488e-05
0.00259697
3.85575e-05
0.00257787
3.28288e-05
0.00256135
2.8405e-05
0.00254689
2.48927e-05
0.00253408
2.20389e-05
0.00252265
1.96763e-05
0.00251238
1.769e-05
0.00250309
1.59984e-05
0.00249465
1.45415e-05
0.00248695
1.32745e-05
0.00247989
1.21635e-05
0.0024734
1.11821e-05
0.00246742
1.03091e-05
0.00246189
9.52816e-06
0.00245677
8.82573e-06
0.00245202
8.19115e-06
0.00244761
7.61496e-06
0.00244349
7.08989e-06
0.00243966
6.60963e-06
0.00243608
6.16915e-06
0.00243274
5.7634e-06
0.00242961
5.38882e-06
0.00242669
5.04204e-06
0.00242395
4.72043e-06
0.00242139
4.42109e-06
0.00241899
4.14209e-06
0.00241673
3.88146e-06
0.00241462
3.63768e-06
0.00241265
3.40901e-06
0.00241079
3.19429e-06
0.00240906
2.9923e-06
0.00240743
2.80204e-06
0.00240591
2.62252e-06
0.00240449
2.45295e-06
0.00240316
2.29256e-06
0.00240192
2.14042e-06
0.00240076
1.9964e-06
0.00239968
1.85971e-06
0.00239867
1.72982e-06
0.00239774
1.606e-06
0.00239688
1.48838e-06
0.00239608
1.37627e-06
0.00239534
1.26938e-06
0.00239466
1.16653e-06
0.00239404
1.06906e-06
0.00239347
9.75834e-07
0.00239296
8.86692e-07
0.00239249
8.00607e-07
0.00239208
7.18817e-07
0.0023917
6.40306e-07
0.00239137
5.65017e-07
0.00239109
4.91126e-07
0.00239084
4.21562e-07
0.00239063
3.54505e-07
0.00239046
2.90003e-07
0.00239033
2.26533e-07
0.00239023
1.66517e-07
0.00239017
1.08433e-07
0.00239014
5.24682e-08
0.00239014
-4.12204e-09
0.00239017
-5.63723e-08
0.00239023
-1.06877e-07
0.00239031
-1.55339e-07
0.00239043
-2.03946e-07
0.00239057
-2.48641e-07
0.00239074
-2.91667e-07
0.00239093
-3.32525e-07
0.00239114
-3.7509e-07
0.00239138
-4.11902e-07
0.00239164
-4.47013e-07
0.00239191
-4.79835e-07
0.00239221
-5.13666e-07
0.00239252
-5.42567e-07
0.00239285
-5.70068e-07
0.00239319
-5.95525e-07
0.00239355
-6.24797e-07
0.00239392
-6.47125e-07
0.00239431
-6.68749e-07
0.00239471
-6.88817e-07
0.00239512
-7.12396e-07
0.00239554
-7.30833e-07
0.00239598
-7.49531e-07
0.00239642
-7.6743e-07
0.00239688
-7.92656e-07
0.00239735
-8.10446e-07
0.00239784
-8.29349e-07
0.00239833
-8.4793e-07
0.00239884
-8.72632e-07
0.00239936
-8.92393e-07
0.0023999
-9.13867e-07
0.00240045
-9.354e-07
0.00240101
-9.65907e-07
0.00240159
-9.89107e-07
0.00240218
-1.01404e-06
0.00240279
-1.03885e-06
0.00240341
-1.06973e-06
0.00240405
-1.09592e-06
0.00240471
-1.1234e-06
0.00240538
-1.15041e-06
0.00240607
-1.18393e-06
0.00240678
-1.21136e-06
0.0024075
-1.23909e-06
0.00240824
-1.26569e-06
0.00240899
-1.29482e-06
0.00240975
-1.32022e-06
0.00241053
-1.34479e-06
0.00241133
-1.36752e-06
0.00241213
-1.39108e-06
0.00241294
-1.41104e-06
0.00241377
-1.42901e-06
0.0024146
-1.44402e-06
0.00241543
-1.45697e-06
0.00241626
-1.45025e-06
0.0024171
-1.45438e-06
-7.51608e-07
0.00403426
0.00368821
0.00373892
0.00068736
0.00360103
0.000305244
0.00351841
0.000185629
0.00346051
0.000131791
0.00341635
0.000101301
0.00338092
8.16798e-05
0.00335155
6.79321e-05
0.00332663
5.77419e-05
0.00330514
4.98993e-05
0.00328634
4.3688e-05
0.00326973
3.86509e-05
0.00325492
3.44872e-05
0.00324162
3.09908e-05
0.0032296
2.80162e-05
0.00321869
2.54563e-05
0.00320873
2.32319e-05
0.00319961
2.12823e-05
0.00319123
1.95612e-05
0.00318351
1.80309e-05
0.00317637
1.66625e-05
0.00316977
1.54321e-05
0.00316364
1.43209e-05
0.00315794
1.33123e-05
0.00315264
1.23934e-05
0.00314769
1.15532e-05
0.00314308
1.07826e-05
0.00313877
1.0073e-05
0.00313474
9.41805e-06
0.00313097
8.81184e-06
0.00312744
8.2496e-06
0.00312414
7.72649e-06
0.00312104
7.23895e-06
0.00311814
6.7836e-06
0.00311542
6.35765e-06
0.00311287
5.95822e-06
0.00311048
5.58318e-06
0.00310824
5.23041e-06
0.00310614
4.89815e-06
0.00310418
4.58469e-06
0.00310235
4.28861e-06
0.00310063
4.00856e-06
0.00309903
3.74307e-06
0.00309753
3.49165e-06
0.00309614
3.253e-06
0.00309484
3.02627e-06
0.00309364
2.81026e-06
0.00309252
2.60493e-06
0.00309149
2.40924e-06
0.00309054
2.22263e-06
0.00308966
2.04349e-06
0.00308885
1.87332e-06
0.00308812
1.71058e-06
0.00308745
1.55492e-06
0.00308685
1.40496e-06
0.0030863
1.26212e-06
0.00308582
1.12502e-06
0.00308539
9.935e-07
0.00308501
8.6521e-07
0.00308469
7.43683e-07
0.00308442
6.26569e-07
0.0030842
5.13891e-07
0.00308402
4.03673e-07
0.00308389
2.98872e-07
0.0030838
1.97522e-07
0.00308375
9.98629e-08
0.00308374
2.40164e-09
0.00308377
-8.87484e-08
0.00308384
-1.76777e-07
0.00308395
-2.61269e-07
0.00308409
-3.45003e-07
0.00308427
-4.22948e-07
0.00308447
-4.97942e-07
0.00308471
-5.6931e-07
0.00308498
-6.41879e-07
0.00308527
-7.06449e-07
0.00308559
-7.68098e-07
0.00308594
-8.26052e-07
0.00308631
-8.84479e-07
0.0030867
-9.36043e-07
0.00308712
-9.8524e-07
0.00308755
-1.03123e-06
0.00308801
-1.08135e-06
0.00308848
-1.12239e-06
0.00308898
-1.16221e-06
0.00308949
-1.19968e-06
0.00309002
-1.24123e-06
0.00309056
-1.2762e-06
0.00309112
-1.31142e-06
0.0030917
-1.34549e-06
0.0030923
-1.38856e-06
0.00309291
-1.4225e-06
0.00309354
-1.45795e-06
0.00309418
-1.49299e-06
0.00309485
-1.53575e-06
0.00309553
-1.57251e-06
0.00309622
-1.61159e-06
0.00309694
-1.65073e-06
0.00309767
-1.70108e-06
0.00309843
-1.74253e-06
0.0030992
-1.7862e-06
0.00309999
-1.82958e-06
0.0031008
-1.88045e-06
0.00310163
-1.92542e-06
0.00310248
-1.97181e-06
0.00310335
-2.01718e-06
0.00310424
-2.07029e-06
0.00310514
-2.11556e-06
0.00310606
-2.16065e-06
0.003107
-2.20358e-06
0.00310795
-2.24901e-06
0.00310892
-2.28912e-06
0.00310991
-2.3273e-06
0.0031109
-2.36207e-06
0.00311191
-2.39692e-06
0.00311292
-2.42635e-06
0.00311395
-2.4521e-06
0.00311498
-2.47255e-06
0.00311601
-2.48938e-06
0.00311703
-2.471e-06
0.00311806
-2.47739e-06
-1.27688e-06
0.00509521
0.00469385
0.00472975
0.00105283
0.00454516
0.00048983
0.00443475
0.000296043
0.00435841
0.000208122
0.00430083
0.000158888
0.00425496
0.000127546
0.00421713
0.000105763
0.00418516
8.97077e-05
0.00415766
7.74018e-05
0.00413366
6.76853e-05
0.00411249
5.98246e-05
0.00409364
5.33391e-05
0.00407673
4.79016e-05
0.00406146
4.32812e-05
0.00404761
3.93094e-05
0.00403498
3.58612e-05
0.00402342
3.28415e-05
0.00401281
3.01773e-05
0.00400303
2.78101e-05
0.00399399
2.56943e-05
0.00398563
2.3793e-05
0.00397788
2.20764e-05
0.00397067
2.0519e-05
0.00396396
1.91007e-05
0.00395771
1.78041e-05
0.00395188
1.66153e-05
0.00394643
1.5521e-05
0.00394134
1.45111e-05
0.00393657
1.35767e-05
0.00393211
1.27101e-05
0.00392794
1.1904e-05
0.00392402
1.1153e-05
0.00392035
1.04516e-05
0.00391692
9.79552e-06
0.00391369
9.18046e-06
0.00391067
8.60302e-06
0.00390784
8.05996e-06
0.00390519
7.54851e-06
0.00390271
7.06606e-06
0.00390039
6.61041e-06
0.00389822
6.17948e-06
0.00389619
5.77107e-06
0.0038943
5.38424e-06
0.00389253
5.01711e-06
0.00389089
4.66831e-06
0.00388937
4.33615e-06
0.00388795
4.02033e-06
0.00388664
3.71934e-06
0.00388543
3.43233e-06
0.00388432
3.15715e-06
0.00388329
2.89542e-06
0.00388236
2.64513e-06
0.00388151
2.40572e-06
0.00388074
2.17538e-06
0.00388004
1.95567e-06
0.00387942
1.74481e-06
0.00387888
1.54251e-06
0.00387839
1.34585e-06
0.00387798
1.15894e-06
0.00387763
9.78886e-07
0.00387733
8.0564e-07
0.0038771
6.36764e-07
0.00387692
4.7572e-07
0.0038768
3.20104e-07
0.00387673
1.70148e-07
0.00387671
2.16126e-08
0.00387674
-1.18291e-07
0.00387682
-2.53335e-07
0.00387694
-3.82992e-07
0.0038771
-5.10636e-07
0.00387731
-6.30306e-07
0.00387756
-7.45423e-07
0.00387785
-8.5521e-07
0.00387817
-9.65459e-07
0.00387853
-1.06522e-06
0.00387892
-1.1606e-06
0.00387934
-1.25072e-06
0.0038798
-1.34059e-06
0.00388029
-1.42153e-06
0.0038808
-1.49895e-06
0.00388134
-1.57189e-06
0.00388191
-1.64919e-06
0.0038825
-1.71517e-06
0.00388312
-1.77924e-06
0.00388376
-1.84012e-06
0.00388442
-1.90553e-06
0.00388511
-1.96283e-06
0.00388582
-2.02021e-06
0.00388655
-2.076e-06
0.0038873
-2.14241e-06
0.00388808
-2.19785e-06
0.00388887
-2.25498e-06
0.00388969
-2.31149e-06
0.00389053
-2.37715e-06
0.0038914
-2.43561e-06
0.00389228
-2.49671e-06
0.00389319
-2.55769e-06
0.00389412
-2.63194e-06
0.00389507
-2.69546e-06
0.00389605
-2.76137e-06
0.00389705
-2.82654e-06
0.00389807
-2.90036e-06
0.00389911
-2.96679e-06
0.00390017
-3.03438e-06
0.00390125
-3.10006e-06
0.00390236
-3.17446e-06
0.00390348
-3.2389e-06
0.00390462
-3.30225e-06
0.00390578
-3.36204e-06
0.00390696
-3.42394e-06
0.00390815
-3.47857e-06
0.00390935
-3.52969e-06
0.00391057
-3.57544e-06
0.00391179
-3.6202e-06
0.00391302
-3.65731e-06
0.00391426
-3.68855e-06
0.0039155
-3.71169e-06
0.00391674
-3.72942e-06
0.00391796
-3.69233e-06
0.00391918
-3.69789e-06
-1.90252e-06
0.00634387
0.00561001
0.00590982
0.00148688
0.00566913
0.000730515
0.00552327
0.000441904
0.00542325
0.000308148
0.0053485
0.000233633
0.00528942
0.000186628
0.00524096
0.00015422
0.00520019
0.000130482
0.00516522
0.000112371
0.00513478
9.81209e-05
0.00510798
8.6625e-05
0.00508416
7.71618e-05
0.00506282
6.92424e-05
0.00504358
6.25234e-05
0.00502613
5.67551e-05
0.00501024
5.17529e-05
0.0049957
4.73765e-05
0.00498236
4.35184e-05
0.00497008
4.0093e-05
0.00495874
3.70336e-05
0.00494825
3.42858e-05
0.00493852
3.18062e-05
0.00492948
2.95577e-05
0.00492107
2.75109e-05
0.00491323
2.56406e-05
0.00490592
2.3926e-05
0.00489909
2.23485e-05
0.00489271
2.08932e-05
0.00488674
1.95469e-05
0.00488115
1.82987e-05
0.00487592
1.7138e-05
0.00487102
1.60567e-05
0.00486642
1.50471e-05
0.00486211
1.4103e-05
0.00485807
1.32181e-05
0.00485429
1.23874e-05
0.00485074
1.16063e-05
0.00484742
1.08707e-05
0.00484431
1.0177e-05
0.0048414
9.52192e-06
0.00483868
8.90245e-06
0.00483613
8.31553e-06
0.00483376
7.75957e-06
0.00483154
7.23198e-06
0.00482948
6.73077e-06
0.00482756
6.25365e-06
0.00482578
5.7999e-06
0.00482413
5.3675e-06
0.00482261
4.95519e-06
0.00482121
4.56028e-06
0.00481992
4.18434e-06
0.00481874
3.82482e-06
0.00481766
3.48095e-06
0.00481669
3.15044e-06
0.00481581
2.83488e-06
0.00481502
2.53205e-06
0.00481432
2.24153e-06
0.00481371
1.95983e-06
0.00481317
1.69146e-06
0.00481272
1.43301e-06
0.00481234
1.18436e-06
0.00481204
9.42624e-07
0.0048118
7.11627e-07
0.00481163
4.88527e-07
0.00481153
2.7358e-07
0.00481149
6.18926e-08
0.00481151
-1.38579e-07
0.00481159
-3.32113e-07
0.00481172
-5.17949e-07
0.00481191
-7.00044e-07
0.00481215
-8.71706e-07
0.00481244
-1.03693e-06
0.00481278
-1.19478e-06
0.00481317
-1.35186e-06
0.0048136
-1.49592e-06
0.00481407
-1.63395e-06
0.00481459
-1.76487e-06
0.00481514
-1.89451e-06
0.00481573
-2.01307e-06
0.00481636
-2.12684e-06
0.00481702
-2.23463e-06
0.00481772
-2.34654e-06
0.00481845
-2.44503e-06
0.00481921
-2.54081e-06
0.00482
-2.6323e-06
0.00482083
-2.72843e-06
0.00482168
-2.81495e-06
0.00482256
-2.90126e-06
0.00482347
-2.98524e-06
0.00482441
-3.08084e-06
0.00482537
-3.16386e-06
0.00482637
-3.24859e-06
0.00482739
-3.33215e-06
0.00482844
-3.42581e-06
0.00482951
-3.51106e-06
0.00483061
-3.59907e-06
0.00483174
-3.68636e-06
0.0048329
-3.78827e-06
0.00483408
-3.87781e-06
0.00483529
-3.96962e-06
0.00483652
-4.05983e-06
0.00483778
-4.15927e-06
0.00483907
-4.24977e-06
0.00484037
-4.34085e-06
0.0048417
-4.42866e-06
0.00484305
-4.52547e-06
0.00484442
-4.61023e-06
0.00484581
-4.69262e-06
0.00484722
-4.76957e-06
0.00484865
-4.84775e-06
0.00485009
-4.91645e-06
0.00485154
-4.97971e-06
0.004853
-5.0352e-06
0.00485446
-5.08808e-06
0.00485594
-5.13085e-06
0.00485742
-5.16525e-06
0.00485889
-5.1882e-06
0.00486037
-5.20365e-06
0.00486182
-5.14018e-06
0.00486326
-5.1447e-06
-2.64572e-06
0.00782498
0.00642447
0.00732969
0.00198217
0.00702383
0.00103637
0.00683327
0.000632459
0.00670272
0.000438696
0.00660586
0.000330497
0.00652983
0.000262659
0.00646783
0.000216224
0.00641588
0.000182423
0.00637149
0.000156761
0.00633297
0.000136648
0.00629912
0.000120473
0.00626909
0.000107193
0.00624223
9.6103e-05
0.00621804
8.67109e-05
0.00619614
7.86601e-05
0.0061762
7.16877e-05
0.00615798
6.55946e-05
0.00614127
6.02284e-05
0.0061259
5.54683e-05
0.00611171
5.122e-05
0.00609859
4.74073e-05
0.00608643
4.39687e-05
0.00607513
4.08525e-05
0.00606463
3.80172e-05
0.00605484
3.54276e-05
0.00604571
3.30547e-05
0.00603719
3.08724e-05
0.00602922
2.88599e-05
0.00602177
2.69988e-05
0.00601479
2.52737e-05
0.00600826
2.36701e-05
0.00600214
2.21766e-05
0.0059964
2.07826e-05
0.00599103
1.94792e-05
0.00598599
1.82578e-05
0.00598126
1.71115e-05
0.00597684
1.60339e-05
0.00597269
1.50193e-05
0.0059688
1.40626e-05
0.00596516
1.31592e-05
0.00596176
1.23052e-05
0.00595858
1.14962e-05
0.00595561
1.07299e-05
0.00595284
1.00028e-05
0.00595026
9.3122e-06
0.00594786
8.65494e-06
0.00594563
8.02983e-06
0.00594356
7.4342e-06
0.00594165
6.86629e-06
0.00593989
6.32271e-06
0.00593827
5.80496e-06
0.00593678
5.30988e-06
0.00593542
4.83636e-06
0.00593419
4.38156e-06
0.00593308
3.94707e-06
0.00593208
3.53019e-06
0.00593119
3.13025e-06
0.00593041
2.74315e-06
0.00592973
2.37383e-06
0.00592914
2.01827e-06
0.00592865
1.67623e-06
0.00592825
1.34431e-06
0.00592793
1.02675e-06
0.0059277
7.20193e-07
0.00592755
4.24868e-07
0.00592748
1.35155e-07
0.00592748
-1.40204e-07
0.00592755
-4.06107e-07
0.0059277
-6.61535e-07
0.00592791
-9.11076e-07
0.00592818
-1.14725e-06
0.00592852
-1.3747e-06
0.00592892
-1.59237e-06
0.00592937
-1.80785e-06
0.00592988
-2.00733e-06
0.00593045
-2.19881e-06
0.00593107
-2.38109e-06
0.00593173
-2.56084e-06
0.00593245
-2.72706e-06
0.00593321
-2.88693e-06
0.00593401
-3.03908e-06
0.00593486
-3.19504e-06
0.00593575
-3.33506e-06
0.00593668
-3.4713e-06
0.00593765
-3.60191e-06
0.00593866
-3.73712e-06
0.0059397
-3.86084e-06
0.00594079
-3.98375e-06
0.0059419
-4.10331e-06
0.00594306
-4.23545e-06
0.00594425
-4.35287e-06
0.00594547
-4.47168e-06
0.00594673
-4.58843e-06
0.00594802
-4.71606e-06
0.00594934
-4.83362e-06
0.00595069
-4.95369e-06
0.00595208
-5.07208e-06
0.0059535
-5.20636e-06
0.00595495
-5.32606e-06
0.00595642
-5.44752e-06
0.00595793
-5.56613e-06
0.00595947
-5.69437e-06
0.00596103
-5.81161e-06
0.00596262
-5.92847e-06
0.00596423
-6.04031e-06
0.00596586
-6.16129e-06
0.00596752
-6.26759e-06
0.0059692
-6.36979e-06
0.0059709
-6.46432e-06
0.00597261
-6.55892e-06
0.00597433
-6.6414e-06
0.00597607
-6.71606e-06
0.00597781
-6.7802e-06
0.00597957
-6.8399e-06
0.00598132
-6.88654e-06
0.00598308
-6.92186e-06
0.00598483
-6.94195e-06
0.00598658
-6.95231e-06
0.0059883
-6.85448e-06
0.00599001
-6.85519e-06
-3.52415e-06
0.00958315
0.0071223
0.00904307
0.00252225
0.0086654
0.00141405
0.00841974
0.00087812
0.00825013
0.000608298
0.00812471
0.000455922
0.00802681
0.000360556
0.0079474
0.000295638
0.00788117
0.000248651
0.00782478
0.000213152
0.00777598
0.000185444
0.00773322
0.000163237
0.00769536
0.000145056
0.00766155
0.000129909
0.00763115
0.000117108
0.00760366
0.000106154
0.00757866
9.6682e-05
0.00755584
8.84152e-05
0.00753493
8.11429e-05
0.0075157
7.46988e-05
0.00749796
6.89529e-05
0.00748157
6.38003e-05
0.00746638
5.91566e-05
0.00745229
5.49513e-05
0.00743917
5.11274e-05
0.00742697
4.76368e-05
0.00741558
4.44398e-05
0.00740495
4.15011e-05
0.00739502
3.87922e-05
0.00738573
3.62881e-05
0.00737704
3.39678e-05
0.00736889
3.18119e-05
0.00736127
2.98045e-05
0.00735412
2.79314e-05
0.00734742
2.61805e-05
0.00734113
2.45403e-05
0.00733524
2.30013e-05
0.00732972
2.15549e-05
0.00732455
2.01934e-05
0.0073197
1.89098e-05
0.00731516
1.7698e-05
0.00731091
1.65526e-05
0.00730694
1.5468e-05
0.00730323
1.44406e-05
0.00729977
1.3466e-05
0.00729654
1.25403e-05
0.00729354
1.16597e-05
0.00729074
1.08221e-05
0.00728815
1.00241e-05
0.00728576
9.26332e-06
0.00728354
8.53561e-06
0.00728151
7.84217e-06
0.00727964
7.17917e-06
0.00727793
6.54507e-06
0.00727637
5.93644e-06
0.00727496
5.35473e-06
0.0072737
4.79666e-06
0.00727257
4.26134e-06
0.00727157
3.744e-06
0.00727069
3.24983e-06
0.00726993
2.77419e-06
0.00726929
2.31674e-06
0.00726876
1.87352e-06
0.00726834
1.44903e-06
0.00726802
1.03939e-06
0.0072678
6.44817e-07
0.00726768
2.59032e-07
0.00726765
-1.08761e-07
0.0072677
-4.64117e-07
0.00726785
-8.0564e-07
0.00726808
-1.13851e-06
0.00726838
-1.45463e-06
0.00726877
-1.7593e-06
0.00726923
-2.05131e-06
0.00726976
-2.3391e-06
0.00727036
-2.6077e-06
0.00727103
-2.86602e-06
0.00727176
-3.11263e-06
0.00727255
-3.35502e-06
0.0072734
-3.58117e-06
0.00727432
-3.79915e-06
0.00727529
-4.00726e-06
0.00727631
-4.21828e-06
0.00727738
-4.41078e-06
0.00727851
-4.59815e-06
0.00727969
-4.77811e-06
0.00728091
-4.96212e-06
0.00728218
-5.13257e-06
0.0072835
-5.30132e-06
0.00728486
-5.46522e-06
0.00728627
-5.64193e-06
0.00728772
-5.80179e-06
0.00728921
-5.96238e-06
0.00729074
-6.11955e-06
0.00729231
-6.28777e-06
0.00729392
-6.4441e-06
0.00729557
-6.60234e-06
0.00729726
-6.75747e-06
0.00729898
-6.929e-06
0.00730074
-7.08373e-06
0.00730253
-7.23939e-06
0.00730435
-7.39049e-06
0.00730621
-7.55104e-06
0.0073081
-7.69837e-06
0.00731001
-7.84401e-06
0.00731196
-7.98243e-06
0.00731392
-8.12945e-06
0.00731592
-8.25909e-06
0.00731793
-8.38258e-06
0.00731996
-8.49573e-06
0.00732201
-8.60728e-06
0.00732407
-8.70382e-06
0.00732615
-8.78984e-06
0.00732823
-8.86217e-06
0.00733032
-8.92768e-06
0.00733241
-8.97698e-06
0.0073345
-9.01171e-06
0.00733658
-9.02687e-06
0.00733866
-9.02975e-06
0.0073407
-8.88945e-06
0.00734273
-8.88717e-06
-4.57065e-06
0.0116649
0.00769175
0.0111083
0.00307885
0.0106583
0.00186413
0.0103471
0.00118928
0.0101283
0.000827098
0.00996616
0.000618058
0.00984002
0.0004867
0.00973813
0.000397522
0.00965352
0.000333268
0.00958173
0.00028494
0.0095198
0.00024737
0.00946568
0.000217365
0.00941786
0.000192873
0.00937524
0.000172524
0.00933699
0.000155363
0.00930244
0.000140707
0.00927106
0.000128055
0.00924245
0.00011703
0.00921625
0.000107344
0.00919217
9.87714e-05
0.00916999
9.11354e-05
0.0091495
8.42945e-05
0.00913052
7.81343e-05
0.00911291
7.25602e-05
0.00909654
6.74952e-05
0.0090813
6.28747e-05
0.0090671
5.86453e-05
0.00905384
5.47597e-05
0.00904145
5.11799e-05
0.00902987
4.78723e-05
0.00901903
4.48088e-05
0.00900888
4.19634e-05
0.00899936
3.93152e-05
0.00899045
3.6845e-05
0.00898209
3.45366e-05
0.00897426
3.23749e-05
0.00896691
3.03473e-05
0.00896003
2.84421e-05
0.00895357
2.66492e-05
0.00894752
2.49594e-05
0.00894185
2.33645e-05
0.00893655
2.18573e-05
0.00893159
2.04304e-05
0.00892695
1.90791e-05
0.00892262
1.77974e-05
0.00891858
1.65803e-05
0.00891481
1.54227e-05
0.00891131
1.43217e-05
0.00890806
1.3273e-05
0.00890505
1.22733e-05
0.00890227
1.13176e-05
0.00889971
1.04066e-05
0.00889735
9.53575e-06
0.00889519
8.70294e-06
0.00889323
7.90398e-06
0.00889144
7.14016e-06
0.00888983
6.40752e-06
0.00888839
5.70482e-06
0.0088871
5.02651e-06
0.00888597
4.37806e-06
0.00888499
3.75413e-06
0.00888416
3.15415e-06
0.00888346
2.57353e-06
0.00888289
2.01707e-06
0.00888245
1.48026e-06
0.00888213
9.63242e-07
0.00888193
4.58936e-07
0.00888184
-2.28178e-08
0.00888187
-4.88528e-07
0.008882
-9.36456e-07
0.00888223
-1.37235e-06
0.00888256
-1.78739e-06
0.00888299
-2.18764e-06
0.00888351
-2.57181e-06
0.00888412
-2.94937e-06
0.00888482
-3.30388e-06
0.0088856
-3.64533e-06
0.00888646
-3.97209e-06
0.0088874
-4.29261e-06
0.00888841
-4.59363e-06
0.00888949
-4.88419e-06
0.00889065
-5.16229e-06
0.00889187
-5.44222e-06
0.00889316
-5.70034e-06
0.00889451
-5.95152e-06
0.00889593
-6.19306e-06
0.00889741
-6.43781e-06
0.00889894
-6.66629e-06
0.00890053
-6.89171e-06
0.00890217
-7.11029e-06
0.00890387
-7.3418e-06
0.00890563
-7.55349e-06
0.00890743
-7.76479e-06
0.00890928
-7.97082e-06
0.00891118
-8.18787e-06
0.00891313
-8.39048e-06
0.00891512
-8.59398e-06
0.00891715
-8.79246e-06
0.00891923
-9.00782e-06
0.00892135
-9.20336e-06
0.00892351
-9.39856e-06
0.00892571
-9.58708e-06
0.00892794
-9.78468e-06
0.00893021
-9.96621e-06
0.00893251
-1.01444e-05
0.00893484
-1.03127e-05
0.0089372
-1.0489e-05
0.00893959
-1.06446e-05
0.008942
-1.07915e-05
0.00894443
-1.09251e-05
0.00894687
-1.10552e-05
0.00894934
-1.11669e-05
0.00895181
-1.12649e-05
0.0089543
-1.13457e-05
0.00895679
-1.14171e-05
0.00895928
-1.14686e-05
0.00896177
-1.15018e-05
0.00896425
-1.15106e-05
0.00896673
-1.15045e-05
0.00896915
-1.13134e-05
0.00897157
-1.13062e-05
-5.81634e-06
0.0141222
0.00812849
0.0135876
0.00361341
0.013076
0.0023758
0.0126916
0.00157368
0.0124125
0.00110616
0.0122038
0.000826792
0.0120413
0.000649181
0.0119104
0.000528424
0.0118021
0.000441626
0.0117104
0.00037657
0.0116316
0.000326176
0.0115629
0.000286065
0.0115024
0.000253426
0.0114485
0.000226379
0.0114002
0.000203625
0.0113567
0.000184234
0.0113172
0.000167525
0.0112813
0.000152989
0.0112484
0.000140237
0.0112182
0.000128965
0.0111904
0.000118937
0.0111647
0.000109963
0.011141
0.00010189
0.0111189
9.45911e-05
0.0110985
8.79645e-05
0.0110794
8.19239e-05
0.0110617
7.63982e-05
0.0110451
7.13252e-05
0.0110296
6.66541e-05
0.0110152
6.23405e-05
0.0110016
5.83471e-05
0.0109889
5.464e-05
0.0109771
5.11913e-05
0.0109659
4.79757e-05
0.0109555
4.4972e-05
0.0109457
4.21601e-05
0.0109365
3.95236e-05
0.0109279
3.70471e-05
0.0109199
3.47172e-05
0.0109123
3.2522e-05
0.0109052
3.04507e-05
0.0108986
2.84937e-05
0.0108924
2.66417e-05
0.0108866
2.4888e-05
0.0108811
2.32249e-05
0.0108761
2.16461e-05
0.0108713
2.01449e-05
0.010867
1.87173e-05
0.0108629
1.73577e-05
0.0108591
1.60619e-05
0.0108556
1.48236e-05
0.0108523
1.36432e-05
0.0108494
1.25149e-05
0.0108466
1.1436e-05
0.0108441
1.04015e-05
0.0108419
9.41231e-06
0.0108398
8.46367e-06
0.010838
7.55393e-06
0.0108363
6.67671e-06
0.0108348
5.83755e-06
0.0108336
5.03032e-06
0.0108325
4.25425e-06
0.0108315
3.504e-06
0.0108308
2.78456e-06
0.0108302
2.09071e-06
0.0108297
1.42251e-06
0.0108294
7.72089e-07
0.0108292
1.49785e-07
0.0108292
-4.521e-07
0.0108293
-1.03159e-06
0.0108295
-1.59474e-06
0.0108298
-2.13219e-06
0.0108303
-2.65084e-06
0.0108309
-3.1492e-06
0.0108316
-3.63772e-06
0.0108324
-4.09887e-06
0.0108333
-4.54361e-06
0.0108343
-4.97005e-06
0.0108353
-5.38754e-06
0.0108365
-5.78178e-06
0.0108378
-6.1628e-06
0.0108392
-6.52813e-06
0.0108406
-6.89338e-06
0.0108422
-7.23323e-06
0.0108438
-7.56385e-06
0.0108455
-7.88194e-06
0.0108472
-8.20168e-06
0.0108491
-8.50202e-06
0.010851
-8.79746e-06
0.0108529
-9.08341e-06
0.010855
-9.38148e-06
0.0108571
-9.65657e-06
0.0108593
-9.92967e-06
0.0108615
-1.0195e-05
0.0108638
-1.04706e-05
0.0108661
-1.07288e-05
0.0108685
-1.09865e-05
0.0108709
-1.12367e-05
0.0108734
-1.15034e-05
0.010876
-1.17471e-05
0.0108786
-1.19888e-05
0.0108812
-1.22212e-05
0.0108839
-1.24616e-05
0.0108866
-1.26829e-05
0.0108893
-1.28988e-05
0.0108921
-1.31017e-05
0.010895
-1.33114e-05
0.0108978
-1.34967e-05
0.0109007
-1.36706e-05
0.0109036
-1.38276e-05
0.0109065
-1.39788e-05
0.0109095
-1.41077e-05
0.0109124
-1.42195e-05
0.0109154
-1.43102e-05
0.0109184
-1.43884e-05
0.0109213
-1.44425e-05
0.0109243
-1.44744e-05
0.0109273
-1.44763e-05
0.0109302
-1.44602e-05
0.0109331
-1.421e-05
0.010936
-1.41994e-05
-7.31041e-06
0.0170157
0.00843801
0.0165448
0.00408431
0.0160001
0.0029205
0.0155424
0.00203134
0.0151931
0.00145547
0.0149266
0.00109326
0.0147179
0.000857872
0.0145497
0.00069663
0.0144107
0.000580626
0.0142935
0.000493825
0.0141929
0.000426762
0.0141054
0.00037354
0.0140285
0.000330354
0.0139602
0.000294663
0.0138991
0.000264709
0.0138441
0.000239238
0.0137943
0.000217334
0.013749
0.000198311
0.0137076
0.00018165
0.0136696
0.000166944
0.0136347
0.000153879
0.0136024
0.0001422
0.0135726
0.000131705
0.013545
0.000122227
0.0135193
0.000113629
0.0134954
0.000105798
0.0134732
9.86401e-05
0.0134524
9.20734e-05
0.0134331
8.6031e-05
0.013415
8.04547e-05
0.013398
7.52951e-05
0.0133821
7.05081e-05
0.0133673
6.60569e-05
0.0133533
6.19088e-05
0.0133403
5.80356e-05
0.013328
5.44113e-05
0.0133165
5.10144e-05
0.0133058
4.78249e-05
0.0132956
4.48253e-05
0.0132862
4.2e-05
0.0132773
3.93351e-05
0.013269
3.6818e-05
0.0132612
3.44367e-05
0.0132539
3.21824e-05
0.013247
3.00451e-05
0.0132407
2.80166e-05
0.0132347
2.60884e-05
0.0132292
2.42551e-05
0.013224
2.25094e-05
0.0132193
2.0846e-05
0.0132148
1.92571e-05
0.0132107
1.77423e-05
0.0132069
1.62948e-05
0.0132035
1.49109e-05
0.0132003
1.35844e-05
0.0131974
1.2316e-05
0.0131947
1.10998e-05
0.0131924
9.93368e-06
0.0131902
8.81019e-06
0.0131883
7.73501e-06
0.0131867
6.70102e-06
0.0131852
5.70713e-06
0.013184
4.74713e-06
0.0131829
3.8262e-06
0.0131821
2.93828e-06
0.0131814
2.08325e-06
0.0131809
1.25222e-06
0.0131806
4.56403e-07
0.0131805
-3.13511e-07
0.0131805
-1.05563e-06
0.0131807
-1.77622e-06
0.013181
-2.46517e-06
0.0131815
-3.13032e-06
0.0131821
-3.7701e-06
0.0131829
-4.39616e-06
0.0131838
-4.98948e-06
0.0131848
-5.5623e-06
0.0131859
-6.1124e-06
0.0131872
-6.65028e-06
0.0131886
-7.16029e-06
0.0131901
-7.6536e-06
0.0131917
-8.12727e-06
0.0131934
-8.59856e-06
0.0131952
-9.03983e-06
0.0131971
-9.46889e-06
0.0131991
-9.88182e-06
0.0132012
-1.02944e-05
0.0132034
-1.06834e-05
0.0132056
-1.10651e-05
0.013208
-1.14339e-05
0.0132104
-1.18138e-05
0.0132129
-1.21663e-05
0.0132155
-1.25147e-05
0.0132182
-1.28521e-05
0.0132209
-1.31987e-05
0.0132237
-1.35241e-05
0.0132266
-1.38469e-05
0.0132295
-1.41591e-05
0.0132325
-1.44872e-05
0.0132355
-1.47883e-05
0.0132386
-1.50852e-05
0.0132417
-1.53696e-05
0.0132449
-1.56608e-05
0.0132482
-1.5929e-05
0.0132515
-1.61892e-05
0.0132548
-1.6433e-05
0.0132582
-1.6682e-05
0.0132616
-1.69022e-05
0.013265
-1.71079e-05
0.0132685
-1.72927e-05
0.013272
-1.74689e-05
0.0132755
-1.76185e-05
0.013279
-1.77471e-05
0.0132826
-1.78502e-05
0.0132861
-1.79372e-05
0.0132897
-1.79955e-05
0.0132932
-1.80269e-05
0.0132968
-1.80222e-05
0.0133003
-1.79963e-05
0.0133038
-1.76782e-05
0.0133072
-1.76624e-05
-9.09892e-06
0.0204181
0.00863699
0.020045
0.00445733
0.0195159
0.00344959
0.0190009
0.0025464
0.0185768
0.00187952
0.018242
0.00142811
0.0179759
0.00112395
0.0177603
0.000912207
0.017582
0.000758946
0.0174317
0.000644116
0.017303
0.000555475
0.0171913
0.000485259
0.0170932
0.000428414
0.0170063
0.000381544
0.0169288
0.000342298
0.016859
0.000308996
0.0167959
0.000280415
0.0167386
0.000255639
0.0166863
0.000233975
0.0166383
0.000214884
0.0165943
0.000197946
0.0165536
0.000182825
0.0165161
0.000169253
0.0164813
0.000157008
0.016449
0.000145913
0.016419
0.000135817
0.016391
0.000126596
0.016365
0.000118144
0.0163406
0.000110373
0.0163179
0.000103206
0.0162966
9.65787e-05
0.0162767
9.0434e-05
0.016258
8.47237e-05
0.0162405
7.94051e-05
0.0162241
7.44413e-05
0.0162087
6.97991e-05
0.0161943
6.54499e-05
0.0161807
6.1368e-05
0.016168
5.75308e-05
0.0161561
5.39179e-05
0.0161449
5.05114e-05
0.0161345
4.72949e-05
0.0161246
4.42531e-05
0.0161154
4.13743e-05
0.0161068
3.86458e-05
0.0160988
3.6057e-05
0.0160913
3.35969e-05
0.0160843
3.12583e-05
0.0160778
2.90322e-05
0.0160717
2.69114e-05
0.0160661
2.48866e-05
0.0160609
2.29562e-05
0.016056
2.11119e-05
0.0160516
1.9349e-05
0.0160475
1.766e-05
0.0160438
1.60449e-05
0.0160404
1.44966e-05
0.0160373
1.30124e-05
0.0160345
1.15835e-05
0.0160321
1.02156e-05
0.0160299
8.90052e-06
0.0160279
7.63667e-06