/*--------------------------------*- C++ -*----------------------------------*\
  =========                 |
  \\      /  F ield         | OpenFOAM: The Open Source CFD Toolbox
   \\    /   O peration     | Website:  https://openfoam.org
    \\  /    A nd           | Version:  8
     \\/     M anipulation  |
\*---------------------------------------------------------------------------*/
FoamFile
{
    version     2.0;
    format      ascii;
    class       volVectorField;
    location    "900";
    object      U;
}
// * * * * * * * * * * * * * * * * * * * * * * * * * * * * * * * * * * * * * //

dimensions      [0 1 -1 0 0 0 0];

internalField   nonuniform List<vector> 
7320
(
(22.6429 -0.848127 0)
(20.2991 -0.0156863 0)
(19.4729 0.000192382 0)
(18.9932 0.000303713 0)
(18.6577 0.000223816 0)
(18.4025 0.000174268 0)
(18.1985 0.000141578 0)
(18.0298 0.000118314 0)
(17.8872 0.000100895 0)
(17.7644 8.7398e-05 0)
(17.6573 7.66564e-05 0)
(17.5629 6.79107e-05 0)
(17.4788 6.06597e-05 0)
(17.4034 5.45566e-05 0)
(17.3353 4.93559e-05 0)
(17.2736 4.48717e-05 0)
(17.2174 4.09697e-05 0)
(17.1659 3.75458e-05 0)
(17.1186 3.45241e-05 0)
(17.0751 3.18316e-05 0)
(17.035 2.94219e-05 0)
(16.9978 2.72537e-05 0)
(16.9633 2.52972e-05 0)
(16.9313 2.35177e-05 0)
(16.9015 2.18955e-05 0)
(16.8737 2.04113e-05 0)
(16.8478 1.90552e-05 0)
(16.8236 1.78008e-05 0)
(16.801 1.66424e-05 0)
(16.7798 1.55696e-05 0)
(16.76 1.45784e-05 0)
(16.7415 1.3652e-05 0)
(16.7241 1.27885e-05 0)
(16.7078 1.19816e-05 0)
(16.6926 1.12327e-05 0)
(16.6783 1.05244e-05 0)
(16.6649 9.85947e-06 0)
(16.6523 9.23337e-06 0)
(16.6406 8.64791e-06 0)
(16.6296 8.09127e-06 0)
(16.6193 7.5661e-06 0)
(16.6097 7.0688e-06 0)
(16.6007 6.60246e-06 0)
(16.5923 6.15565e-06 0)
(16.5845 5.73221e-06 0)
(16.5772 5.32903e-06 0)
(16.5704 4.94852e-06 0)
(16.5641 4.5833e-06 0)
(16.5583 4.23632e-06 0)
(16.553 3.9047e-06 0)
(16.548 3.58943e-06 0)
(16.5435 3.28676e-06 0)
(16.5394 2.99829e-06 0)
(16.5356 2.72135e-06 0)
(16.5322 2.45714e-06 0)
(16.5291 2.20303e-06 0)
(16.5264 1.9604e-06 0)
(16.5239 1.7267e-06 0)
(16.5218 1.50039e-06 0)
(16.5199 1.28409e-06 0)
(16.5184 1.07673e-06 0)
(16.5171 8.7554e-07 0)
(16.5161 6.81147e-07 0)
(16.5153 4.936e-07 0)
(16.5147 3.14339e-07 0)
(16.5144 1.39348e-07 0)
(16.5143 -3.53386e-08 0)
(16.5145 -1.99492e-07 0)
(16.5148 -3.55198e-07 0)
(16.5154 -5.08548e-07 0)
(16.5161 -6.58493e-07 0)
(16.517 -7.99797e-07 0)
(16.5182 -9.3157e-07 0)
(16.5195 -1.05991e-06 0)
(16.5209 -1.19679e-06 0)
(16.5225 -1.31072e-06 0)
(16.5243 -1.41642e-06 0)
(16.5262 -1.51689e-06 0)
(16.5283 -1.62674e-06 0)
(16.5304 -1.71118e-06 0)
(16.5327 -1.7917e-06 0)
(16.5351 -1.86276e-06 0)
(16.5376 -1.97557e-06 0)
(16.5402 -2.03078e-06 0)
(16.5429 -2.08849e-06 0)
(16.5457 -2.13038e-06 0)
(16.5485 -2.22624e-06 0)
(16.5515 -2.25775e-06 0)
(16.5545 -2.30292e-06 0)
(16.5575 -2.32987e-06 0)
(16.5607 -2.46293e-06 0)
(16.5639 -2.48588e-06 0)
(16.5672 -2.5271e-06 0)
(16.5706 -2.54387e-06 0)
(16.5741 -2.66252e-06 0)
(16.5776 -2.68419e-06 0)
(16.5813 -2.73478e-06 0)
(16.585 -2.76478e-06 0)
(16.5888 -2.9212e-06 0)
(16.5927 -2.96214e-06 0)
(16.5968 -3.03047e-06 0)
(16.6009 -3.07809e-06 0)
(16.6051 -3.20327e-06 0)
(16.6095 -3.26606e-06 0)
(16.614 -3.35966e-06 0)
(16.6185 -3.44271e-06 0)
(16.6233 -3.53909e-06 0)
(16.6281 -3.63379e-06 0)
(16.6331 -3.75052e-06 0)
(16.6381 -3.86716e-06 0)
(16.6434 -3.92463e-06 0)
(16.6487 -4.05015e-06 0)
(16.6541 -4.17764e-06 0)
(16.6597 -4.32315e-06 0)
(16.6653 -4.28585e-06 0)
(16.6711 -4.4283e-06 0)
(16.6769 -4.53745e-06 0)
(16.6828 -4.69269e-06 0)
(16.6888 -4.708e-06 0)
(16.6949 -4.75891e-06 0)
(16.7008 -4.67266e-06 0)
(16.707 -2.34978e-06 0)
(26.6037 0.16714 0)
(23.9491 0.00743101 0)
(22.9106 0.00132356 0)
(22.324 0.000761371 0)
(21.922 0.000547531 0)
(21.6197 0.000424673 0)
(21.3794 0.00034431 0)
(21.1815 0.000287381 0)
(21.0145 0.000244876 0)
(20.8711 0.000211999 0)
(20.7461 0.000185866 0)
(20.636 0.000164612 0)
(20.5381 0.000147004 0)
(20.4503 0.000132192 0)
(20.3712 0.000119573 0)
(20.2994 0.000108698 0)
(20.2341 9.92392e-05 0)
(20.1743 9.09415e-05 0)
(20.1194 8.3614e-05 0)
(20.0688 7.70911e-05 0)
(20.0222 7.12545e-05 0)
(19.979 6.60039e-05 0)
(19.939 6.12623e-05 0)
(19.9018 5.69539e-05 0)
(19.8672 5.30272e-05 0)
(19.835 4.94351e-05 0)
(19.8049 4.61452e-05 0)
(19.7769 4.31096e-05 0)
(19.7506 4.03068e-05 0)
(19.7261 3.77117e-05 0)
(19.7031 3.53083e-05 0)
(19.6816 3.30676e-05 0)
(19.6615 3.09792e-05 0)
(19.6426 2.90278e-05 0)
(19.6249 2.72087e-05 0)
(19.6083 2.54961e-05 0)
(19.5927 2.38883e-05 0)
(19.5782 2.2375e-05 0)
(19.5645 2.09543e-05 0)
(19.5518 1.96091e-05 0)
(19.5398 1.83391e-05 0)
(19.5286 1.71371e-05 0)
(19.5182 1.60037e-05 0)
(19.5085 1.49239e-05 0)
(19.4994 1.38999e-05 0)
(19.4909 1.29258e-05 0)
(19.4831 1.20023e-05 0)
(19.4758 1.11199e-05 0)
(19.469 1.02801e-05 0)
(19.4628 9.47834e-06 0)
(19.4571 8.71373e-06 0)
(19.4518 7.98215e-06 0)
(19.447 7.28361e-06 0)
(19.4426 6.61415e-06 0)
(19.4386 5.97365e-06 0)
(19.435 5.35919e-06 0)
(19.4318 4.77089e-06 0)
(19.4289 4.20519e-06 0)
(19.4264 3.65861e-06 0)
(19.4243 3.13539e-06 0)
(19.4224 2.63241e-06 0)
(19.4209 2.14619e-06 0)
(19.4197 1.67614e-06 0)
(19.4188 1.22316e-06 0)
(19.4181 7.87476e-07 0)
(19.4177 3.64538e-07 0)
(19.4176 -5.16252e-08 0)
(19.4177 -4.47331e-07 0)
(19.4181 -8.26419e-07 0)
(19.4187 -1.19537e-06 0)
(19.4195 -1.5537e-06 0)
(19.4206 -1.89406e-06 0)
(19.4218 -2.21663e-06 0)
(19.4233 -2.52761e-06 0)
(19.4249 -2.84173e-06 0)
(19.4267 -3.12019e-06 0)
(19.4287 -3.38228e-06 0)
(19.4309 -3.63059e-06 0)
(19.4332 -3.8834e-06 0)
(19.4357 -4.09806e-06 0)
(19.4383 -4.30183e-06 0)
(19.441 -4.48827e-06 0)
(19.4439 -4.72101e-06 0)
(19.4468 -4.8769e-06 0)
(19.4499 -5.03204e-06 0)
(19.4531 -5.16502e-06 0)
(19.4564 -5.36134e-06 0)
(19.4598 -5.47563e-06 0)
(19.4633 -5.60521e-06 0)
(19.4669 -5.7127e-06 0)
(19.4706 -5.95296e-06 0)
(19.4743 -6.05429e-06 0)
(19.4782 -6.18018e-06 0)
(19.4822 -6.27891e-06 0)
(19.4863 -6.5064e-06 0)
(19.4904 -6.61392e-06 0)
(19.4947 -6.76005e-06 0)
(19.4991 -6.88439e-06 0)
(19.5036 -7.17315e-06 0)
(19.5083 -7.31473e-06 0)
(19.513 -7.49348e-06 0)
(19.5179 -7.64971e-06 0)
(19.5229 -7.90828e-06 0)
(19.5281 -8.08611e-06 0)
(19.5333 -8.30191e-06 0)
(19.5387 -8.50537e-06 0)
(19.5443 -8.73583e-06 0)
(19.55 -8.95473e-06 0)
(19.5557 -9.19609e-06 0)
(19.5617 -9.43555e-06 0)
(19.5677 -9.60595e-06 0)
(19.5739 -9.85234e-06 0)
(19.5802 -1.00921e-05 0)
(19.5865 -1.03486e-05 0)
(19.593 -1.03808e-05 0)
(19.5996 -1.06261e-05 0)
(19.6062 -1.08191e-05 0)
(19.613 -1.10582e-05 0)
(19.6197 -1.11127e-05 0)
(19.6266 -1.11453e-05 0)
(19.6332 -1.1085e-05 0)
(19.6401 -5.63661e-06 0)
(28.9497 0.0984766 0)
(26.1304 0.00639105 0)
(24.9213 0.0023381 0)
(24.2467 0.00142135 0)
(23.7932 0.00101462 0)
(23.4561 0.00078273 0)
(23.1903 0.000632595 0)
(22.9724 0.000526941 0)
(22.7892 0.000448389 0)
(22.6322 0.000387804 0)
(22.4957 0.000339744 0)
(22.3756 0.00030072 0)
(22.2689 0.00026843 0)
(22.1734 0.000241294 0)
(22.0873 0.000218193 0)
(22.0093 0.000198301 0)
(21.9383 0.000181007 0)
(21.8733 0.000165843 0)
(21.8137 0.000152456 0)
(21.7589 0.000140545 0)
(21.7083 0.000129891 0)
(21.6615 0.00012031 0)
(21.6181 0.000111657 0)
(21.5778 0.000103799 0)
(21.5403 9.66386e-05 0)
(21.5054 9.00895e-05 0)
(21.4728 8.40884e-05 0)
(21.4424 7.85558e-05 0)
(21.414 7.34485e-05 0)
(21.3874 6.87202e-05 0)
(21.3625 6.43391e-05 0)
(21.3392 6.02578e-05 0)
(21.3174 5.64539e-05 0)
(21.2969 5.29004e-05 0)
(21.2777 4.95839e-05 0)
(21.2598 4.64658e-05 0)
(21.2429 4.35384e-05 0)
(21.2272 4.07838e-05 0)
(21.2124 3.81951e-05 0)
(21.1985 3.57468e-05 0)
(21.1856 3.34349e-05 0)
(21.1735 3.12474e-05 0)
(21.1621 2.9182e-05 0)
(21.1516 2.72173e-05 0)
(21.1417 2.53534e-05 0)
(21.1326 2.35811e-05 0)
(21.124 2.18992e-05 0)
(21.1161 2.02938e-05 0)
(21.1088 1.87653e-05 0)
(21.102 1.73063e-05 0)
(21.0958 1.59146e-05 0)
(21.09 1.45835e-05 0)
(21.0848 1.33119e-05 0)
(21.08 1.20939e-05 0)
(21.0757 1.0928e-05 0)
(21.0717 9.80987e-06 0)
(21.0682 8.73847e-06 0)
(21.0651 7.70879e-06 0)
(21.0624 6.71524e-06 0)
(21.06 5.76306e-06 0)
(21.058 4.8471e-06 0)
(21.0563 3.96283e-06 0)
(21.0549 3.10822e-06 0)
(21.0539 2.28497e-06 0)
(21.0531 1.49202e-06 0)
(21.0527 7.24115e-07 0)
(21.0525 -2.787e-08 0)
(21.0526 -7.45396e-07 0)
(21.0529 -1.43433e-06 0)
(21.0535 -2.10171e-06 0)
(21.0544 -2.74874e-06 0)
(21.0554 -3.36418e-06 0)
(21.0567 -3.95013e-06 0)
(21.0582 -4.51303e-06 0)
(21.06 -5.07375e-06 0)
(21.0619 -5.58027e-06 0)
(21.064 -6.05939e-06 0)
(21.0663 -6.51334e-06 0)
(21.0687 -6.96795e-06 0)
(21.0713 -7.36632e-06 0)
(21.0741 -7.74536e-06 0)
(21.077 -8.09682e-06 0)
(21.08 -8.5053e-06 0)
(21.0832 -8.80947e-06 0)
(21.0865 -9.10932e-06 0)
(21.09 -9.3786e-06 0)
(21.0935 -9.72742e-06 0)
(21.0972 -9.96954e-06 0)
(21.101 -1.02297e-05 0)
(21.1048 -1.04621e-05 0)
(21.1089 -1.08656e-05 0)
(21.113 -1.10912e-05 0)
(21.1172 -1.13486e-05 0)
(21.1216 -1.1574e-05 0)
(21.126 -1.19639e-05 0)
(21.1306 -1.22033e-05 0)
(21.1353 -1.24922e-05 0)
(21.1401 -1.27556e-05 0)
(21.1451 -1.32316e-05 0)
(21.1502 -1.35194e-05 0)
(21.1554 -1.3854e-05 0)
(21.1607 -1.41612e-05 0)
(21.1662 -1.46001e-05 0)
(21.1718 -1.49338e-05 0)
(21.1775 -1.53116e-05 0)
(21.1834 -1.56717e-05 0)
(21.1894 -1.60741e-05 0)
(21.1955 -1.64494e-05 0)
(21.2017 -1.68453e-05 0)
(21.2081 -1.72331e-05 0)
(21.2145 -1.7539e-05 0)
(21.2211 -1.79249e-05 0)
(21.2278 -1.82923e-05 0)
(21.2345 -1.86702e-05 0)
(21.2413 -1.8776e-05 0)
(21.2483 -1.9126e-05 0)
(21.2552 -1.93994e-05 0)
(21.2622 -1.97134e-05 0)
(21.2693 -1.97932e-05 0)
(21.2763 -1.97543e-05 0)
(21.2832 -1.96994e-05 0)
(21.2903 -1.0054e-05 0)
(30.6449 0.0459572 0)
(27.8131 0.00831863 0)
(26.4561 0.00392316 0)
(25.6943 0.00237911 0)
(25.1892 0.00168081 0)
(24.8184 0.00128804 0)
(24.5284 0.00103664 0)
(24.2922 0.000861124 0)
(24.0944 0.00073134 0)
(23.9254 0.000631621 0)
(23.7788 0.000552741 0)
(23.6501 0.000488833 0)
(23.5359 0.000436045 0)
(23.4338 0.000391744 0)
(23.3419 0.000354074 0)
(23.2586 0.000321667 0)
(23.1829 0.000293518 0)
(23.1137 0.000268854 0)
(23.0503 0.000247089 0)
(22.9919 0.000227738 0)
(22.9381 0.000210437 0)
(22.8883 0.000194885 0)
(22.8421 0.000180844 0)
(22.7993 0.000168098 0)
(22.7594 0.000156488 0)
(22.7223 0.000145872 0)
(22.6877 0.000136144 0)
(22.6554 0.00012718 0)
(22.6252 0.000118907 0)
(22.597 0.00011125 0)
(22.5705 0.000104154 0)
(22.5458 9.75476e-05 0)
(22.5226 9.13909e-05 0)
(22.5009 8.56404e-05 0)
(22.4805 8.02705e-05 0)
(22.4614 7.52262e-05 0)
(22.4436 7.04907e-05 0)
(22.4268 6.60357e-05 0)
(22.4111 6.18469e-05 0)
(22.3964 5.78881e-05 0)
(22.3826 5.415e-05 0)
(22.3697 5.06134e-05 0)
(22.3577 4.7272e-05 0)
(22.3465 4.40964e-05 0)
(22.336 4.10835e-05 0)
(22.3262 3.82193e-05 0)
(22.3171 3.54998e-05 0)
(22.3087 3.29057e-05 0)
(22.3009 3.04352e-05 0)
(22.2937 2.80777e-05 0)
(22.287 2.58285e-05 0)
(22.2809 2.3678e-05 0)
(22.2753 2.1623e-05 0)
(22.2702 1.96551e-05 0)
(22.2655 1.77711e-05 0)
(22.2613 1.59646e-05 0)
(22.2576 1.4233e-05 0)
(22.2542 1.25693e-05 0)
(22.2513 1.09656e-05 0)
(22.2487 9.42753e-06 0)
(22.2465 7.94766e-06 0)
(22.2447 6.52015e-06 0)
(22.2432 5.14133e-06 0)
(22.242 3.81328e-06 0)
(22.2411 2.53352e-06 0)
(22.2406 1.29587e-06 0)
(22.2403 8.80046e-08 0)
(22.2404 -1.06758e-06 0)
(22.2407 -2.17832e-06 0)
(22.2412 -3.25165e-06 0)
(22.2421 -4.29053e-06 0)
(22.2431 -5.28061e-06 0)
(22.2444 -6.2258e-06 0)
(22.246 -7.13292e-06 0)
(22.2477 -8.02819e-06 0)
(22.2497 -8.84855e-06 0)
(22.2518 -9.62749e-06 0)
(22.2542 -1.03671e-05 0)
(22.2567 -1.10997e-05 0)
(22.2594 -1.17569e-05 0)
(22.2623 -1.2384e-05 0)
(22.2653 -1.29713e-05 0)
(22.2685 -1.36216e-05 0)
(22.2718 -1.41417e-05 0)
(22.2753 -1.46524e-05 0)
(22.2789 -1.51228e-05 0)
(22.2826 -1.56852e-05 0)
(22.2865 -1.61181e-05 0)
(22.2905 -1.65708e-05 0)
(22.2946 -1.69891e-05 0)
(22.2989 -1.76111e-05 0)
(22.3033 -1.80209e-05 0)
(22.3078 -1.84688e-05 0)
(22.3124 -1.88787e-05 0)
(22.3172 -1.94848e-05 0)
(22.3221 -1.99127e-05 0)
(22.3271 -2.03995e-05 0)
(22.3322 -2.08559e-05 0)
(22.3375 -2.15661e-05 0)
(22.3429 -2.2052e-05 0)
(22.3484 -2.25922e-05 0)
(22.3541 -2.30978e-05 0)
(22.3599 -2.37593e-05 0)
(22.3658 -2.42923e-05 0)
(22.3718 -2.4873e-05 0)
(22.378 -2.54271e-05 0)
(22.3843 -2.60321e-05 0)
(22.3907 -2.65955e-05 0)
(22.3972 -2.71738e-05 0)
(22.4038 -2.77338e-05 0)
(22.4105 -2.81934e-05 0)
(22.4173 -2.87347e-05 0)
(22.4241 -2.92406e-05 0)
(22.4311 -2.97464e-05 0)
(22.438 -2.99272e-05 0)
(22.4451 -3.03781e-05 0)
(22.4522 -3.07231e-05 0)
(22.4593 -3.10963e-05 0)
(22.4664 -3.11844e-05 0)
(22.4735 -3.10042e-05 0)
(22.4804 -3.09441e-05 0)
(22.4876 -1.58134e-05 0)
(31.9342 0.0469922 0)
(29.2283 0.0125097 0)
(27.7543 0.00606046 0)
(26.9065 0.00365719 0)
(26.348 0.00255943 0)
(25.9421 0.00194753 0)
(25.6273 0.00155994 0)
(25.3724 0.00129159 0)
(25.1601 0.00109437 0)
(24.9793 0.000943505 0)
(24.8229 0.000824566 0)
(24.6858 0.000728457 0)
(24.5645 0.000649237 0)
(24.4562 0.000582868 0)
(24.3587 0.00052651 0)
(24.2706 0.000478088 0)
(24.1905 0.000436069 0)
(24.1174 0.000399285 0)
(24.0504 0.000366847 0)
(23.9888 0.000338029 0)
(23.9319 0.00031228 0)
(23.8794 0.000289146 0)
(23.8308 0.000268266 0)
(23.7856 0.000249324 0)
(23.7436 0.000232076 0)
(23.7045 0.000216311 0)
(23.6681 0.000201865 0)
(23.634 0.000188562 0)
(23.6022 0.000176287 0)
(23.5725 0.00016493 0)
(23.5447 0.000154404 0)
(23.5186 0.000144609 0)
(23.4942 0.000135483 0)
(23.4713 0.000126961 0)
(23.4499 0.000119001 0)
(23.4298 0.000111528 0)
(23.411 0.000104513 0)
(23.3933 9.79156e-05 0)
(23.3768 9.17106e-05 0)
(23.3613 8.58494e-05 0)
(23.3468 8.03153e-05 0)
(23.3332 7.50804e-05 0)
(23.3205 7.01324e-05 0)
(23.3087 6.5433e-05 0)
(23.2976 6.09744e-05 0)
(23.2873 5.67367e-05 0)
(23.2777 5.27117e-05 0)
(23.2688 4.88744e-05 0)
(23.2606 4.52195e-05 0)
(23.2529 4.17323e-05 0)
(23.2459 3.8405e-05 0)
(23.2394 3.52245e-05 0)
(23.2335 3.21848e-05 0)
(23.228 2.92746e-05 0)
(23.2231 2.64882e-05 0)
(23.2186 2.3817e-05 0)
(23.2146 2.1256e-05 0)
(23.211 1.87961e-05 0)
(23.2079 1.64264e-05 0)
(23.2051 1.41529e-05 0)
(23.2027 1.19655e-05 0)
(23.2007 9.85676e-06 0)
(23.1991 7.821e-06 0)
(23.1978 5.86061e-06 0)
(23.1968 3.97129e-06 0)
(23.1962 2.14583e-06 0)
(23.1958 3.68486e-07 0)
(23.1958 -1.33503e-06 0)
(23.196 -2.97391e-06 0)
(23.1965 -4.55538e-06 0)
(23.1973 -6.08465e-06 0)
(23.1983 -7.54448e-06 0)
(23.1996 -8.94103e-06 0)
(23.2012 -1.02815e-05 0)
(23.2029 -1.15974e-05 0)
(23.2049 -1.28156e-05 0)
(23.2071 -1.39763e-05 0)
(23.2094 -1.50812e-05 0)
(23.212 -1.61692e-05 0)
(23.2148 -1.71611e-05 0)
(23.2177 -1.81109e-05 0)
(23.2208 -1.90068e-05 0)
(23.2241 -1.99682e-05 0)
(23.2276 -2.07741e-05 0)
(23.2312 -2.15643e-05 0)
(23.2349 -2.23029e-05 0)
(23.2388 -2.31425e-05 0)
(23.2428 -2.38305e-05 0)
(23.247 -2.45386e-05 0)
(23.2513 -2.52037e-05 0)
(23.2558 -2.60992e-05 0)
(23.2604 -2.67511e-05 0)
(23.2651 -2.74452e-05 0)
(23.2699 -2.80933e-05 0)
(23.2749 -2.89638e-05 0)
(23.2801 -2.96297e-05 0)
(23.2853 -3.03616e-05 0)
(23.2907 -3.10549e-05 0)
(23.2962 -3.20361e-05 0)
(23.3018 -3.27596e-05 0)
(23.3076 -3.35414e-05 0)
(23.3135 -3.42783e-05 0)
(23.3195 -3.51894e-05 0)
(23.3256 -3.59489e-05 0)
(23.3319 -3.67556e-05 0)
(23.3382 -3.75234e-05 0)
(23.3447 -3.83444e-05 0)
(23.3512 -3.91088e-05 0)
(23.3579 -3.9878e-05 0)
(23.3647 -4.06149e-05 0)
(23.3715 -4.12291e-05 0)
(23.3784 -4.19226e-05 0)
(23.3853 -4.25598e-05 0)
(23.3924 -4.31821e-05 0)
(23.3994 -4.34257e-05 0)
(23.4065 -4.39576e-05 0)
(23.4136 -4.43508e-05 0)
(23.4208 -4.47543e-05 0)
(23.4279 -4.48233e-05 0)
(23.435 -4.44257e-05 0)
(23.4418 -4.43454e-05 0)
(23.449 -2.26756e-05 0)
(32.9266 0.0603716 0)
(30.4695 0.0174492 0)
(28.9196 0.00880608 0)
(27.99 0.00533476 0)
(27.3757 0.00370685 0)
(26.9322 0.00280126 0)
(26.5909 0.00223228 0)
(26.3162 0.00184148 0)
(26.0885 0.00155608 0)
(25.8954 0.00133882 0)
(25.7288 0.00116818 0)
(25.5832 0.00103072 0)
(25.4546 0.000917681 0)
(25.3399 0.000823174 0)
(25.2369 0.000743056 0)
(25.1439 0.000674317 0)
(25.0594 0.000614741 0)
(24.9824 0.000562643 0)
(24.9118 0.00051674 0)
(24.847 0.000475995 0)
(24.7873 0.000439615 0)
(24.7321 0.000406951 0)
(24.6809 0.000377486 0)
(24.6335 0.00035077 0)
(24.5894 0.000326456 0)
(24.5484 0.000304241 0)
(24.5101 0.00028389 0)
(24.4744 0.000265159 0)
(24.4411 0.000247883 0)
(24.4099 0.000231902 0)
(24.3807 0.000217094 0)
(24.3534 0.000203319 0)
(24.3278 0.000190488 0)
(24.3038 0.000178509 0)
(24.2813 0.000167319 0)
(24.2602 0.00015682 0)
(24.2405 0.000146967 0)
(24.2219 0.000137701 0)
(24.2046 0.000128985 0)
(24.1883 0.000120757 0)
(24.1731 0.000112988 0)
(24.1588 0.00010564 0)
(24.1455 9.86943e-05 0)
(24.1331 9.21003e-05 0)
(24.1215 8.58446e-05 0)
(24.1106 7.99e-05 0)
(24.1005 7.42529e-05 0)
(24.0912 6.88711e-05 0)
(24.0825 6.37451e-05 0)
(24.0744 5.88552e-05 0)
(24.067 5.41891e-05 0)
(24.0601 4.97299e-05 0)
(24.0539 4.5468e-05 0)
(24.0481 4.13884e-05 0)
(24.0429 3.74821e-05 0)
(24.0381 3.3738e-05 0)
(24.0339 3.01482e-05 0)
(24.03 2.67009e-05 0)
(24.0267 2.33818e-05 0)
(24.0237 2.01969e-05 0)
(24.0211 1.71329e-05 0)
(24.019 1.41805e-05 0)
(24.0171 1.13317e-05 0)
(24.0157 8.58901e-06 0)
(24.0146 5.94575e-06 0)
(24.0138 3.3936e-06 0)
(24.0134 9.13144e-07 0)
(24.0132 -1.46755e-06 0)
(24.0134 -3.76006e-06 0)
(24.0138 -5.97052e-06 0)
(24.0145 -8.10695e-06 0)
(24.0155 -1.01493e-05 0)
(24.0168 -1.21067e-05 0)
(24.0183 -1.39866e-05 0)
(24.02 -1.58262e-05 0)
(24.022 -1.75425e-05 0)
(24.0241 -1.91828e-05 0)
(24.0265 -2.07484e-05 0)
(24.0291 -2.22845e-05 0)
(24.0319 -2.3702e-05 0)
(24.0349 -2.50634e-05 0)
(24.0381 -2.63545e-05 0)
(24.0414 -2.77106e-05 0)
(24.045 -2.8885e-05 0)
(24.0486 -3.00355e-05 0)
(24.0525 -3.11205e-05 0)
(24.0565 -3.23125e-05 0)
(24.0607 -3.33297e-05 0)
(24.065 -3.43649e-05 0)
(24.0694 -3.53458e-05 0)
(24.074 -3.65789e-05 0)
(24.0788 -3.75371e-05 0)
(24.0837 -3.85391e-05 0)
(24.0887 -3.94834e-05 0)
(24.0939 -4.06719e-05 0)
(24.0991 -4.16285e-05 0)
(24.1046 -4.26548e-05 0)
(24.1101 -4.36307e-05 0)
(24.1158 -4.49227e-05 0)
(24.1216 -4.59233e-05 0)
(24.1275 -4.6983e-05 0)
(24.1336 -4.79834e-05 0)
(24.1397 -4.91712e-05 0)
(24.146 -5.01828e-05 0)
(24.1524 -5.1237e-05 0)
(24.1589 -5.2236e-05 0)
(24.1655 -5.32858e-05 0)
(24.1721 -5.42617e-05 0)
(24.1789 -5.5228e-05 0)
(24.1857 -5.61445e-05 0)
(24.1926 -5.69119e-05 0)
(24.1996 -5.77527e-05 0)
(24.2066 -5.85118e-05 0)
(24.2137 -5.92378e-05 0)
(24.2208 -5.95298e-05 0)
(24.2279 -6.01218e-05 0)
(24.235 -6.05389e-05 0)
(24.2421 -6.09433e-05 0)
(24.2492 -6.09647e-05 0)
(24.2563 -6.02694e-05 0)
(24.2631 -6.01555e-05 0)
(24.2702 -3.07771e-05 0)
(33.6709 0.0694784 0)
(31.5724 0.022704 0)
(30.0008 0.0122434 0)
(28.9993 0.00751392 0)
(28.3282 0.00520147 0)
(27.8445 0.00390706 0)
(27.4742 0.00309741 0)
(27.1779 0.00254504 0)
(26.9335 0.00214414 0)
(26.727 0.00184049 0)
(26.5495 0.00160296 0)
(26.3948 0.00141225 0)
(26.2583 0.00125586 0)
(26.137 0.0011254 0)
(26.0282 0.00101502 0)
(25.93 0.000920476 0)
(25.841 0.000838647 0)
(25.7598 0.00076718 0)
(25.6856 0.000704275 0)
(25.6174 0.000648495 0)
(25.5547 0.000598734 0)
(25.4967 0.000554088 0)
(25.443 0.000513841 0)
(25.3933 0.000477374 0)
(25.347 0.000444204 0)
(25.304 0.000413914 0)
(25.2639 0.000386173 0)
(25.2265 0.000360657 0)
(25.1916 0.000337132 0)
(25.1589 0.000315379 0)
(25.1283 0.000295225 0)
(25.0997 0.000276488 0)
(25.0729 0.000259039 0)
(25.0477 0.000242754 0)
(25.0242 0.000227542 0)
(25.0021 0.000213276 0)
(24.9814 0.00019989 0)
(24.962 0.000187305 0)
(24.9438 0.000175468 0)
(24.9268 0.000164296 0)
(24.9108 0.000153751 0)
(24.8959 0.00014378 0)
(24.8819 0.000134352 0)
(24.8688 0.000125406 0)
(24.8566 0.00011692 0)
(24.8453 0.000108858 0)
(24.8347 0.000101198 0)
(24.8248 9.39006e-05 0)
(24.8156 8.69505e-05 0)
(24.8072 8.03216e-05 0)
(24.7993 7.39962e-05 0)
(24.7921 6.79524e-05 0)
(24.7855 6.21761e-05 0)
(24.7794 5.66478e-05 0)
(24.7738 5.13546e-05 0)
(24.7688 4.6282e-05 0)
(24.7642 4.14184e-05 0)
(24.7602 3.6749e-05 0)
(24.7565 3.22554e-05 0)
(24.7533 2.79431e-05 0)
(24.7506 2.37952e-05 0)
(24.7482 1.98001e-05 0)
(24.7462 1.59468e-05 0)
(24.7446 1.22378e-05 0)
(24.7433 8.66343e-06 0)
(24.7424 5.21412e-06 0)
(24.7418 1.86648e-06 0)
(24.7416 -1.34998e-06 0)
(24.7416 -4.45028e-06 0)
(24.742 -7.43864e-06 0)
(24.7426 -1.03262e-05 0)
(24.7435 -1.30902e-05 0)
(24.7447 -1.57435e-05 0)
(24.7461 -1.82936e-05 0)
(24.7478 -2.07841e-05 0)
(24.7497 -2.31222e-05 0)
(24.7519 -2.53627e-05 0)
(24.7543 -2.7506e-05 0)
(24.7569 -2.96045e-05 0)
(24.7597 -3.15588e-05 0)
(24.7627 -3.34402e-05 0)
(24.7659 -3.52318e-05 0)
(24.7693 -3.70845e-05 0)
(24.7729 -3.8727e-05 0)
(24.7766 -4.03345e-05 0)
(24.7805 -4.18594e-05 0)
(24.7846 -4.34937e-05 0)
(24.7889 -4.49273e-05 0)
(24.7933 -4.6374e-05 0)
(24.7978 -4.77511e-05 0)
(24.8026 -4.93979e-05 0)
(24.8074 -5.07363e-05 0)
(24.8124 -5.21169e-05 0)
(24.8176 -5.34238e-05 0)
(24.8229 -5.49924e-05 0)
(24.8283 -5.62991e-05 0)
(24.8338 -5.76759e-05 0)
(24.8395 -5.8986e-05 0)
(24.8453 -6.06356e-05 0)
(24.8512 -6.19583e-05 0)
(24.8573 -6.33369e-05 0)
(24.8634 -6.46374e-05 0)
(24.8697 -6.61346e-05 0)
(24.8761 -6.74278e-05 0)
(24.8825 -6.87553e-05 0)
(24.8891 -7.00074e-05 0)
(24.8958 -7.13037e-05 0)
(24.9025 -7.25057e-05 0)
(24.9093 -7.36794e-05 0)
(24.9162 -7.47822e-05 0)
(24.9232 -7.57064e-05 0)
(24.9302 -7.66935e-05 0)
(24.9372 -7.75694e-05 0)
(24.9443 -7.8391e-05 0)
(24.9514 -7.87215e-05 0)
(24.9585 -7.93572e-05 0)
(24.9656 -7.97782e-05 0)
(24.9727 -8.01586e-05 0)
(24.9798 -8.01082e-05 0)
(24.9869 -7.90326e-05 0)
(24.9937 -7.88765e-05 0)
(25.0007 -4.03828e-05 0)
(34.1947 0.0755308 0)
(32.5411 0.0282332 0)
(31.0182 0.016421 0)
(29.9639 0.010304 0)
(29.2379 0.00713878 0)
(28.712 0.00533866 0)
(28.3102 0.00421211 0)
(27.9902 0.00344701 0)
(27.7273 0.0028947 0)
(27.5061 0.0024784 0)
(27.3165 0.0021541 0)
(27.1518 0.00189464 0)
(27.0068 0.00168251 0)
(26.8782 0.00150601 0)
(26.763 0.00135698 0)
(26.6593 0.00122958 0)
(26.5653 0.00111948 0)
(26.4798 0.00102347 0)
(26.4016 0.000939058 0)
(26.3299 0.000864295 0)
(26.2639 0.000797663 0)
(26.203 0.000737936 0)
(26.1466 0.000684133 0)
(26.0944 0.000635421 0)
(26.0459 0.000591142 0)
(26.0007 0.000550732 0)
(25.9587 0.000513741 0)
(25.9194 0.000479737 0)
(25.8828 0.0004484 0)
(25.8486 0.000419437 0)
(25.8165 0.000392613 0)
(25.7865 0.000367684 0)
(25.7584 0.000344479 0)
(25.7321 0.000322828 0)
(25.7074 0.000302607 0)
(25.6843 0.000283652 0)
(25.6626 0.000265871 0)
(25.6423 0.000249159 0)
(25.6232 0.000233441 0)
(25.6053 0.000218613 0)
(25.5886 0.000204619 0)
(25.5729 0.00019139 0)
(25.5582 0.000178881 0)
(25.5445 0.000167017 0)
(25.5317 0.000155765 0)
(25.5197 0.000145076 0)
(25.5086 0.000134921 0)
(25.4982 0.00012525 0)
(25.4886 0.000116039 0)
(25.4796 0.000107256 0)
(25.4713 9.88754e-05 0)
(25.4637 9.08695e-05 0)
(25.4567 8.32184e-05 0)
(25.4502 7.58972e-05 0)
(25.4443 6.88878e-05 0)
(25.439 6.21715e-05 0)
(25.4341 5.57324e-05 0)
(25.4297 4.9552e-05 0)
(25.4259 4.36067e-05 0)
(25.4224 3.79012e-05 0)
(25.4194 3.24141e-05 0)
(25.4168 2.71312e-05 0)
(25.4146 2.20379e-05 0)
(25.4128 1.71361e-05 0)
(25.4114 1.24127e-05 0)
(25.4103 7.85647e-06 0)
(25.4095 3.43949e-06 0)
(25.4091 -8.07567e-07 0)
(25.409 -4.90519e-06 0)
(25.4093 -8.85512e-06 0)
(25.4098 -1.26715e-05 0)
(25.4106 -1.63287e-05 0)
(25.4117 -1.98444e-05 0)
(25.413 -2.3226e-05 0)
(25.4147 -2.65242e-05 0)
(25.4165 -2.9636e-05 0)
(25.4187 -3.26248e-05 0)
(25.421 -3.54895e-05 0)
(25.4236 -3.82902e-05 0)
(25.4264 -4.0917e-05 0)
(25.4294 -4.34506e-05 0)
(25.4326 -4.58705e-05 0)
(25.436 -4.83438e-05 0)
(25.4396 -5.05742e-05 0)
(25.4433 -5.27552e-05 0)
(25.4473 -5.48318e-05 0)
(25.4514 -5.70162e-05 0)
(25.4558 -5.897e-05 0)
(25.4602 -6.09283e-05 0)
(25.4649 -6.27968e-05 0)
(25.4696 -6.49474e-05 0)
(25.4746 -6.6753e-05 0)
(25.4797 -6.85951e-05 0)
(25.4849 -7.03427e-05 0)
(25.4903 -7.23648e-05 0)
(25.4958 -7.40913e-05 0)
(25.5014 -7.58845e-05 0)
(25.5072 -7.759e-05 0)
(25.513 -7.96532e-05 0)
(25.519 -8.13512e-05 0)
(25.5252 -8.30982e-05 0)
(25.5314 -8.47439e-05 0)
(25.5377 -8.65911e-05 0)
(25.5442 -8.82034e-05 0)
(25.5507 -8.98377e-05 0)
(25.5573 -9.13724e-05 0)
(25.5641 -9.29408e-05 0)
(25.5708 -9.43908e-05 0)
(25.5777 -9.57897e-05 0)
(25.5846 -9.70933e-05 0)
(25.5916 -9.81853e-05 0)
(25.5986 -9.93252e-05 0)
(25.6057 -0.00010032 0)
(25.6128 -0.000101237 0)
(25.6199 -0.000101604 0)
(25.627 -0.000102273 0)
(25.6342 -0.000102686 0)
(25.6413 -0.000103024 0)
(25.6484 -0.000102884 0)
(25.6555 -0.000101344 0)
(25.6623 -0.000101143 0)
(25.6693 -5.18237e-05 0)
(34.5334 0.0801402 0)
(33.3602 0.0337828 0)
(31.9723 0.0212954 0)
(30.8975 0.0138032 0)
(30.1241 0.00962832 0)
(29.5557 0.00718747 0)
(29.1205 0.00564903 0)
(28.7745 0.00460538 0)
(28.4912 0.00385486 0)
(28.2535 0.00329156 0)
(28.0506 0.00285447 0)
(27.8746 0.002506 0)
(27.7203 0.002222 0)
(27.5835 0.00198632 0)
(27.4613 0.0017878 0)
(27.3515 0.00161842 0)
(27.2521 0.00147233 0)
(27.1617 0.00134512 0)
(27.0792 0.00123344 0)
(27.0035 0.00113465 0)
(26.934 0.0010467 0)
(26.8699 0.000967945 0)
(26.8106 0.000897066 0)
(26.7556 0.000832948 0)
(26.7047 0.00077471 0)
(26.6572 0.000721598 0)
(26.6131 0.000673007 0)
(26.5719 0.000628369 0)
(26.5334 0.000587256 0)
(26.4975 0.000549276 0)
(26.4638 0.000514115 0)
(26.4324 0.000481456 0)
(26.4029 0.000451067 0)
(26.3753 0.000422725 0)
(26.3494 0.000396259 0)
(26.3251 0.000371464 0)
(26.3023 0.000348211 0)
(26.281 0.000326364 0)
(26.261 0.000305819 0)
(26.2422 0.000286446 0)
(26.2246 0.000268166 0)
(26.2081 0.000250889 0)
(26.1927 0.000234555 0)
(26.1783 0.000219069 0)
(26.1648 0.000204383 0)
(26.1522 0.000190437 0)
(26.1404 0.000177188 0)
(26.1295 0.000164574 0)
(26.1193 0.000152562 0)
(26.1098 0.00014111 0)
(26.1011 0.000130184 0)
(26.093 0.000119749 0)
(26.0855 0.000109777 0)
(26.0786 0.000100237 0)
(26.0724 9.11035e-05 0)
(26.0666 8.23542e-05 0)
(26.0614 7.39668e-05 0)
(26.0567 6.59181e-05 0)
(26.0525 5.81786e-05 0)
(26.0488 5.07518e-05 0)
(26.0455 4.36104e-05 0)
(26.0427 3.67373e-05 0)
(26.0402 3.01131e-05 0)
(26.0382 2.37392e-05 0)
(26.0365 1.75977e-05 0)
(26.0353 1.16756e-05 0)
(26.0343 5.93951e-06 0)
(26.0337 4.22036e-07 0)
(26.0335 -4.90592e-06 0)
(26.0336 -1.00442e-05 0)
(26.034 -1.50087e-05 0)
(26.0346 -1.97709e-05 0)
(26.0356 -2.43543e-05 0)
(26.0369 -2.8766e-05 0)
(26.0384 -3.30651e-05 0)
(26.0402 -3.71375e-05 0)
(26.0422 -4.10564e-05 0)
(26.0445 -4.48187e-05 0)
(26.047 -4.84931e-05 0)
(26.0498 -5.1958e-05 0)
(26.0527 -5.5305e-05 0)
(26.0559 -5.85091e-05 0)
(26.0593 -6.17537e-05 0)
(26.0629 -6.47176e-05 0)
(26.0667 -6.76131e-05 0)
(26.0706 -7.03769e-05 0)
(26.0748 -7.32416e-05 0)
(26.0791 -7.58405e-05 0)
(26.0836 -7.84307e-05 0)
(26.0883 -8.09051e-05 0)
(26.0931 -8.36687e-05 0)
(26.0981 -8.60456e-05 0)
(26.1032 -8.84491e-05 0)
(26.1085 -9.07311e-05 0)
(26.1139 -9.32955e-05 0)
(26.1195 -9.5526e-05 0)
(26.1251 -9.78154e-05 0)
(26.131 -9.99907e-05 0)
(26.1369 -0.000102537 0)
(26.143 -0.000104676 0)
(26.1491 -0.000106853 0)
(26.1554 -0.0001089 0)
(26.1618 -0.00011115 0)
(26.1683 -0.00011313 0)
(26.1749 -0.000115116 0)
(26.1815 -0.000116973 0)
(26.1883 -0.000118851 0)
(26.1951 -0.000120581 0)
(26.202 -0.000122233 0)
(26.2089 -0.000123762 0)
(26.2159 -0.000125043 0)
(26.223 -0.000126352 0)
(26.2301 -0.000127478 0)
(26.2372 -0.000128499 0)
(26.2443 -0.000128909 0)
(26.2515 -0.000129612 0)
(26.2586 -0.000130011 0)
(26.2658 -0.000130297 0)
(26.2729 -0.000130058 0)
(26.28 -0.00012797 0)
(26.2868 -0.000127723 0)
(26.2939 -6.55016e-05 0)
(34.7383 0.0835127 0)
(34.0044 0.0389143 0)
(32.8456 0.0266757 0)
(31.8006 0.0180608 0)
(30.9964 0.0127823 0)
(30.3892 0.00956165 0)
(29.9198 0.00749912 0)
(29.546 0.00609465 0)
(29.2402 0.0050859 0)
(28.9844 0.00433096 0)
(28.7664 0.00374712 0)
(28.578 0.00328318 0)
(28.413 0.00290621 0)
(28.2672 0.00259425 0)
(28.1371 0.00233212 0)
(28.0204 0.00210896 0)
(27.9149 0.00191684 0)
(27.8191 0.00174985 0)
(27.7318 0.00160347 0)
(27.6518 0.00147416 0)
(27.5783 0.0013592 0)
(27.5106 0.00125636 0)
(27.4481 0.00116391 0)
(27.3901 0.00108035 0)
(27.3364 0.00100452 0)
(27.2864 0.000935427 0)
(27.2399 0.000872254 0)
(27.1966 0.000814263 0)
(27.1561 0.000760884 0)
(27.1183 0.000711602 0)
(27.0829 0.000666 0)
(27.0498 0.000623668 0)
(27.0188 0.000584297 0)
(26.9898 0.000547594 0)
(26.9625 0.000513332 0)
(26.937 0.000481248 0)
(26.913 0.000451171 0)
(26.8905 0.000422923 0)
(26.8695 0.000396365 0)
(26.8497 0.000371331 0)
(26.8312 0.000347718 0)
(26.8138 0.000325407 0)
(26.7975 0.000304316 0)
(26.7823 0.000284327 0)
(26.7681 0.000265377 0)
(26.7548 0.000247385 0)
(26.7423 0.000230295 0)
(26.7307 0.000214028 0)
(26.72 0.000198542 0)
(26.7099 0.00018378 0)
(26.7006 0.000169698 0)
(26.692 0.000156252 0)
(26.6841 0.000143404 0)
(26.6767 0.000131115 0)
(26.67 0.000119353 0)
(26.6639 0.000108086 0)
(26.6583 9.72872e-05 0)
(26.6532 8.69269e-05 0)
(26.6487 7.69684e-05 0)
(26.6446 6.74127e-05 0)
(26.641 5.82262e-05 0)
(26.6379 4.93877e-05 0)
(26.6351 4.08721e-05 0)
(26.6328 3.26796e-05 0)
(26.6309 2.47867e-05 0)
(26.6294 1.71779e-05 0)
(26.6283 9.81314e-06 0)
(26.6275 2.72866e-06 0)
(26.627 -4.1171e-06 0)
(26.6269 -1.07242e-05 0)
(26.6271 -1.71083e-05 0)
(26.6276 -2.32374e-05 0)
(26.6285 -2.91423e-05 0)
(26.6296 -3.48298e-05 0)
(26.631 -4.03681e-05 0)
(26.6326 -4.56315e-05 0)
(26.6346 -5.07045e-05 0)
(26.6368 -5.55812e-05 0)
(26.6392 -6.03399e-05 0)
(26.6419 -6.48468e-05 0)
(26.6448 -6.92049e-05 0)
(26.6479 -7.3384e-05 0)
(26.6512 -7.7585e-05 0)
(26.6548 -8.14604e-05 0)
(26.6585 -8.52429e-05 0)
(26.6625 -8.88592e-05 0)
(26.6666 -9.25637e-05 0)
(26.6709 -9.59603e-05 0)
(26.6754 -9.93295e-05 0)
(26.6801 -0.00010255 0)
(26.6849 -0.00010606 0)
(26.6899 -0.000109136 0)
(26.695 -0.000112223 0)
(26.7003 -0.000115155 0)
(26.7058 -0.000118371 0)
(26.7114 -0.00012121 0)
(26.7171 -0.000124094 0)
(26.7229 -0.000126832 0)
(26.7289 -0.000129949 0)
(26.735 -0.000132611 0)
(26.7412 -0.000135297 0)
(26.7475 -0.000137819 0)
(26.7539 -0.000140539 0)
(26.7604 -0.00014295 0)
(26.767 -0.000145346 0)
(26.7737 -0.000147582 0)
(26.7805 -0.000149819 0)
(26.7873 -0.000151875 0)
(26.7942 -0.000153822 0)
(26.8012 -0.000155614 0)
(26.8082 -0.000157118 0)
(26.8153 -0.000158624 0)
(26.8224 -0.000159905 0)
(26.8296 -0.000161049 0)
(26.8367 -0.00016152 0)
(26.8439 -0.000162267 0)
(26.8511 -0.000162658 0)
(26.8583 -0.00016289 0)