/*--------------------------------*- C++ -*----------------------------------*\
  =========                 |
  \\      /  F ield         | OpenFOAM: The Open Source CFD Toolbox
   \\    /   O peration     | Website:  https://openfoam.org
    \\  /    A nd           | Version:  8
     \\/     M anipulation  |
\*---------------------------------------------------------------------------*/
FoamFile
{
    version     2.0;
    format      ascii;
    class       volScalarField;
    location    "300";
    object      epsilon;
}
// * * * * * * * * * * * * * * * * * * * * * * * * * * * * * * * * * * * * * //

dimensions      [0 2 -3 0 0 0 0];

internalField   nonuniform List<scalar> 
7320
(
11607.2
10157.5
9314.18
8772
8390.06
8102.78
7876.24
7696.1
7566.55
7500.98
7489.9
7493.24
7478.33
7442.3
7396.35
7350.77
7310.5
7277.19
7250.67
7230.75
7216.48
7207.14
7201.94
7200.59
7202.52
7207.37
7214.63
7224.39
7236.24
7250
7265.39
7282.5
7301.1
7321.1
7342.24
7364.77
7388.46
7413.24
7438.94
7465.71
7493.36
7521.83
7550.87
7580.73
7611.14
7642.01
7673.09
7704.48
7735.92
7767.27
7798.2
7828.89
7859.02
7888.45
7916.92
7944.54
7971.09
7996.5
8020.51
8043.44
8065.1
8085.49
8104.48
8122.35
8139.01
8154.5
8168.7
8182.02
8194.35
8205.75
8216.14
8225.86
8234.81
8243.05
8250.47
8257.47
8263.92
8269.88
8275.25
8280.31
8284.98
8289.29
8293.09
8296.76
8300.14
8303.28
8306.06
8308.75
8311.22
8313.5
8315.46
8317.41
8319.22
8320.89
8322.34
8323.77
8325.09
8326.3
8327.29
8328.32
8329.26
8330.14
8330.86
8331.6
8332.27
8332.88
8333.35
8333.86
8334.31
8334.73
8335.06
8335.4
8335.7
8335.97
8336.18
8336.38
8336.55
8336.7
8336.83
8336.94
8336.92
8337.21
3749.26
3919.31
3598.61
3368.78
3210.14
3093.21
3002.42
2931.12
2879.34
2848.78
2832.14
2813.18
2782.83
2745.43
2708.68
2676.94
2651.27
2631.27
2616.07
2604.93
2597.08
2591.94
2588.99
2587.91
2588.35
2590.08
2592.89
2596.63
2601.16
2606.37
2612.17
2618.51
2625.3
2632.52
2640.1
2648.02
2656.24
2664.73
2673.47
2682.44
2691.62
2700.97
2710.47
2720.09
2729.8
2739.57
2749.36
2759.17
2768.93
2778.61
2788.15
2797.54
2806.7
2815.62
2824.24
2832.57
2840.56
2848.19
2855.44
2862.3
2868.76
2874.83
2880.5
2885.81
2890.76
2895.36
2899.62
2903.56
2907.19
2910.54
2913.63
2916.48
2919.12
2921.54
2923.77
2925.81
2927.69
2929.41
2930.99
2932.46
2933.82
2935.08
2936.23
2937.3
2938.27
2939.17
2939.99
2940.76
2941.48
2942.15
2942.76
2943.32
2943.84
2944.31
2944.75
2945.16
2945.55
2945.9
2946.23
2946.53
2946.8
2947.05
2947.28
2947.5
2947.7
2947.89
2948.06
2948.22
2948.36
2948.49
2948.61
2948.72
2948.82
2948.91
2949
2949.08
2949.15
2949.22
2949.27
2949.33
2949.36
2949.5
1528.97
1989.03
1884.95
1770.21
1685.87
1623.07
1574.32
1535.83
1506.63
1486.53
1471.7
1454.61
1431.83
1406.64
1383.3
1363.77
1348.21
1336.15
1326.96
1320.12
1315.17
1311.76
1309.6
1308.48
1308.2
1308.65
1309.7
1311.25
1313.23
1315.58
1318.25
1321.19
1324.37
1327.76
1331.36
1335.11
1339.01
1343.05
1347.21
1351.49
1355.86
1360.32
1364.88
1369.49
1374.14
1378.84
1383.58
1388.32
1393.06
1397.78
1402.47
1407.08
1411.61
1416.03
1420.33
1424.5
1428.51
1432.36
1436.04
1439.52
1442.81
1445.91
1448.82
1451.54
1454.08
1456.45
1458.65
1460.68
1462.55
1464.28
1465.88
1467.35
1468.7
1469.95
1471.11
1472.17
1473.14
1474.02
1474.85
1475.6
1476.3
1476.95
1477.55
1478.1
1478.6
1479.06
1479.49
1479.89
1480.26
1480.6
1480.92
1481.21
1481.48
1481.72
1481.96
1482.17
1482.37
1482.55
1482.73
1482.88
1483.02
1483.15
1483.28
1483.39
1483.5
1483.6
1483.69
1483.77
1483.85
1483.91
1483.98
1484.04
1484.09
1484.14
1484.19
1484.23
1484.27
1484.3
1484.33
1484.37
1484.38
1484.45
720.938
1168.15
1165.71
1105.64
1054.38
1014.77
983.687
958.728
938.669
923.045
910.351
897.08
881.46
865.177
850.38
837.981
827.994
820.108
813.965
809.241
805.673
803.053
801.219
800.031
799.386
799.205
799.43
799.985
800.829
801.923
803.245
804.756
806.437
808.271
810.255
812.357
814.57
816.888
819.311
821.819
824.411
827.08
829.832
832.642
835.508
838.425
841.391
844.387
847.405
850.434
853.471
856.483
859.461
862.391
865.265
868.059
870.764
873.369
875.875
878.258
880.517
882.651
884.666
886.551
888.312
889.953
891.487
892.905
894.215
895.424
896.546
897.577
898.526
899.398
900.211
900.953
901.634
902.26
902.841
903.373
903.862
904.312
904.736
905.121
905.475
905.801
906.108
906.387
906.644
906.882
907.109
907.315
907.504
907.677
907.843
907.992
908.13
908.257
908.38
908.49
908.591
908.683
908.771
908.85
908.922
908.988
909.052
909.109
909.16
909.206
909.251
909.289
909.324
909.356
909.386
909.412
909.436
909.457
909.475
909.493
909.507
909.536
358.822
725.633
779.833
754.396
722.988
696.55
675.138
657.411
642.285
629.679
619.819
611.277
602.356
593.08
584.286
576.531
569.981
564.579
560.193
556.666
553.865
551.676
550.008
548.778
547.926
547.407
547.186
547.215
547.468
547.919
548.553
549.344
550.278
551.343
552.538
553.842
555.25
556.757
558.361
560.05
561.821
563.671
565.604
567.603
569.669
571.794
573.978
576.203
578.464
580.75
583.059
585.368
587.669
589.945
592.189
594.381
596.51
598.567
600.552
602.447
604.253
605.962
607.578
609.093
610.509
611.828
613.063
614.208
615.27
616.252
617.161
617.996
618.765
619.471
620.127
620.731
621.288
621.799
622.273
622.706
623.102
623.466
623.807
624.121
624.412
624.679
624.929
625.156
625.365
625.555
625.738
625.905
626.06
626.203
626.337
626.459
626.57
626.67
626.768
626.857
626.94
627.014
627.085
627.148
627.204
627.255
627.305
627.349
627.389
627.425
627.459
627.488
627.514
627.536
627.557
627.574
627.589
627.603
627.614
627.624
627.634
627.645
180.954
454.613
539.374
539.236
522.297
504.953
489.908
476.823
465.009
455.004
448.297
444.484
441.313
437.412
432.851
428.174
423.798
419.916
416.576
413.748
411.386
409.437
407.856
406.593
405.617
404.897
404.416
404.142
404.057
404.143
404.389
404.775
405.291
405.929
406.686
407.55
408.516
409.579
410.737
411.98
413.306
414.711
416.199
417.759
419.391
421.086
422.842
424.646
426.491
428.368
430.273
432.191
434.112
436.021
437.908
439.757
441.558
443.301
444.985
446.6
448.143
449.607
450.991
452.29
453.506
454.639
455.699
456.685
457.603
458.452
459.237
459.958
460.622
461.231
461.796
462.319
462.803
463.249
463.659
464.034
464.377
464.69
464.983
465.255
465.508
465.741
465.957
466.154
466.335
466.498
466.654
466.798
466.934
467.058
467.173
467.278
467.373
467.459
467.541
467.618
467.689
467.754
467.814
467.867
467.914
467.956
467.997
468.033
468.067
468.097
468.124
468.147
468.168
468.185
468.2
468.212
468.222
468.231
468.238
468.243
468.252
468.252
91.0651
278.186
374.333
393.398
388.312
378.211
368.01
358.38
349.181
341.595
337.973
338.37
339.864
340.026
338.486
335.897
332.934
330.003
327.297
324.882
322.77
320.951
319.408
318.113
317.05
316.201
315.554
315.09
314.794
314.654
314.659
314.796
315.055
315.43
315.918
316.51
317.204
317.993
318.874
319.839
320.888
322.014
323.221
324.502
325.856
327.275
328.754
330.283
331.856
333.462
335.098
336.752
338.417
340.076
341.72
343.334
344.91
346.437
347.915
349.335
350.696
351.989
353.213
354.362
355.439
356.443
357.382
358.258
359.076
359.833
360.532
361.174
361.765
362.307
362.81
363.276
363.71
364.109
364.476
364.81
365.116
365.395
365.655
365.897
366.124
366.333
366.526
366.701
366.862
367.007
367.144
367.272
367.393
367.505
367.607
367.7
367.784
367.86
367.931
367.999
368.062
368.12
368.172
368.219
368.26
368.296
368.331
368.362
368.391
368.417
368.44
368.46
368.476
368.49
368.502
368.51
368.518
368.524
368.529
368.531
368.538
368.533
46.0992
162.197
254.274
286.997
292.095
288.345
282.277
275.549
268.644
263.312
262.449
266.316
271.476
274.741
275.443
274.348
272.355
270.049
267.742
265.574
263.603
261.85
260.313
258.984
257.854
256.911
256.148
255.553
255.114
254.821
254.664
254.633
254.719
254.916
255.222
255.63
256.137
256.737
257.426
258.199
259.053
259.982
260.99
262.071
263.224
264.441
265.716
267.041
268.41
269.813
271.245
272.7
274.169
275.637
277.094
278.528
279.932
281.293
282.611
283.882
285.103
286.266
287.366
288.401
289.372
290.278
291.125
291.917
292.658
293.344
293.978
294.561
295.097
295.589
296.044
296.468
296.863
297.227
297.56
297.864
298.142
298.395
298.629
298.849
299.056
299.247
299.421
299.581
299.726
299.857
299.98
300.096
300.207
300.308
300.401
300.484
300.56
300.628
300.692
300.752
300.81
300.862
300.909
300.951
300.988
301.02
301.05
301.077
301.103
301.126
301.146
301.163
301.177
301.189
301.198
301.205
301.211
301.215
301.219
301.219
301.225
301.217
24.1405
88.6544
164.998
205.265
218.899
220.975
218.727
214.671
209.91
206.643
208.075
214.631
222.617
228.32
230.796
230.872
229.613
227.761
225.727
223.717
221.829
220.104
218.559
217.194
216.006
214.99
214.139
213.446
212.901
212.496
212.221
212.066
212.026
212.093
212.264
212.535
212.903
213.361
213.905
214.531
215.235
216.012
216.864
217.788
218.781
219.837
220.948
222.109
223.312
224.549
225.817
227.108
228.415
229.726
231.03
232.316
233.577
234.803
235.991
237.14
238.247
239.302
240.302
241.245
242.13
242.957
243.73
244.455
245.135
245.765
246.347
246.882
247.375
247.827
248.244
248.634
248.998
249.333
249.64
249.921
250.176
250.408
250.623
250.825
251.016
251.191
251.352
251.498
251.632
251.752
251.864
251.97
252.071
252.165
252.249
252.326
252.396
252.457
252.515
252.57
252.623
252.671
252.714
252.752
252.785
252.814
252.841
252.866
252.889
252.91
252.928
252.943
252.956
252.966
252.973
252.979
252.984
252.987
252.99
252.989
252.994
252.986
13.5093
45.5663
99.8239
140.781
160.699
168.045
169.462
168.009
165.326
163.923
167.149
175.65
185.77
193.456
197.457
198.559
197.942
196.474
194.663
192.775
190.945
189.235
187.676
186.277
185.04
183.963
183.042
182.271
181.643
181.149
180.781
180.53
180.39
180.354
180.419
180.581
180.836
181.18
181.607
182.112
182.693
183.344
184.067
184.858
185.717
186.635
187.607
188.627
189.689
190.784
191.909
193.06
194.228
195.404
196.575
197.734
198.873
199.983
201.061
202.106
203.115
204.08
204.995
205.86
206.674
207.435
208.148
208.817
209.444
210.028
210.567
211.063
211.52
211.939
212.327
212.688
213.027
213.339
213.624
213.884
214.122
214.338
214.537
214.724
214.901
215.064
215.213
215.349
215.472
215.583
215.686
215.785
215.878
215.965
216.043
216.114
216.179
216.236
216.289
216.339
216.388
216.432
216.472
216.507
216.538
216.564
216.588
216.611
216.633
216.652
216.669
216.682
216.694
216.703
216.71
216.715
216.718
216.721
216.723
216.723
216.727
216.718
8.23343
22.8799
55.294
90.2389
113.19
124.848
129.725
130.857
130.224
130.493
135.037
144.807
156.473
165.818
171.229
173.34
173.373
172.3
170.717
168.954
167.183
165.493
163.926
162.501
161.224
160.098
159.12
158.286
157.589
157.022
156.578
156.248
156.025
155.903
155.879
155.949
156.11
156.356
156.682
157.084
157.558
158.1
158.71
159.385
160.125
160.923
161.772
162.667
163.603
164.572
165.571
166.596
167.641
168.695
169.749
170.796
171.827
172.834
173.815
174.769
175.692
176.577
177.42
178.217
178.969
179.673
180.333
180.954
181.538
182.082
182.584
183.047
183.475
183.866
184.228
184.566
184.882
185.174
185.442
185.685
185.908
186.11
186.296
186.47
186.635
186.788
186.927
187.054
187.17
187.273
187.369
187.461
187.548
187.629
187.702
187.768
187.828
187.881
187.93
187.977
188.023
188.064
188.101
188.133
188.162
188.187
188.209
188.23
188.251
188.269
188.284
188.297
188.307
188.316
188.322
188.327
188.33
188.333
188.335
188.334
188.337
188.329
5.47961
11.9944
28.2355
52.6733
74.5054
88.7628
96.5986
100.22
101.6
103.374
108.826
119.264
131.944
142.678
149.461
152.646
153.414
152.806
151.505
149.905
148.224
146.574
145.016
143.58
142.278
141.116
140.094
139.209
138.456
137.829
137.32
136.922
136.629
136.434
136.332
136.322
136.4
136.56
136.797
137.107
137.486
137.93
138.438
139.01
139.642
140.33
141.067
141.849
142.67
143.525
144.409
145.319
146.252
147.196
148.143
149.087
150.02
150.935
151.828
152.699
153.545
154.359
155.135
155.872
156.569
157.223
157.837
158.415
158.96
159.468
159.939
160.373
160.774
161.142
161.482
161.8
162.097
162.372
162.623
162.853
163.062
163.252
163.427
163.591
163.746
163.889
164.02
164.139
164.248
164.345
164.435
164.52
164.602
164.678
164.746
164.808
164.865
164.915
164.96
165.004
165.047
165.086
165.12
165.151
165.178
165.201
165.222
165.242
165.261
165.278
165.292
165.304
165.315
165.323
165.329
165.333
165.336
165.339
165.341
165.34
165.343
165.336
3.95854
6.92921
14.0471
27.7183
44.4883
58.7411
68.457
74.2163
77.484
80.6034
86.6311
97.2155
110.394
122.239
130.37
134.742
136.387
136.372
135.451
134.088
132.549
130.981
129.464
128.042
126.735
125.555
124.504
123.582
122.785
122.109
121.547
121.092
120.738
120.479
120.31
120.229
120.233
120.315
120.472
120.698
120.991
121.346
121.762
122.237
122.771
123.358
123.992
124.669
125.384
126.133
126.911
127.715
128.543
129.385
130.233
131.082
131.924
132.753
133.565
134.359
135.134
135.881
136.597
137.278
137.924
138.532
139.104
139.644
140.153
140.629
141.071
141.479
141.857
142.203
142.524
142.823
143.103
143.362
143.599
143.816
144.014
144.194
144.359
144.513
144.659
144.794
144.917
145.03
145.132
145.224
145.309
145.389
145.466
145.537
145.601
145.66
145.713
145.76
145.803
145.844
145.884
145.92
145.953
145.982
146.008
146.03
146.05
146.068
146.086
146.102
146.116
146.128
146.137
146.145
146.151
146.155
146.159
146.161
146.163
146.163
146.166
146.159
3.07731
4.48294
7.4308
13.6657
23.6819
35.0265
44.7971
51.8577
56.6566
60.9081
67.2413
77.5274
90.683
103.297
112.71
118.385
121.088
121.838
121.439
120.423
119.109
117.685
116.258
114.887
113.606
112.432
111.373
110.431
109.606
108.895
108.291
107.789
107.384
107.07
106.843
106.699
106.636
106.649
106.733
106.883
107.097
107.37
107.701
108.088
108.53
109.023
109.561
110.14
110.758
111.407
112.086
112.791
113.521
114.267
115.022
115.78
116.537
117.285
118.02
118.742
119.448
120.133
120.791
121.419
122.017
122.582
123.114
123.617
124.093
124.539
124.953
125.337
125.693
126.02
126.322
126.604
126.868
127.113
127.337
127.542
127.73
127.9
128.056
128.202
128.339
128.466
128.583
128.689
128.786
128.873
128.953
129.028
129.1
129.167
129.227
129.283
129.333
129.377
129.418
129.457
129.494
129.528
129.559
129.587
129.611
129.632
129.651
129.669
129.686
129.701
129.714
129.725
129.735
129.743
129.749
129.753
129.756
129.759
129.761
129.761
129.764
129.758
2.55073
3.21792
4.43881
6.94387
11.6131
18.4654
26.1401
33.0499
38.6033
43.5886
49.9519
59.5556
72.1537
85.0864
95.6048
102.65
106.596
108.316
108.623
108.102
107.129
105.939
104.67
103.405
102.192
101.058
100.018
99.0803
98.2466
97.5159
96.8848
96.3491
95.9044
95.5457
95.2692
95.0718
94.9507
94.9015
94.9196
95.0011
95.1428
95.341
95.5935
95.8991
96.2565
96.6618
97.1107
97.5994
98.1244
98.6812
99.2668
99.8792
100.516
101.17
101.837
102.51
103.184
103.855
104.517
105.169
105.81
106.433
107.035
107.613
108.163
108.686
109.18
109.647
110.09
110.506
110.894
111.255
111.589
111.897
112.181
112.447
112.695
112.926
113.137
113.332
113.509
113.67
113.818
113.955
114.084
114.204
114.314
114.414
114.506
114.588
114.664
114.734
114.802
114.864
114.922
114.974
115.021
115.063
115.102
115.138
115.173
115.205
115.234
115.26
115.284
115.304
115.322
115.339
115.354
115.369
115.382
115.393
115.402
115.409
115.415
115.42
115.424
115.426
115.428
115.429
115.432
115.427
2.23301
2.52137
3.02026
3.97888
5.81253
8.95364
13.4093
18.5367
23.5891
28.5615
34.5442
43.0863
54.5696
67.2322
78.5034
86.8634
92.1882
95.0913
96.3167
96.4746
95.9944
95.1574
94.1408
93.0551
91.9682
90.9215
89.9397
89.0371
88.2212
87.4936
86.8543
86.3009
85.8306
85.4398
85.1252
84.8842
84.7143
84.6118
84.5726
84.5931
84.6702
84.8006
84.9819
85.2131
85.4925
85.8173
86.1834
86.5875
87.0265
87.4966
87.9949
88.5195
89.0683
89.6364
90.2185
90.8096
91.4052
92.0002
92.591
93.1756
93.7518
94.3154
94.8621
95.3885
95.8929
96.3729
96.8282
97.2601
97.6698
98.0559
98.4172
98.7536
99.0659
99.3547
99.6219
99.8706
100.103
100.319
100.519
100.701
100.869
101.021
101.16
101.289
101.41
101.523
101.626
101.72
101.807
101.885
101.956
102.022
102.085
102.143
102.197
102.246
102.291
102.33
102.367
102.401
102.433
102.463
102.491
102.516
102.538
102.557
102.574
102.59
102.605
102.619
102.631
102.641
102.65
102.658
102.664
102.669
102.672
102.675
102.677
102.679
102.681
102.677
2.04417
2.12293
2.29763
2.6432
3.30215
4.48784
6.41984
9.15529
12.5248
16.44
21.3751
28.381
38.1432
49.7893
61.2141
70.6156
77.3289
81.578
83.937
84.9852
85.1809
84.8489
84.2075
83.3998
82.5185
81.623
80.7509
79.926
79.1627
78.4686
77.8463
77.2967
76.8195
76.4128
76.0744
75.8026
75.5955
75.4503
75.3635
75.3321
75.3533
75.4241
75.5423
75.7065
75.9156
76.167
76.4573
76.7836
77.1432
77.5327
77.9496
78.392
78.8581
79.3443
79.8458
80.3583
80.8779
81.4
81.9213
82.4393
82.9521
83.4562
83.9474
84.4226
84.8797
85.3166
85.7324
86.1278
86.5035
86.8587
87.1921
87.5033
87.793
88.0614
88.3102
88.5417
88.758
88.9593
89.1451
89.3159
89.4723
89.6151
89.7457
89.8664
89.9791
90.0839
90.1804
90.2687
90.3493
90.4225
90.4891
90.551
90.6092
90.6636
90.7137
90.7595
90.8011
90.8387
90.8728
90.9045
90.9345
90.9626
90.9883
91.0114
91.0321
91.0505
91.0669
91.0818
91.0958
91.1087
91.1203
91.1303
91.139
91.1463
91.1523
91.157
91.1608
91.1638
91.1663
91.1677
91.1698
91.1669
1.93662
1.89379
1.90915
1.99898
2.20601
2.6014
3.28639
4.37417
5.96226
8.17828
11.3696
16.2626
23.6288
33.3502
44.0269
53.8669
61.7301
67.3499
71.0026
73.1463
74.2202
74.5732
74.4593
74.0556
73.483
72.8229
72.1298
71.4397
70.7766
70.1551
69.584
69.0674
68.608
68.2067
67.8634
67.5774
67.348
67.1735
67.0515
66.9795
66.9551
66.9761
67.0405
67.1469
67.2942
67.4804
67.7028
67.9589
68.2461
68.5619
68.9038
69.2701
69.6593
70.0684
70.4936
70.9313
71.3779
71.8295
72.2829
72.7356
73.1859
73.6304
74.0659
74.4891
74.898
75.2904
75.6652
76.0225
76.3628
76.6853
76.989
77.2733
77.5387
77.7852
78.014
78.2269
78.4257
78.6109
78.7823
78.94
79.0848
79.2171
79.3383
79.45
79.554
79.6506
79.7397
79.8214
79.8961
79.964
80.0259
80.0831
80.1366
80.1867
80.2328
80.2751
80.3137
80.3486
80.3803
80.4096
80.4372
80.463
80.4867
80.5082
80.5275
80.5447
80.5601
80.5741
80.5871
80.5991
80.6099
80.6194
80.6277
80.6347
80.6406
80.6453
80.6492
80.6522
80.6547
80.6564
80.6584
80.6563
1.87971
1.76619
1.69692
1.67024
1.69607
1.79458
1.99734
2.34924
2.9151
3.81008
5.28649
7.86624
12.3265
19.1709
27.9045
37.1481
45.5202
52.251
57.1946
60.5652
62.6998
63.9259
64.5127
64.664
64.5283
64.2112
63.7867
63.3064
62.8061
62.3102
61.8345
61.3895
60.9813
60.6141
60.2908
60.0126
59.7804
59.5941
59.4525
59.3541
59.2974
59.2807
59.3026
59.3619
59.4577
59.5884
59.7522
59.9467
60.17
60.4198
60.6942
60.9914
61.3101
61.648
62.0022
62.3694
62.7466
63.1306
63.5184
63.9075
64.2961
64.6817
65.0611
65.4316
65.791
66.1374
66.4695
66.7869
67.0897
67.3774
67.6491
67.9044
68.1431
68.3655
68.5724
68.7648
68.9445
69.1119
69.2672
69.4104
69.5421
69.6627
69.7733
69.875
69.9694
70.0571
70.138
70.2124
70.2805
70.3425
70.3992
70.4512
70.4998
70.5451
70.587
70.6254
70.6606
70.6925
70.7215
70.7482
70.7733
70.7966
70.8182
70.8378
70.8555
70.8714
70.8856
70.8985
70.9104
70.9214
70.9313
70.9402
70.9479
70.9546
70.9602
70.9648
70.9686
70.9716
70.9741
70.9759
70.9777
70.976
1.85262
1.70014
1.58444
1.50016
1.44694
1.42875
1.45357
1.53404
1.69143
1.96973
2.47341
3.44678
5.38193
8.96858
14.6039
21.8302
29.5315
36.6344
42.5273
47.0515
50.323
52.5662
54.0181
54.8851
55.3327
55.4872
55.4422
55.2662
55.0094
54.7075
54.3857
54.062
53.7487
53.454
53.1837
52.9424
52.7331
52.5578
52.417
52.3106
52.2383
52.1994
52.1931
52.2185
52.2753
52.3625
52.4786
52.6221
52.7913
52.9845
53.2
53.4364
53.6924
53.9662
54.2556
54.5579
54.8705
55.1908
55.5161
55.844
56.1729
56.5004
56.8242
57.1416
57.4507
57.7496
58.0372
58.3127
58.5759
58.8266
59.0639
59.2874
59.497
59.6927
59.875
60.0447
60.2031
60.3508
60.4879
60.6147
60.7315
60.8387
60.9371
61.0276
61.1113
61.189
61.2608
61.3268
61.3874
61.4427
61.4933
61.5397
61.5828
61.6229
61.66
61.6942
61.7255
61.754
61.78
61.8039
61.8261
61.8468
61.8659
61.8834
61.8993
61.9136
61.9265
61.9381
61.9487
61.9585
61.9675
61.9755
61.9825
61.9886
61.9939
61.9982
62.0018
62.0047
62.0071
62.0089
62.0106
62.0094
1.84139
1.6697
1.52947
1.4157
1.32539
1.25753
1.21289
1.19393
1.20594
1.26133
1.39095
1.6702
2.27438
3.55833
6.04743
10.1291
15.6116
21.7405
27.6775
32.865
37.0791
40.3255
42.7245
44.4322
45.6007
46.3612
46.8198
47.0595
47.1439
47.1213
47.0276
46.8894
46.7263
46.5527
46.3792
46.213
46.0605
45.9261
45.8128
45.7224
45.6562
45.6146
45.5981
45.6064
45.6398
45.6979
45.7801
45.8853
46.0124
46.1602
46.3275
46.513
46.7157
46.9342
47.1667
47.4112
47.6655
47.9274
48.1946
48.4651
48.7371
49.0088
49.2782
49.543
49.8016
50.0524
50.2941
50.526
50.7478
50.9592
51.1597
51.3488
51.5264
51.6926
51.8476
51.992
52.1267
52.2522
52.369
52.477
52.5768
52.6686
52.753
52.8305
52.9021
52.9685
53.0299
53.0865
53.1384
53.1861
53.2297
53.2696
53.3065
53.3409
53.3727
53.402
53.429
53.4536
53.4761
53.4967
53.5158
53.5336
53.55
53.5651
53.5789
53.5913
53.6026
53.6127
53.622
53.6305
53.6382
53.6452
53.6514
53.6568
53.6614
53.6654
53.6686
53.6713
53.6735
53.6751
53.6766
53.6755
1.83747
1.65774
1.50597
1.37779
1.26983
1.17973
1.1061
1.04839
1.00711
0.985002
0.989889
1.04101
1.18336
1.51769
2.24899
3.71023
6.24524
9.93149
14.4268
19.1524
23.5991
27.4702
30.6625
33.1933
35.1406
36.602
37.6733
38.4387
38.9693
39.3226
39.5441
39.669
39.725
39.7333
39.71
39.6677
39.6158
39.5612
39.5101
39.4669
39.4347
39.4159
39.4122
39.4246
39.4542
39.5015
39.5666
39.6493
39.7491
39.8654
39.9974
40.1442
40.305
40.4789
40.6645
40.8601
41.0643
41.275
41.4905
41.7088
41.9286
42.1481
42.3657
42.5798
42.7889
42.9917
43.1872
43.3747
43.5537
43.7241
43.8857
44.0381
44.1813
44.3152
44.4402
44.5566
44.665
44.766
44.8599
44.9469
45.0273
45.1015
45.1698
45.2325
45.2904
45.344
45.3936
45.4394
45.4816
45.5203
45.5558
45.5884
45.6185
45.6463
45.6722
45.6961
45.7181
45.7383
45.7568
45.7737
45.7894
45.8039
45.8174
45.8298
45.8411
45.8514
45.8608
45.8692
45.8769
45.8839
45.8903
45.896
45.9012
45.9057
45.9097
45.913
45.9158
45.918
45.9199
45.9213
45.9225
45.9216
1.83635
1.65389
1.49762
1.36332
1.24761
1.14783
1.06198
0.988623
0.926848
0.876584
0.839261
0.819198
0.826611
0.884013
1.03933
1.38854
2.10027
3.40189
5.47673
8.31555
11.6736
15.1875
18.5377
21.5282
24.0795
26.1875
27.8889
29.2375
30.2918
31.1062
31.7284
32.1986
32.5503
32.8107
33.0016
33.1405
33.2412
33.315
33.3705
33.4139
33.4515
33.4879
33.5264
33.5699
33.6205
33.6798
33.7491
33.8289
33.9197
34.0215
34.1342
34.2573
34.3905
34.5329
34.6839
34.8422
35.0066
35.1755
35.3476
35.5213
35.6952
35.8681
36.0387
36.2056
36.3679
36.5245
36.6747
36.818
36.9541
37.0829
37.2044
37.3186
37.4254
37.525
37.6178
37.7038
37.7837
37.8579
37.9268
37.9906
38.0496
38.104
38.1542
38.2003
38.2428
38.2822
38.3186
38.3523
38.3834
38.4121
38.4385
38.4628
38.4851
38.5059
38.5252
38.543
38.5595
38.5748
38.5888
38.6016
38.6135
38.6245
38.6347
38.6441
38.6527
38.6606
38.6678
38.6743
38.6802
38.6856
38.6905
38.6949
38.6989
38.7024
38.7054
38.708
38.7102
38.7119
38.7134
38.7144
38.7152
38.7143
1.83609
1.6529
1.49526
1.35888
1.24033
1.13687
1.04633
0.966986
0.897497
0.836957
0.785002
0.742086
0.710066
0.693428
0.701711
0.754055
0.887506
1.16911
1.70528
2.62886
4.04751
5.9739
8.29556
10.8136
13.3214
15.6644
17.7579
19.5719
21.1106
22.3958
23.4574
24.3275
25.0371
25.6143
26.0833
26.4645
26.7755
27.0307
27.242
27.4196
27.5713
27.7028
27.8203
27.9283
28.0307
28.1306
28.2303
28.3317
28.4362
28.5447
28.6579
28.7757
28.8985
29.0258
29.1574
29.2924
29.4301
29.5693
29.7089
29.8477
29.9846
30.1187
30.2489
30.3745
30.4946
30.6088
30.7167
30.8179
30.9125
31.0007
31.0826
31.1584
31.2284
31.293
31.3523
31.4068
31.4569
31.503
31.5456
31.5847
31.6208
31.654
31.6847
31.7128
31.7387
31.7627
31.785
31.8057
31.8248
31.8426
31.859
31.8742
31.8883
31.9014
31.9137
31.9251
31.9357
31.9455
31.9547
31.9631
31.9709
31.9782
31.9849
31.9912
31.997
32.0023
32.0072
32.0116
32.0156
32.0193
32.0226
32.0256
32.0283
32.0306
32.0327
32.0344
32.0359
32.037
32.0379
32.0385
32.0389
32.038
1.83604
1.65269
1.49473
1.35782
1.23848
1.13393
1.04192
0.960647
0.888629
0.824705
0.768006
0.71798
0.674472
0.637936
0.609875
0.593605
0.595596
0.627815
0.711699
0.883379
1.19786
1.72566
2.53539
3.66445
5.09497
6.75123
8.52241
10.2954
11.9818
13.5272
14.9079
16.1206
17.1735
18.0803
18.857
19.5203
20.0862
20.5698
20.9844
21.3417
21.6514
21.9223
22.161
22.3729
22.5636
22.738
22.8999
23.0525
23.1983
23.3391
23.4766
23.6116
23.7449
23.8768
24.0074
24.1363
24.2632
24.3873
24.508
24.6244
24.7356
24.8411
24.9402
25.0325
25.1177
25.1957
25.2666
25.3305
25.3877
25.4386
25.4838
25.5237
25.5589
25.5898
25.6171
25.641
25.662
25.6807
25.6973
25.7122
25.7256
25.7377
25.7488
25.7589
25.7681
25.7767
25.7848
25.7924
25.7996
25.8063
25.8127
25.8188
25.8245
25.83
25.8352
25.8402
25.8449
25.8494
25.8537
25.8577
25.8615
25.8651
25.8685
25.8717
25.8747
25.8774
25.88
25.8824
25.8846
25.8865
25.8883
25.8899
25.8914
25.8926
25.8937
25.8946
25.8953
25.8958
25.8962
25.8964
25.8964
25.8953
1.83603
1.65264
1.49462
1.3576
1.2381
1.13332
1.04098
0.959244
0.886593
0.821788
0.763826
0.711904
0.665405
0.623903
0.587227
0.555585
0.529779
0.511541
0.504104
0.513104
0.548082
0.624504
0.765798
1.00388
1.37619
1.91747
2.64846
3.56596
4.64026
5.82075
7.04792
8.26568
9.43054
10.5147
11.5049
12.3978
13.1969
13.9085
14.5403
15.1005
15.5971
16.038
16.4306
16.7817
17.0973
17.3821
17.6404
17.8766
18.0945
18.2968
18.486
18.6639
18.8319
18.9911
19.1419
19.2847
19.4195
19.5459
19.6637
19.7724
19.8717
19.9612
20.041
20.111
20.1714
20.2227
20.2654
20.3001
20.3275
20.3485
20.3638
20.3742
20.3806
20.3835
20.3838
20.382
20.3786
20.374
20.3686
20.3629
20.357
20.3511
20.3454
20.34
20.335
20.3304
20.3263
20.3227
20.3195
20.3168
20.3146
20.3128
20.3113
20.3102
20.3095
20.309
20.3087
20.3087
20.3088
20.3091
20.3095
20.31
20.3106
20.3112
20.3119
20.3126
20.3133
20.3139
20.3146
20.3152
20.3158
20.3163
20.3167
20.3171
20.3174
20.3177
20.3178
20.3179
20.3179
20.3177
20.3175
20.3165
1.83602
1.65261
1.49457
1.35754
1.23801
1.13319
1.0408
0.958994
0.886237
0.821278
0.763078
0.710782
0.663677
0.621167
0.582764
0.548098
0.516943
0.489261
0.465273
0.445583
0.431356
0.424602
0.428619
0.448619
0.492553
0.571821
0.701565
0.899804
1.18516
1.57304
2.07163
2.67868
3.38082
4.15528
4.97389
5.80743
6.62998
7.42142
8.16846
8.86393
9.50563
10.0946
10.6337
11.1267
11.5774
11.9896
12.367
12.7124
13.0281
13.3176
13.584
13.8296
14.0563
14.2658
14.4589
14.6364
14.7986
14.9458
15.0781
15.1956
15.2986
15.3873
15.4624
15.5244
15.5742
15.6128
15.6412
15.6605
15.6719
15.6764
15.6751
15.6692
15.6595
15.6469
15.6322
15.6161
15.599
15.5816
15.5641
15.547
15.5304
15.5146
15.4996
15.4856
15.4727
15.4608
15.4499
15.44
15.4311
15.4232
15.4162
15.41
15.4046
15.3998
15.3957
15.3922
15.3892
15.3867
15.3846
15.3829
15.3815
15.3803
15.3794
15.3787
15.3782
15.3778
15.3776
15.3775
15.3774
15.3773
15.3774
15.3774
15.3775
15.3775
15.3776
15.3776
15.3776
15.3776
15.3775
15.3774
15.3772
15.3764
1.83602
1.65258
1.49453
1.35749
1.23795
1.13313
1.04073
0.958918
0.886152
0.821179
0.762955
0.710616
0.663432
0.620779
0.58212
0.546999
0.515028
0.485893
0.459352
0.435246
0.413516
0.394232
0.377641
0.364239
0.354872
0.350881
0.354323
0.368239
0.396964
0.446331
0.523725
0.637743
0.79746
1.01122
1.28527
1.62237
2.0211
2.4755
2.97581
3.50943
4.06261
4.62187
5.1753
5.71332
6.22904
6.71821
7.17876
7.61009
8.01325
8.38863
8.73637
9.05785
9.3544
9.62699
9.87641
10.1032
10.3081
10.4916
10.6544
10.7974
10.9215
11.0279
11.1178
11.1925
11.2534
11.3018
11.3393
11.3672
11.3867
11.3992
11.4057
11.4073
11.405
11.3996
11.3917
11.3821
11.3713
11.3598
11.3478
11.3358
11.3239
11.3125
11.3015
11.2912
11.2815
11.2726
11.2645
11.257
11.2504
11.2445
11.2392
11.2347
11.2307
11.2273
11.2244
11.222
11.2201
11.2185
11.2172
11.2163
11.2157
11.2152
11.215
11.2149
11.215
11.2152
11.2156
11.2159
11.2164
11.2169
11.2174
11.2179
11.2185
11.219
11.2195
11.22
11.2205
11.2209
11.2213
11.2217
11.222
11.2218
1.83601
1.65256
1.4945
1.35744
1.23791
1.13308
1.04068
0.958862
0.886097
0.821124
0.762902
0.710562
0.663373
0.62071
0.582029
0.546861
0.514803
0.485506
0.458672
0.434045
0.411413
0.390598
0.371466
0.353925
0.337934
0.323518
0.310786
0.299958
0.291404
0.285697
0.283685
0.286584
0.296091
0.314476
0.344648
0.390126
0.45494
0.543371
0.659605
0.807251
0.988919
1.2058
1.45744
1.74159
2.05435
2.39046
2.74372
3.10743
3.47496
3.84005
4.19776
4.54305
4.87154
5.18071
5.46911
5.73613
5.98182
6.20671
6.41166
6.59768
6.76592
6.91755
7.05375
7.17565
7.28438
7.381
7.46654
7.54197
7.60823
7.6662
7.71672
7.76058
7.79851
7.83122
7.85934
7.88345
7.90408
7.92171
7.93677
7.94963
7.96065
7.97011
7.97829
7.9854
7.99162
7.99713
8.00206
8.00652
8.01061
8.0144
8.01796
8.02133
8.02456
8.02767
8.03069
8.03363
8.03651
8.03932
8.04208
8.04479
8.04744
8.05004
8.05259
8.05507
8.05749
8.05984
8.06212
8.06434
8.06648
8.06854
8.07052
8.07242
8.07424
8.07597
8.07762
8.07918
8.08067
8.08206
8.08338
8.08461
8.08575
8.08648
1.83601
1.65254
1.49448
1.35742
1.23787
1.13304
1.04065
0.958827
0.886061
0.821089
0.762867
0.710528
0.66334
0.620676
0.581994
0.546824
0.51476
0.485451
0.458593
0.433924
0.411214
0.390265
0.370904
0.35298
0.336364
0.320947
0.306638
0.293369
0.28109
0.269779
0.259446
0.250138
0.241953
0.235053
0.229683
0.226197
0.22509
0.227039
0.232943
0.243954
0.261503
0.28729
0.323261
0.371522
0.434241
0.513497
0.611114
0.728481
0.866409
1.025
1.20365
1.40097
1.61525
1.84359
2.08265
2.32887
2.57868
2.82867
3.07574
3.31714
3.55058
3.77424
3.9867
4.187
4.37452
4.54898
4.71036
4.85888
4.99492
5.11901
5.23177
5.33388
5.42607
5.50909
5.58368
5.65057
5.71047
5.76406
5.81195
5.85474
5.89298
5.92717
5.95776
5.98516
6.00974
6.03184
6.05175
6.06973
6.08602
6.10081
6.11429
6.12661
6.1379
6.14829
6.15788
6.16675
6.17499
6.18265
6.1898
6.19648
6.20274
6.20862
6.21414
6.21934
6.22423
6.22885
6.23321
6.23732
6.2412
6.24487
6.24833
6.2516
6.25469
6.2576
6.26035
6.26294
6.26537
6.26766
6.26982
6.27184
6.27373
6.27521
1.83601
1.65254
1.49448
1.35742
1.23787
1.13304
1.04065
0.958827
0.886061
0.821089
0.762867
0.710528
0.66334
0.620676
0.581994
0.546824
0.51476
0.485451
0.458593
0.433924
0.411215
0.390266
0.370905
0.352981
0.336367
0.320951
0.306645
0.293378
0.281103
0.269797