/*--------------------------------*- C++ -*----------------------------------*\
  =========                 |
  \\      /  F ield         | OpenFOAM: The Open Source CFD Toolbox
   \\    /   O peration     | Website:  https://openfoam.org
    \\  /    A nd           | Version:  8
     \\/     M anipulation  |
\*---------------------------------------------------------------------------*/
FoamFile
{
    version     2.0;
    format      ascii;
    class       volScalarField;
    location    "300";
    object      k;
}
// * * * * * * * * * * * * * * * * * * * * * * * * * * * * * * * * * * * * * //

dimensions      [0 2 -2 0 0 0 0];

internalField   nonuniform List<scalar> 
7320
(
6.07646
5.55936
5.24723
5.04157
4.89414
4.78178
4.6922
4.62012
4.56714
4.53891
4.53304
4.53448
4.52949
4.5159
4.49783
4.47948
4.46304
4.44929
4.43824
4.42985
4.42377
4.41971
4.41734
4.41656
4.41713
4.4189
4.42167
4.42545
4.43009
4.43551
4.4416
4.44838
4.45576
4.46371
4.47211
4.48107
4.49049
4.50034
4.51055
4.52118
4.53216
4.54346
4.55497
4.5668
4.57885
4.59107
4.60337
4.61578
4.62822
4.64062
4.65285
4.66499
4.67691
4.68855
4.69981
4.71075
4.72126
4.73132
4.74084
4.74993
4.75852
4.7666
4.77413
4.78123
4.78784
4.79398
4.79962
4.80491
4.8098
4.81433
4.81845
4.82231
4.82586
4.82913
4.83207
4.83485
4.83741
4.83977
4.84189
4.8439
4.84575
4.84745
4.84896
4.85041
4.85175
4.85299
4.8541
4.85516
4.85614
4.85704
4.85781
4.85859
4.8593
4.85997
4.86054
4.86111
4.86163
4.86211
4.8625
4.86291
4.86329
4.86364
4.86392
4.86422
4.86448
4.86473
4.86492
4.86512
4.8653
4.86547
4.86561
4.86574
4.86586
4.86597
4.86606
4.86614
4.86621
4.86627
4.86633
4.86637
4.86637
4.86649
4.84208
5.67918
5.53993
5.36039
5.21711
5.104
5.0123
4.93731
4.88039
4.84783
4.83935
4.84115
4.83892
4.82951
4.81592
4.8015
4.78803
4.77634
4.76658
4.75889
4.75306
4.74895
4.74634
4.74518
4.74527
4.74654
4.74889
4.75226
4.75656
4.7617
4.76764
4.77433
4.78171
4.78974
4.79838
4.80762
4.81742
4.82776
4.83859
4.8499
4.86166
4.87383
4.88639
4.89931
4.91256
4.92609
4.93984
4.95378
4.96782
4.98191
4.99596
5.00994
5.02376
5.03735
5.05061
5.06351
5.07597
5.08795
5.09939
5.1103
5.12065
5.13042
5.13959
5.1482
5.15623
5.1637
5.17063
5.17708
5.18306
5.18858
5.19367
5.19838
5.2027
5.20668
5.21034
5.21372
5.21685
5.21973
5.22238
5.22482
5.22707
5.22913
5.23102
5.23279
5.23443
5.23594
5.23733
5.23862
5.2398
5.24089
5.24189
5.24283
5.24371
5.24452
5.24525
5.24594
5.24657
5.24715
5.24767
5.24817
5.24863
5.24905
5.24943
5.24979
5.25011
5.2504
5.25065
5.25089
5.25111
5.25132
5.25149
5.25165
5.25179
5.25191
5.25202
5.25211
5.25218
5.25225
5.25231
5.25235
5.25239
5.25246
3.59577
5.05138
5.15993
5.06779
4.96411
4.87326
4.79568
4.72895
4.67481
4.64366
4.6453
4.6727
4.70735
4.73608
4.75492
4.76523
4.76961
4.7704
4.76915
4.76698
4.7645
4.76215
4.76015
4.75875
4.75802
4.75811
4.75906
4.76091
4.76367
4.76734
4.77187
4.77728
4.78353
4.79059
4.79845
4.80713
4.81659
4.8268
4.83774
4.84939
4.8617
4.87466
4.88824
4.90244
4.91721
4.93249
4.94822
4.96432
4.98073
4.99735
5.01409
5.03089
5.04767
5.06429
5.08062
5.0966
5.11213
5.1271
5.14148
5.15526
5.16841
5.18087
5.1926
5.20361
5.21392
5.22351
5.23242
5.24073
5.24848
5.25565
5.26225
5.26834
5.27395
5.2791
5.28383
5.28823
5.29233
5.2961
5.29956
5.30274
5.30567
5.30833
5.31078
5.31308
5.31524
5.31723
5.31905
5.32074
5.32228
5.32369
5.32498
5.32621
5.32736
5.32843
5.3294
5.3303
5.33112
5.33186
5.33253
5.33318
5.33378
5.33434
5.33483
5.33529
5.33569
5.33605
5.33637
5.33667
5.33695
5.3372
5.33742
5.3376
5.33777
5.3379
5.33801
5.3381
5.33817
5.33823
5.33827
5.33829
5.33833
5.33831
2.74723
4.48339
4.83294
4.83939
4.78114
4.71519
4.6528
4.59467
4.54387
4.51673
4.535
4.59843
4.68122
4.75691
4.81373
4.85191
4.87587
4.8901
4.89789
4.90161
4.90275
4.90239
4.90121
4.89979
4.89848
4.89761
4.89738
4.89797
4.89947
4.90192
4.90535
4.9098
4.91524
4.92169
4.92914
4.93763
4.94715
4.95768
4.96915
4.98158
4.99492
5.00913
5.02419
5.04013
5.0569
5.07441
5.09256
5.11129
5.13049
5.15005
5.16985
5.18984
5.20991
5.22988
5.24957
5.26889
5.28771
5.30591
5.32342
5.34024
5.35635
5.37163
5.38604
5.39959
5.41227
5.42408
5.43505
5.44532
5.4549
5.46378
5.47195
5.47949
5.48643
5.4928
5.49865
5.50411
5.5092
5.5139
5.5182
5.52215
5.52578
5.52908
5.5321
5.53495
5.53764
5.54013
5.54239
5.54449
5.5464
5.54814
5.54973
5.55125
5.55269
5.55403
5.55523
5.55635
5.55736
5.55827
5.55909
5.55989
5.56065
5.56134
5.56195
5.5625
5.563
5.56343
5.56381
5.56417
5.56451
5.56482
5.56507
5.56529
5.56548
5.56563
5.56575
5.56584
5.5659
5.56595
5.56599
5.56599
5.56604
5.56593
2.10347
3.90604
4.48945
4.61132
4.60905
4.57387
4.53007
4.48271
4.43749
4.41839
4.46042
4.56948
4.70944
4.8383
4.9365
5.00416
5.04839
5.07635
5.09333
5.10306
5.10797
5.10976
5.1096
5.10838
5.10674
5.10517
5.10404
5.10364
5.10415
5.10567
5.10826
5.11201
5.11691
5.12299
5.13027
5.13881
5.14862
5.15965
5.17187
5.18526
5.19979
5.21541
5.23209
5.24989
5.26874
5.28855
5.30917
5.33054
5.35254
5.37501
5.39782
5.42094
5.44421
5.46742
5.49035
5.5129
5.53489
5.55618
5.57668
5.59642
5.61534
5.63333
5.65029
5.66625
5.6812
5.69513
5.70807
5.72019
5.73153
5.74204
5.75171
5.76063
5.76884
5.77637
5.78328
5.78975
5.7958
5.80138
5.80647
5.81116
5.81545
5.81935
5.82292
5.8263
5.82949
5.83245
5.83513
5.83762
5.83989
5.84194
5.84381
5.84561
5.84732
5.84891
5.85034
5.85166
5.85286
5.85393
5.85489
5.85583
5.85673
5.85755
5.85827
5.85892
5.8595
5.86001
5.86045
5.86087
5.86127
5.86162
5.86192
5.86217
5.86238
5.86255
5.86268
5.86277
5.86283
5.86288
5.86291
5.86289
5.86294
5.86277
1.61626
3.30899
4.10168
4.3553
4.42211
4.42572
4.40547
4.37234
4.33609
4.32963
4.40163
4.56324
4.76617
4.95182
5.09321
5.19112
5.2559
5.2977
5.3239
5.33969
5.34846
5.35256
5.35359
5.35281
5.35106
5.34905
5.34725
5.34611
5.34586
5.34667
5.34863
5.35186
5.3564
5.36227
5.3695
5.37821
5.38839
5.4
5.41299
5.42736
5.44307
5.46006
5.4783
5.49787
5.51869
5.54064
5.56357
5.5874
5.61198
5.63715
5.66274
5.68873
5.71494
5.74113
5.76704
5.79254
5.81745
5.84159
5.86485
5.88728
5.90882
5.92931
5.94863
5.96684
5.9839
5.9998
6.01459
6.02845
6.04142
6.05346
6.06452
6.07474
6.08415
6.09277
6.10068
6.10809
6.11503
6.12144
6.12728
6.13265
6.13757
6.14204
6.14612
6.15
6.15366
6.15705
6.16012
6.16297
6.16557
6.16792
6.17005
6.17211
6.17408
6.1759
6.17754
6.17905
6.18042
6.18164
6.18274
6.18382
6.18485
6.18579
6.18661
6.18736
6.18802
6.1886
6.18909
6.18957
6.19003
6.19043
6.19077
6.19106
6.19129
6.19148
6.19162
6.19172
6.19179
6.19183
6.19186
6.19183
6.19189
6.19167
1.26813
2.70646
3.65736
4.05369
4.20399
4.25633
4.26613
4.25196
4.22905
4.23987
4.34643
4.56456
4.83355
5.07823
5.26434
5.39346
5.47939
5.53539
5.57111
5.5932
5.60604
5.61267
5.61513
5.615
5.61339
5.61115
5.60892
5.60722
5.6064
5.60666
5.60814
5.61098
5.61525
5.62099
5.62823
5.63712
5.64767
5.65983
5.67353
5.68881
5.70559
5.72383
5.74348
5.76464
5.78722
5.8111
5.83608
5.86211
5.889
5.91657
5.94465
5.97322
6.00208
6.03096
6.05957
6.08776
6.11534
6.14209
6.16789
6.19281
6.21675
6.23957
6.26111
6.28141
6.30046
6.31822
6.33474
6.35024
6.36475
6.37823
6.39063
6.40208
6.41262
6.42228
6.43115
6.43946
6.44723
6.45442
6.46097
6.467
6.47252
6.47753
6.48211
6.48644
6.49055
6.49435
6.4978
6.50099
6.5039
6.50654
6.50892
6.51123
6.51343
6.51548
6.51731
6.519
6.52054
6.52191
6.52314
6.52434
6.5255
6.52656
6.52748
6.52832
6.52906
6.52971
6.53026
6.5308
6.53131
6.53177
6.53214
6.53246
6.53273
6.53294
6.5331
6.5332
6.53328
6.53332
6.53336
6.53332
6.53338
6.53313
1.04445
2.13055
3.15621
3.69397
3.94141
4.05396
4.10193
4.11281
4.10847
4.14099
4.28476
4.56053
4.89673
5.2023
5.43517
5.5973
5.70574
5.77695
5.82291
5.85188
5.86927
5.87881
5.88304
5.88388
5.88267
5.88045
5.87798
5.87592
5.87467
5.87452
5.8756
5.87813
5.88219
5.88782
5.89507
5.90412
5.91498
5.92762
5.94194
5.95799
5.9757
5.99501
6.01589
6.03841
6.06252
6.08807
6.11485
6.14279
6.17171
6.20141
6.23169
6.26255
6.29378
6.32507
6.35611
6.38675
6.41677
6.44593
6.47409
6.50132
6.52752
6.55252
6.57615
6.59844
6.61938
6.63892
6.6571
6.67417
6.69018
6.70504
6.71873
6.73137
6.74301
6.75369
6.76348
6.77266
6.78125
6.7892
6.79644
6.8031
6.8092
6.81474
6.8198
6.82458
6.82911
6.83331
6.83713
6.84065
6.84387
6.84678
6.84942
6.85196
6.85439
6.85665
6.85867
6.86054
6.86224
6.86376
6.86512
6.86645
6.86772
6.86889
6.86992
6.87085
6.87167
6.87239
6.87301
6.8736
6.87417
6.87467
6.87509
6.87545
6.87575
6.87599
6.87617
6.87629
6.87637
6.87643
6.87647
6.87643
6.8765
6.87622
0.919771
1.62595
2.61291
3.26918
3.62263
3.80735
3.90309
3.94648
3.96682
4.02511
4.20682
4.53878
4.94184
5.3102
5.59292
5.79104
5.9244
6.01266
6.07026
6.10714
6.1299
6.143
6.14953
6.15177
6.15132
6.14942
6.14697
6.14474
6.14324
6.14279
6.14358
6.14586
6.14973
6.15526
6.16251
6.17167
6.18277
6.19577
6.21059
6.22726
6.24573
6.26594
6.28782
6.31149
6.33688
6.36384
6.39215
6.42173
6.4524
6.48394
6.51616
6.54903
6.58235
6.61581
6.64905
6.68192
6.71418
6.74557
6.77593
6.80532
6.83365
6.86072
6.88634
6.91055
6.93331
6.95458
6.97439
6.99299
7.01044
7.02667
7.04162
7.05544
7.06817
7.07985
7.09057
7.1006
7.10999
7.11868
7.12661
7.1339
7.14057
7.14664
7.15217
7.15741
7.16235
7.16694
7.17112
7.17497
7.17849
7.18167
7.18456
7.18733
7.18999
7.19245
7.19467
7.19672
7.19858
7.20024
7.20173
7.20319
7.20458
7.20587
7.20699
7.20801
7.20892
7.20971
7.2104
7.21105
7.21167
7.21223
7.2127
7.2131
7.21344
7.21371
7.21391
7.21404
7.21415
7.21421
7.21427
7.21424
7.21432
7.21401
0.860373
1.23778
2.06211
2.78221
3.23867
3.50541
3.65924
3.74387
3.79583
3.88373
4.10239
4.48675
4.95486
5.38804
5.72477
5.96329
6.12532
6.23354
6.30498
6.35147
6.38088
6.39856
6.40819
6.41248
6.41333
6.41217
6.41008
6.40797
6.40641
6.40583
6.40645
6.40856
6.41228
6.41772
6.42495
6.43416
6.44542
6.45868
6.47387
6.49102
6.51008
6.53098
6.55367
6.57826
6.60469
6.6328
6.66237
6.69332
6.72547
6.75858
6.79246
6.82708
6.86224
6.89761
6.93284
6.96773
7.00204
7.03549
7.0679
7.09934
7.12968
7.15872
7.18627
7.21233
7.23686
7.25982
7.28122
7.30134
7.32022
7.33779
7.354
7.36899
7.3828
7.39548
7.40713
7.41802
7.4282
7.43764
7.44625
7.45417
7.46142
7.46802
7.47403
7.47971
7.48507
7.49005
7.49458
7.49876
7.50259
7.50605
7.50918
7.51219
7.51507
7.51774
7.52015
7.52237
7.5244
7.52621
7.52784
7.52941
7.53093
7.53232
7.53355
7.53467
7.53567
7.53654
7.53729
7.53801
7.53869
7.53931
7.53982
7.54027
7.54065
7.54095
7.54118
7.54134
7.54147
7.54155
7.54162
7.5416
7.54169
7.54138
0.836788
0.988182
1.55978
2.25331
2.78743
3.13864
3.35965
3.49482
3.58603
3.70724
3.96059
4.39138
4.92096
5.42067
5.81661
6.10149
6.29748
6.4299
6.51847
6.57709
6.6151
6.63889
6.65283
6.66012
6.66304
6.66326
6.66204
6.66044
6.65915
6.65868
6.65931
6.66138
6.66504
6.67044
6.67765
6.6869
6.69825
6.71168
6.72713
6.74461
6.7641
6.78551
6.80881
6.83409
6.86132
6.89033
6.92091
6.95297
6.98632
7.02073
7.056
7.09212
7.12886
7.16591
7.20288
7.23959
7.27576
7.31111
7.34544
7.37878
7.41103
7.44195
7.47134
7.49919
7.52545
7.55006
7.57305
7.59465
7.61494
7.63385
7.65132
7.66747
7.68237
7.69606
7.70864
7.72038
7.73137
7.74155
7.75085
7.7594
7.76724
7.77437
7.78087
7.78699
7.79277
7.79814
7.80303
7.80754
7.81167
7.81541
7.8188
7.82204
7.82513
7.82802
7.83062
7.83302
7.83521
7.83718
7.83894
7.84064
7.84228
7.84379
7.84512
7.84634
7.84742
7.84838
7.8492
7.84999
7.85073
7.85141
7.85198
7.85248
7.8529
7.85324
7.85351
7.8537
7.85385
7.85395
7.85404
7.85404
7.85414
7.85383
0.830412
0.857524
1.16934
1.72868
2.28172
2.70331
2.99487
3.18862
3.32675
3.48497
3.76989
4.23906
4.82419
5.39109
5.85199
6.19073
6.42775
6.59027
6.70062
6.775
6.82445
6.85658
6.8766
6.88833
6.89446
6.89699
6.89738
6.8969
6.89636
6.89638
6.89733
6.89958
6.90336
6.90882
6.91608
6.92538
6.93681
6.95037
6.96598
6.98369
7.00346
7.02523
7.04895
7.07473
7.10253
7.13221
7.16354
7.19644
7.23073
7.26618
7.30259
7.33993
7.378
7.41647
7.45497
7.49328
7.53111
7.56819
7.60427
7.63938
7.6734
7.70611
7.73725
7.76682
7.79475
7.82098
7.8455
7.86857
7.89025
7.91048
7.92919
7.9465
7.96249
7.97719
7.9907
8.00331
8.01509
8.02601
8.03601
8.0452
8.05362
8.06129
8.06829
8.07486
8.08105
8.0868
8.09205
8.0969
8.10133
8.10536
8.10901
8.11248
8.11579
8.11888
8.12168
8.12426
8.12662
8.12874
8.13064
8.13247
8.13423
8.13585
8.1373
8.13861
8.13979
8.14083
8.14174
8.14259
8.1434
8.14414
8.14477
8.14532
8.14579
8.14618
8.14648
8.14671
8.14689
8.14702
8.14713
8.14715
8.14727
8.14697
0.831631
0.801467
0.924731
1.27916
1.76079
2.20996
2.56135
2.81618
3.00705
3.20553
3.51841
4.01603
4.64773
5.2802
5.81153
6.21288
6.49992
6.70036
6.8389
6.93413
6.99905
7.04271
7.07137
7.08959
7.1006
7.1068
7.10993
7.11146
7.11241
7.11352
7.11526
7.11809
7.12227
7.12803
7.13551
7.14497
7.15652
7.17021
7.18596
7.20384
7.2238
7.2458
7.2698
7.2959
7.32407
7.35419
7.38605
7.41956
7.45453
7.49077
7.52805
7.56635
7.60548
7.64512
7.6849
7.72457
7.76386
7.80246
7.84012
7.87685
7.9125
7.94685
7.97964
8.01084
8.04036
8.06813
8.09415
8.11864
8.14166
8.16318
8.18311
8.20158
8.21864
8.23434
8.24878
8.26224
8.27481
8.28647
8.29716
8.30698
8.31599
8.3242
8.33169
8.33871
8.3453
8.35144
8.35705
8.36223
8.36697
8.37128
8.37519
8.37889
8.38242
8.38571
8.3887
8.39147
8.39399
8.39627
8.39831
8.40027
8.40214
8.40388
8.40544
8.40686
8.40813
8.40926
8.41025
8.41118
8.41205
8.41285
8.41355
8.41415
8.41468
8.41511
8.41546
8.41573
8.41594
8.4161
8.41624
8.41629
8.41643
8.41613
0.835914
0.782668
0.803424
0.968384
1.29583
1.69676
2.07108
2.37561
2.61879
2.85847
3.19496
3.70934
4.37475
5.06729
5.67275
6.14593
6.49373
6.74213
6.91738
7.04042
7.1264
7.18609
7.22701
7.25465
7.27294
7.28478
7.29229
7.29719
7.30073
7.30383
7.30711
7.31112
7.31621
7.32266
7.33067
7.34052
7.35238
7.3663
7.38226
7.40031
7.42044
7.44261
7.46679
7.49308
7.52148
7.55186
7.58405
7.61794
7.65337
7.69014
7.72805
7.76706
7.80698
7.84753
7.88832
7.92912
7.96962
8.00953
8.04857
8.08672
8.12382
8.15965
8.19396
8.22666
8.25766
8.28689
8.31433
8.34016
8.36446
8.38721
8.40831
8.42788
8.44598
8.46267
8.47802
8.4923
8.50563
8.51801
8.52937
8.53982
8.54939
8.55814
8.56612
8.57357
8.58056
8.58707
8.59304
8.59854
8.60358
8.60817
8.61234
8.61627
8.62
8.62349
8.62668
8.62961
8.6323
8.63473
8.63693
8.63901
8.641
8.64285
8.64452
8.64604
8.64741
8.64863
8.6497
8.6507
8.65164
8.65251
8.65327
8.65394
8.65451
8.655
8.6554
8.65571
8.65596
8.65616
8.65633
8.6564
8.65657
8.6563
0.841163
0.780281
0.755007
0.801854
0.96286
1.23786
1.56684
1.88383
2.16386
2.43858
2.79171
3.30899
3.99049
4.73158
5.41074
5.96387
6.38429
6.69282
6.91572
7.0758
7.19047
7.27239
7.33065
7.37186
7.40084
7.42114
7.43536
7.44558
7.45334
7.4598
7.46575
7.47188
7.47865
7.48645
7.49552
7.5062
7.51869
7.53311
7.54946
7.56782
7.5882
7.61058
7.63493
7.66137
7.68989
7.72042
7.75278
7.78689
7.82258
7.85968
7.89799
7.93746
7.97793
8.01912
8.06067
8.10233
8.1438
8.18477
8.22496
8.2643
8.30264
8.33976
8.37539
8.40943
8.44176
8.47232
8.50104
8.52811
8.55359
8.57747
8.59967
8.62028
8.63935
8.65695
8.67316
8.68823
8.70228
8.71533
8.72732
8.73836
8.74848
8.75774
8.7662
8.77406
8.78143
8.78828
8.79458
8.80039
8.80572
8.81058
8.815
8.81915
8.82307
8.82675
8.83012
8.83322
8.83607
8.83865
8.84099
8.84319
8.84529
8.84725
8.84902
8.85064
8.85211
8.85342
8.85458
8.85565
8.85666
8.85759
8.85842
8.85914
8.85977
8.86032
8.86076
8.86112
8.86142
8.86165
8.86186
8.86197
8.86215
8.86191
0.84637
0.784569
0.740866
0.731433
0.780861
0.913776
1.12968
1.39385
1.66888
1.95589
2.31062
2.81249
3.48623
4.25563
5.00046
5.63767
6.14198
6.52434
6.80823
7.01721
7.17062
7.28318
7.36572
7.42627
7.47072
7.50344
7.52771
7.54606
7.56041
7.5722
7.5825
7.59216
7.60182
7.61196
7.62294
7.63516
7.64887
7.66427
7.6814
7.70038
7.72123
7.74399
7.76863
7.79528
7.82395
7.8546
7.88706
7.92128
7.9571
7.99437
8.0329
8.07263
8.11341
8.155
8.19706
8.23932
8.28149
8.32326
8.36435
8.40464
8.44398
8.48214
8.51887
8.55403
8.58749
8.61918
8.64903
8.67717
8.70368
8.72855
8.75171
8.77324
8.79318
8.81161
8.8286
8.84437
8.85906
8.8727
8.88527
8.89684
8.90746
8.91718
8.92607
8.93431
8.94201
8.94919
8.95579
8.96188
8.96747
8.97258
8.97723
8.98158
8.98568
8.98952
8.99305
8.99631
8.9993
9.00203
9.0045
9.00682
9.00901
9.01107
9.01294
9.01466
9.01621
9.01761
9.01885
9.02
9.02107
9.02206
9.02295
9.02373
9.02442
9.02502
9.02552
9.02593
9.02627
9.02655
9.02679
9.02693
9.02714
9.02693
0.85101
0.791141
0.741123
0.708368
0.703474
0.741582
0.837781
0.995415
1.20275
1.45378
1.77718
2.23485
2.86734
3.63215
4.4219
5.13844
5.73387
6.20336
6.56324
6.83551
7.04049
7.19472
7.31088
7.39861
7.46511
7.51581
7.55478
7.58522
7.60953
7.62953
7.64661
7.66188
7.67619
7.6902
7.70438
7.71923
7.73511
7.75228
7.77086
7.79101
7.8128
7.83631
7.86155
7.88863
7.91761
7.94848
7.98111
8.01544
8.05136
8.08873
8.12736
8.16721
8.20814
8.24994
8.29227
8.33489
8.37751
8.41982
8.46153
8.5025
8.54256
8.58149
8.61905
8.65506
8.68941
8.72199
8.75274
8.78174
8.80907
8.83473
8.85866
8.88093
8.90159
8.9207
8.93832
8.95467
8.96988
8.98402
8.99705
9.00906
9.02009
9.03021
9.03946
9.04802
9.056
9.06343
9.07028
9.07661
9.08242
9.08774
9.0926
9.09712
9.10136
9.10534
9.10901
9.1124
9.11552
9.11837
9.12096
9.12338
9.12566
9.1278
9.12976
9.13156
9.13319
9.13467
9.13599
9.1372
9.13834
9.13938
9.14033
9.14117
9.14191
9.14256
9.14311
9.14357
9.14396
9.14428
9.14455
9.14474
9.14497
9.14479
0.854798
0.797917
0.746859
0.70536
0.677887
0.67075
0.692647
0.753098
0.859684
1.02109
1.26087
1.62731
2.16886
2.87738
3.67084
4.44506
5.12833
5.69355
6.14373
6.49519
6.76707
6.97681
7.1387
7.26403
7.36147
7.43772
7.49786
7.54589
7.58486
7.61713
7.64449
7.66838
7.68993
7.71003
7.72934
7.7485
7.76798
7.78815
7.80924
7.83148
7.855
7.87992
7.90631
7.9343
7.96398
7.99537
8.0284
8.06302
8.09914
8.13666
8.17542
8.21536
8.25636
8.29823
8.34068
8.38347
8.42632
8.46893
8.511
8.55237
8.59286
8.63227
8.67034
8.70691
8.74184
8.77502
8.80636
8.83594
8.86382
8.89
8.91446
8.93724
8.95838
8.97795
8.99602
9.01277
9.02834
9.0428
9.05615
9.06846
9.07978
9.09017
9.09969
9.10848
9.11665
9.12426
9.13128
9.13777
9.14374
9.14922
9.15423
9.15887
9.16322
9.1673
9.17107
9.17456
9.17777
9.18072
9.18341
9.1859
9.18825
9.19045
9.19248
9.19434
9.19605
9.19759
9.19898
9.20025
9.20143
9.20253
9.20352
9.20441
9.20521
9.20591
9.20651
9.20701
9.20745
9.2078
9.20811
9.20834
9.20859
9.20845
0.857613
0.803837
0.75402
0.710066
0.674013
0.648363
0.636544
0.643272
0.675076
0.74271
0.868252
1.09467
1.48012
2.05535
2.7801
3.56077
4.30645
4.96264
5.51106
5.95585
6.31086
6.59217
6.81464
6.9908
7.13081
7.2427
7.33273
7.40587
7.46601
7.51619
7.55873
7.59552
7.62801
7.65742
7.68467
7.71058
7.7358
7.76084
7.78608
7.81182
7.8383
7.86571
7.89419
7.9239
7.95497
7.98748
8.02139
8.05671
8.09337
8.1313
8.17038
8.21053
8.25166
8.29362
8.33615
8.37902
8.42195
8.46467
8.50689
8.54842
8.58907
8.62865
8.66692
8.70371
8.73887
8.77229
8.8039
8.83371
8.8618
8.88817
8.91282
8.93579
8.95712
8.97688
8.99513
9.01203
9.02771
9.04227
9.05573
9.06815
9.07958
9.09009
9.09972
9.1086
9.11685
9.12451
9.1316
9.13816
9.1442
9.14975
9.15484
9.15955
9.16395
9.16806
9.17188
9.17542
9.17868
9.18169
9.18444
9.18698
9.18937
9.19161
9.19367
9.19558
9.19733
9.19893
9.20036
9.20168
9.2029
9.20403
9.20506
9.20599
9.20683
9.20757
9.20821
9.20876
9.20923
9.20963
9.20997
9.21024
9.21051
9.2104
0.859481
0.808377
0.760623
0.71697
0.678331
0.645745
0.620492
0.604304
0.599846
0.61222
0.652936
0.747799
0.945442
1.30647
1.85564
2.54585
3.28747
4.00009
4.63632
5.17891
5.62934
5.9978
6.29708
6.53968
6.73658
6.89694
7.02825
7.13652
7.22661
7.30235
7.3668
7.42239
7.47105
7.51436
7.55357
7.58977
7.62383
7.65649
7.68827
7.71965
7.75098
7.78254
7.81458
7.8473
7.8809
7.91551
7.95118
7.98794
8.02578
8.06466
8.1045
8.14524
8.18681
8.22907
8.2718
8.31481
8.35782
8.40059
8.44284
8.48436
8.52496
8.56446
8.60263
8.6393
8.67433
8.70762
8.73909
8.76875
8.79664
8.82281
8.84726
8.87002
8.89116
8.91074
8.92882
8.94555
8.96104
8.97542
8.9887
9.00097
9.01227
9.02267
9.03222
9.04101
9.04916
9.05673
9.06374
9.07023
9.07621
9.08173
9.0868
9.09149
9.09585
9.09993
9.10373
9.10725
9.11051
9.11352
9.11628
9.11883
9.12122
9.12346
9.12553
9.12745
9.12922
9.13083
9.1323
9.13365
9.13489
9.13604
9.13709
9.13804
9.1389
9.13967
9.14035
9.14094
9.14144
9.14187
9.14225
9.14254
9.14283
9.14276
0.860565
0.811409
0.765709
0.723436
0.684824
0.650239
0.620139
0.595121
0.576082
0.564776
0.565301
0.587444
0.653226
0.804859
1.09883
1.56683
2.17797
2.85654
3.5286
4.14655
4.68902
5.15216
5.54132
5.86562
6.13502
6.35887
6.54535
6.7014
6.83277
6.94421
7.03956
7.12192
7.19384
7.25738
7.31421
7.3657
7.41306
7.45727
7.49912
7.53924
7.57818
7.61637
7.65416
7.69187
7.72975
7.76803
7.80685
7.84628
7.88638
7.92717
7.96861
8.01066
8.05327
8.09634
8.1397
8.18315
8.22647
8.26943
8.31176
8.35325
8.3937
8.43295
8.47079
8.50707
8.54164
8.57444
8.60537
8.63445
8.66172
8.68724
8.71103
8.73314
8.75363
8.77259
8.79009
8.80624
8.82117
8.83499
8.84776
8.85955
8.87042
8.88042
8.88962
8.89809
8.90592
8.9132
8.91994
8.92618
8.93196
8.9373
8.94221
8.94676
8.95099
8.95494
8.95862
8.96204
8.96522
8.96816
8.97087
8.97338
8.97572
8.97791
8.97995
8.98184
8.98359
8.9852
8.98667
8.98801
8.98925
8.9904
8.99145
8.99241
8.99329
8.99407
8.99477
8.99538
8.99591
8.99636
8.99676
8.99709
8.99739
8.99733
0.861099
0.813133
0.769009
0.728259
0.69067
0.6562
0.624912
0.596948
0.572559
0.552271
0.537331
0.530733
0.539342
0.578156
0.676587
0.879245
1.22536
1.71382
2.2964
2.90825
3.4983
4.03748
4.51405
4.92695
5.28068
5.58203
5.83829
6.05639
6.24257
6.40222
6.53988
6.65937
6.76389
6.85607
6.93809
7.01176
7.07863
7.13994
7.19681
7.25014
7.30069
7.3491
7.39587
7.44146
7.48625
7.53056
7.57463
7.61864
7.66272
7.70694
7.75134
7.79592
7.84065
7.88547
7.93026
7.97484
8.01903
8.06261
8.10535
8.14702
8.18746
8.22648
8.26393
8.29965
8.33355
8.36555
8.3956
8.42371
8.44994
8.47436
8.49702
8.51799
8.53736
8.55522
8.57166
8.58677
8.6007
8.61355
8.6254
8.63633
8.6464
8.65567
8.6642
8.67205
8.67931
8.68605
8.69229
8.69809
8.70346
8.70844
8.71304
8.7173
8.72127
8.72497
8.72843
8.73166
8.73466
8.73745
8.74004
8.74244
8.74467
8.74677
8.74872
8.75054
8.75222
8.75378
8.75522
8.75653
8.75774
8.75887
8.7599
8.76085
8.76171
8.76249
8.76319
8.76381
8.76436
8.76483
8.76524
8.76559
8.7659
8.76588
0.861317
0.813941
0.770774
0.731183
0.694716
0.661079
0.630092
0.60166
0.575759
0.55247
0.532102
0.515479
0.504493
0.503203
0.520059
0.571654
0.686035
0.898001
1.22999
1.67202
2.18405
2.71764
3.2351
3.71449
4.14627
4.52844
4.8633
5.15516
5.40911
5.63018
5.82306
5.99193
6.14048
6.27188
6.38881
6.49356
6.58807
6.67401
6.75278
6.82551
6.89328
6.95697
7.01732
7.07496
7.13044
7.18422
7.23668
7.28809
7.33871
7.3887
7.43817
7.48718
7.53575
7.58387
7.63145
7.67837
7.72446
7.76955
7.81342
7.85588
7.89674
7.93587
7.97312
8.00838
8.04158
8.07267
8.10164
8.12852
8.15339
8.17635
8.19748
8.21688
8.23468
8.25097
8.26588
8.2795
8.29198
8.30344
8.31396
8.32362
8.33251
8.34069
8.34821
8.35514
8.36154
8.36747
8.37298
8.3781
8.38286
8.38729
8.3914
8.39522
8.39878
8.40212
8.40524
8.40816
8.41089
8.41345
8.41583
8.41804
8.42011
8.42205
8.42387
8.42557
8.42715
8.42862
8.42998
8.43123
8.43239
8.43347
8.43446
8.43538
8.43621
8.43698
8.43766
8.43828
8.43883
8.43931
8.43973
8.44008
8.4404
8.44039
0.861388
0.814244
0.771529
0.732596
0.696916
0.664077
0.633767
0.605752
0.579862
0.555991
0.534118
0.514391
0.497257
0.483726
0.475843
0.477626
0.496768
0.546954
0.649088
0.827256
1.09739
1.45562
1.87764
2.32954
2.78081
3.21087
3.60886
3.97054
4.29554
4.58562
4.8437
5.07314
5.27733
5.45947
5.62245
5.76884
5.90094
6.02079
6.1301
6.23041
6.32298
6.40886
6.48911
6.56459
6.63606
6.70416
6.76943
6.83233
6.89321
6.95236
7.01001
7.06628
7.12129
7.17506
7.22757
7.27874
7.32844
7.37654
7.42286
7.46721
7.50946
7.54948
7.58716
7.62243
7.65526
7.68565
7.71364
7.73931
7.76275
7.78411
7.80352
7.82112
7.83706
7.85149
7.86455
7.87636
7.88707
7.8968
7.90567
7.91377
7.92118
7.92797
7.93421
7.93995
7.94525
7.95016
7.95473
7.95899
7.96297
7.96668
7.97015
7.9734
7.97644
7.9793
7.98199
7.98452
7.9869
7.98915
7.99126
7.99323
7.99509
7.99683
7.99848
8.00002
8.00146
8.00282
8.00408
8.00525
8.00634
8.00735
8.00829
8.00916
8.00996
8.01069
8.01136
8.01197
8.01251
8.01299
8.01342
8.01378
8.01411
8.01413
0.861405
0.814329
0.771776
0.733121
0.697833
0.665475
0.635685
0.608167
0.582681
0.559036
0.53709
0.516765
0.49808
0.481207
0.466571
0.455039
0.448246
0.449181
0.46316
0.499018
0.569794
0.691246
0.876943
1.13154
1.44708
1.80512
2.18318
2.56119
2.92509
3.26688
3.58312
3.873
4.13721
4.37722
4.59494
4.7925
4.97206
5.13567
5.2852
5.42234
5.54857
5.66526
5.77357
5.87446
5.96893
6.05787
6.14201
6.22197
6.29827
6.37135
6.44155
6.50913
6.57429
6.63712
6.69768
6.75595
6.81184
6.86527
6.9161
6.9642
7.00947
7.0518
7.09116
7.12751
7.16089
7.19136
7.21902
7.244
7.26646
7.28658
7.30456
7.32059
7.33485
7.34755
7.35885
7.3689
7.37788
7.38591
7.39314
7.39965
7.40556
7.41094
7.41586
7.42038
7.42454
7.4284
7.432
7.43537
7.43853
7.4415
7.44431
7.44696
7.44946
7.45183
7.45408
7.45622
7.45825
7.46018
7.46201
7.46375
7.46539
7.46695
7.46842
7.46982
7.47114
7.47238
7.47355
7.47465
7.47568
7.47664
7.47753
7.47837
7.47914
7.47986
7.48052
7.48112
7.48167
7.48216
7.48261
7.483
7.48334
7.48339
0.861407
0.814342
0.77183
0.73326
0.698113
0.665954
0.636416
0.60919
0.584012
0.560664
0.538961
0.51876
0.499951
0.482477
0.466344
0.451662
0.438708
0.428034
0.420627
0.418192
0.423587
0.441395
0.478419
0.543603
0.646809
0.796153
0.994919
1.23961
1.52046
1.824
2.13637
2.44595
2.74462
3.02769
3.29305
3.54017
3.76944
3.98166
4.17789
4.35928
4.52711
4.68267
4.82717
4.96179
5.08756
5.20528
5.31575
5.41982
5.51816
5.61135
5.69989
5.78416
5.86446
5.941
6.01391
6.08322
6.14894
6.21102
6.26942
6.32404
6.37486
6.42185
6.46503
6.50445
6.54022
6.57248
6.60141
6.6272
6.6501
6.67033
6.68814
6.70379
6.71751
6.72952
6.74005
6.74928
6.75739
6.76455
6.77089
6.77653
6.78159
6.78615
6.79031
6.7941
6.79759
6.80083
6.80386
6.80669
6.80937
6.81191
6.81433
6.81663
6.81883
6.82093
6.82295
6.82488
6.82673
6.8285
6.83021
6.83184
6.83339
6.83488
6.8363
6.83766
6.83894
6.84017
6.84134
6.84243
6.84347
6.84445
6.84537
6.84624
6.84704
6.8478
6.8485
6.84915
6.84975
6.85029
6.8508
6.85125
6.85165
6.85179
0.861405
0.814337
0.77183
0.733276
0.698164
0.666062
0.636607
0.60949
0.584447
0.561253
0.539718
0.519682
0.501007
0.483578
0.467302
0.452114
0.437988
0.424958
0.413144
0.402799
0.394372
0.388617
0.386747
0.390654
0.403187
0.428353
0.471313
0.537934
0.633832
0.763
0.926584
1.12222
1.34434
1.58522
1.83645
2.09021
2.34025
2.58218
2.8134
3.03268
3.23974
3.4348
3.61835
3.79099
3.95334
4.10604
4.24977
4.38506
4.51234
4.63238
4.74576
4.85295
4.95435
5.05023
5.14079
5.22615
5.30637
5.38152
5.45163
5.51673
5.57688
5.63217
5.68273
5.72871
5.77031
5.80777
5.84134
5.87129
5.89791
5.92149
5.94233
5.96069
5.97687
5.9911
6.00365
6.0147
6.02447
6.03312
6.04082
6.04769
6.05387
6.05945
6.06452
6.06916
6.07343
6.07737
6.08105
6.08448
6.08771
6.09076
6.09365
6.0964
6.09901
6.1015
6.10389
6.10616
6.10834
6.11043
6.11243
6.11434
6.11617
6.11791
6.11958
6.12117
6.12269
6.12413
6.12551
6.12681
6.12805
6.12922
6.13032
6.13137
6.13235
6.13327
6.13413
6.13494
6.13569
6.13639
6.13704
6.13763
6.13818
6.13847
0.861402
0.814329
0.77182
0.733266
0.698157
0.666065
0.636627
0.609537
0.584531
0.561387
0.539913
0.519949
0.501353
0.484001
0.467781
0.452594
0.438358
0.425005
0.41249
0.400795
0.389939
0.379991
0.371094
0.363498
0.357602
0.354022
0.353679
0.357915
0.368608
0.388235
0.419838
0.466818
0.532557
0.619868
0.730445
0.864419
1.02023
1.19474
1.38372
1.58234
1.78585
1.98998
2.19132
2.38738
2.57655
2.75799
2.93137
3.09666
3.25416
3.40393
3.5459
3.68036
3.80757
3.92773
4.04099
4.14751
4.24743
4.34092
4.42815
4.50931
4.5846
4.65423
4.71844
4.77748
4.83161
4.88111
4.92625
4.96732
5.00461
5.03842
5.06901
5.09666
5.12164
5.14419
5.16456
5.18296
5.1996
5.21465
5.22829
5.24067
5.25193
5.26221
5.2716
5.2802
5.28811
5.2954
5.30213
5.30836
5.31415
5.31955
5.32458
5.32929
5.3337
5.33785
5.34174
5.34541
5.34887
5.35213
5.35521
5.35812
5.36088
5.36348
5.36594
5.36827
5.37047
5.37256
5.37453
5.37639
5.37814
5.3798
5.38136
5.38284
5.38422
5.38553
5.38675
5.3879
5.38898
5.38998
5.39093
5.3918
5.39261
5.39318
0.8614
0.814321
0.77181
0.733253
0.698143
0.66605
0.636614
0.609527
0.584528
0.561393
0.539933
0.519987
0.501414
0.484088
0.467897
0.452737
0.438516
0.425154
0.412579
0.400733
0.389563
0.379033
0.369118
0.35981
0.351126
0.343113
0.335861
0.329516
0.324304
0.320558
0.318752
0.319553
0.323873
0.332907
0.34815
0.37136
0.404477
0.449465
0.50811
0.58178
0.671228
0.776447
0.896626
1.03019
1.17494
1.32829
1.48746
1.64973
1.81263
1.97404
2.13244
2.28642
2.43485
2.57727
2.71351
2.84355
2.96752
3.08556
3.19783
3.30446
3.40557
3.50125
3.59158
3.67664
3.75652
3.83132
3.90116
3.96618
4.02656
4.08247
4.13413
4.18175
4.22556
4.26581
4.30272
4.33653
4.36747
4.39578
4.42165
4.4453
4.46691
4.48667
4.50475
4.52129
4.53644
4.55034
4.56309
4.57481
4.5856
4.59553
4.6047
4.61317
4.621
4.62826
4.635
4.64125
4.64707
4.65249
4.65754
4.66226
4.66666
4.67078
4.67463
4.67824
4.68162
4.68479
4.68776
4.69055
4.69316
4.69561
4.69792
4.70008
4.7021
4.704
4.70579
4.70746
4.70902
4.71049
4.71186
4.71314
4.71434
4.71528
0.861399
0.814317
0.771804
0.733245
0.698133
0.666039
0.636602
0.609515
0.584516
0.561382
0.539924
0.51998
0.501411
0.48409
0.467904
0.452751
0.438537
0.42518
0.412608
0.400755
0.389563
0.37898
0.368962
0.359469
0.350468
0.341932
0.333843
0.32619
0.318974
0.312211
0.305934
0.300201
0.295104
0.290775
0.287401
0.285239
0.28464
0.286068
0.290126
0.297573
0.309327
0.326459
0.350157
0.381676
0.422262
0.47306
0.535015
0.608776
0.694627
0.792439
0.901677
1.0214
1.15048
1.28725
1.42988
1.57649
1.72521
1.87429
2.02214
2.16737
2.30879
2.44546
2.57661
2.70168
2.82031
2.93225
3.0374
3.13577
3.22746
3.31264
3.39154
3.46442
3.53159
3.59336
3.65006
3.70204
3.74961
3.79312
3.83286
3.86915
3.90227
3.9325
3.96008
3.98524
4.00822
4.02921
4.04839
4.06593
4.08199
4.0967
4.1102
4.12259
4.13398
4.14446
4.15412
4.16303
4.17127
4.17888
4.18593
4.19246
4.19852
4.20416
4.20939
4.21427
4.21881
4.22304
4.22699
4.23067
4.23411
4.23733
4.24034
4.24315
4.24579
4.24825
4.25055
4.25271
4.25473
4.25661
4.25838
4.26003
4.26157
4.26285
0.861399
0.814317
0.771804
0.733245
0.698133
0.666039
0.636602
0.609515
0.584516