/*--------------------------------*- C++ -*----------------------------------*\
  =========                 |
  \\      /  F ield         | OpenFOAM: The Open Source CFD Toolbox
   \\    /   O peration     | Website:  https://openfoam.org
    \\  /    A nd           | Version:  8
     \\/     M anipulation  |
\*---------------------------------------------------------------------------*/
FoamFile
{
    version     2.0;
    format      ascii;
    class       volScalarField;
    location    "300";
    object      nut;
}
// * * * * * * * * * * * * * * * * * * * * * * * * * * * * * * * * * * * * * //

dimensions      [0 2 -1 0 0 0 0];

internalField   nonuniform List<scalar> 
7320
(
0.000286298
0.000273845
0.000266047
0.000260781
0.00025694
0.000253973
0.000251581
0.00024962
0.000248103
0.000247188
0.000246914
0.000246961
0.000246909
0.000246617
0.000246167
0.000245677
0.00024522
0.000244827
0.000244504
0.000244252
0.000244063
0.000243931
0.000243846
0.000243806
0.000243803
0.000243834
0.000243893
0.000243981
0.000244093
0.000244226
0.000244378
0.000244549
0.000244736
0.000244939
0.000245154
0.000245384
0.000245627
0.000245881
0.000246145
0.00024642
0.000246704
0.000246997
0.000247296
0.000247603
0.000247916
0.000248235
0.000248556
0.00024888
0.000249206
0.000249532
0.000249854
0.000250175
0.000250491
0.0002508
0.000251101
0.000251393
0.000251675
0.000251946
0.000252203
0.00025245
0.000252683
0.000252903
0.000253109
0.000253302
0.000253483
0.000253652
0.000253807
0.000253952
0.000254087
0.000254212
0.000254325
0.000254432
0.000254529
0.00025462
0.000254701
0.000254778
0.000254848
0.000254913
0.000254972
0.000255027
0.000255078
0.000255125
0.000255166
0.000255206
0.000255243
0.000255277
0.000255308
0.000255337
0.000255364
0.000255389
0.00025541
0.000255431
0.000255451
0.000255469
0.000255485
0.000255501
0.000255515
0.000255529
0.00025554
0.000255551
0.000255562
0.000255571
0.00025558
0.000255588
0.000255595
0.000255602
0.000255608
0.000255613
0.000255619
0.000255624
0.000255627
0.000255631
0.000255635
0.000255638
0.000255641
0.000255643
0.000255645
0.000255647
0.000255649
0.00025565
0.000255651
0.000255654
0.000562809
0.000740635
0.000767566
0.000767648
0.000763095
0.000757973
0.000753086
0.000748498
0.000744491
0.000742467
0.000744221
0.000749793
0.000757273
0.000764605
0.000770627
0.000775099
0.000778221
0.000780311
0.00078164
0.000782452
0.000782897
0.000783093
0.000783123
0.000783066
0.000782963
0.000782859
0.000782787
0.000782768
0.000782817
0.000782945
0.000783156
0.000783454
0.000783842
0.000784321
0.000784894
0.000785563
0.000786329
0.000787189
0.000788141
0.000789182
0.000790311
0.000791523
0.000792819
0.000794199
0.000795661
0.000797197
0.000798798
0.000800456
0.000802164
0.000803909
0.000805683
0.000807481
0.000809291
0.000811097
0.000812884
0.000814639
0.000816352
0.00081801
0.000819607
0.000821145
0.000822618
0.000824018
0.000825339
0.00082658
0.000827742
0.000828823
0.00082983
0.000830771
0.000831651
0.000832466
0.000833217
0.000833909
0.000834545
0.000835127
0.000835663
0.000836164
0.000836633
0.000837065
0.000837461
0.000837824
0.000838156
0.000838458
0.000838736
0.000838998
0.000839245
0.000839474
0.000839684
0.000839877
0.000840053
0.000840212
0.000840358
0.000840498
0.000840631
0.000840755
0.000840867
0.000840969
0.000841062
0.000841145
0.000841221
0.000841294
0.000841364
0.000841427
0.000841484
0.000841535
0.000841579
0.000841618
0.000841652
0.000841685
0.000841715
0.000841742
0.000841765
0.000841784
0.0008418
0.000841813
0.000841822
0.000841827
0.000841832
0.000841834
0.000841836
0.000841833
0.000841839
0.000841821
0.000761074
0.00115457
0.00127125
0.00130574
0.00131553
0.00131688
0.00131477
0.00131048
0.00130546
0.00130554
0.00131963
0.00135092
0.00139285
0.00143515
0.001471
0.00149854
0.00151862
0.00153284
0.00154264
0.00154923
0.00155345
0.00155595
0.0015572
0.00155762
0.00155748
0.001557
0.00155637
0.00155574
0.0015552
0.00155481
0.00155462
0.00155468
0.001555
0.00155561
0.00155651
0.00155775
0.00155933
0.00156124
0.00156348
0.00156605
0.00156894
0.00157213
0.00157563
0.00157946
0.00158361
0.00158804
0.00159271
0.00159762
0.00160273
0.00160799
0.00161337
0.00161888
0.00162447
0.00163007
0.00163563
0.00164112
0.0016465
0.00165171
0.00165673
0.0016616
0.00166627
0.00167073
0.00167493
0.00167889
0.0016826
0.00168606
0.00168926
0.00169228
0.00169511
0.00169774
0.00170015
0.00170238
0.00170443
0.00170631
0.00170802
0.00170964
0.00171117
0.00171258
0.00171386
0.00171504
0.00171612
0.00171709
0.00171798
0.00171883
0.00171964
0.00172039
0.00172107
0.0017217
0.00172227
0.00172278
0.00172324
0.0017237
0.00172413
0.00172454
0.0017249
0.00172523
0.00172553
0.0017258
0.00172603
0.00172626
0.00172649
0.0017267
0.00172688
0.00172704
0.00172718
0.0017273
0.00172739
0.00172749
0.00172759
0.00172767
0.00172773
0.00172779
0.00172783
0.00172786
0.00172788
0.00172788
0.00172789
0.00172788
0.00172787
0.00172785
0.00172786
0.00172776
0.000942185
0.00154867
0.00180332
0.00190638
0.00195123
0.00197185
0.00198068
0.00198179
0.00197962
0.00198915
0.00203323
0.00212144
0.00223747
0.00235389
0.00245241
0.00252833
0.00258416
0.00262426
0.00265249
0.00267203
0.00268512
0.00269348
0.00269835
0.00270079
0.00270152
0.00270118
0.00270016
0.00269894
0.00269774
0.00269676
0.0026961
0.00269591
0.00269626
0.0026972
0.00269875
0.00270105
0.00270411
0.00270792
0.00271243
0.00271769
0.00272367
0.00273035
0.00273769
0.0027458
0.00275461
0.00276407
0.00277406
0.00278459
0.00279557
0.00280688
0.00281844
0.0028303
0.00284235
0.00285444
0.00286642
0.00287827
0.00288987
0.00290112
0.00291193
0.00292242
0.00293253
0.00294216
0.00295122
0.00295978
0.0029678
0.00297527
0.00298218
0.00298871
0.00299484
0.00300055
0.00300576
0.00301059
0.00301503
0.0030191
0.0030228
0.00302631
0.00302963
0.0030327
0.00303547
0.00303803
0.00304037
0.00304249
0.00304439
0.00304624
0.003048
0.00304964
0.0030511
0.00305247
0.00305371
0.00305483
0.00305581
0.00305679
0.00305774
0.00305863
0.0030594
0.00306013
0.00306078
0.00306135
0.00306184
0.00306235
0.00306284
0.0030633
0.00306367
0.00306402
0.00306432
0.00306458
0.00306477
0.00306498
0.00306518
0.00306536
0.0030655
0.00306561
0.0030657
0.00306576
0.00306578
0.00306579
0.00306579
0.00306577
0.00306575
0.00306569
0.00306569
0.00306548
0.00110977
0.00189234
0.00232609
0.00253684
0.00264444
0.00270308
0.00273565
0.00275098
0.00275924
0.00279031
0.00288888
0.00307424
0.00331381
0.00355234
0.00375367
0.00390914
0.00402427
0.00410792
0.00416782
0.00421026
0.00423969
0.00425951
0.00427215
0.00427969
0.00428358
0.00428503
0.00428485
0.00428395
0.00428283
0.00428185
0.00428125
0.00428135
0.00428229
0.00428418
0.00428706
0.00429123
0.0042967
0.00430346
0.00431143
0.00432072
0.00433127
0.00434303
0.00435593
0.00437017
0.00438565
0.00440226
0.00441978
0.00443823
0.00445745
0.00447725
0.00449746
0.00451817
0.00453921
0.00456033
0.00458124
0.0046019
0.00462214
0.00464176
0.00466061
0.0046789
0.00469652
0.00471332
0.00472913
0.00474407
0.00475807
0.00477111
0.00478317
0.00479456
0.00480527
0.00481523
0.00482433
0.00483277
0.00484055
0.00484766
0.00485412
0.00486025
0.00486604
0.00487141
0.00487625
0.00488073
0.00488483
0.00488854
0.00489186
0.00489508
0.00489816
0.00490103
0.00490359
0.00490598
0.00490815
0.00491011
0.00491181
0.00491353
0.00491519
0.00491674
0.00491809
0.00491935
0.0049205
0.00492151
0.00492235
0.00492324
0.0049241
0.00492489
0.00492555
0.00492616
0.00492669
0.00492714
0.00492749
0.00492785
0.0049282
0.00492852
0.00492875
0.00492895
0.0049291
0.00492921
0.00492926
0.00492927
0.00492927
0.00492923
0.0049292
0.00492909
0.00492909
0.00492872
0.00129926
0.00216766
0.00280722
0.00316592
0.00336964
0.00349108
0.00356543
0.00360838
0.00363896
0.0037079
0.0038896
0.00421632
0.0046327
0.00504523
0.00539371
0.00566428
0.00586649
0.00601526
0.00612363
0.00620211
0.00625822
0.00629764
0.0063245
0.00634227
0.0063534
0.0063599
0.00636319
0.00636478
0.00636553
0.00636611
0.00636691
0.00636853
0.00637121
0.00637515
0.00638045
0.00638759
0.00639663
0.00640756
0.00642026
0.00643492
0.00645146
0.00646981
0.00648984
0.00651186
0.00653576
0.00656134
0.00658828
0.0066166
0.00664607
0.00667642
0.00670734
0.00673902
0.00677118
0.00680346
0.00683541
0.00686701
0.00689795
0.00692797
0.00695681
0.00698479
0.00701175
0.00703747
0.00706169
0.00708458
0.00710605
0.00712607
0.00714457
0.00716204
0.00717846
0.00719375
0.00720774
0.0072207
0.00723265
0.00724359
0.00725352
0.00726294
0.00727182
0.00728006
0.0072875
0.00729439
0.0073007
0.00730642
0.00731153
0.00731647
0.00732119
0.00732559
0.00732952
0.00733319
0.00733654
0.00733956
0.00734219
0.00734482
0.00734737
0.00734975
0.00735182
0.00735377
0.00735554
0.00735711
0.00735842
0.00735978
0.00736111
0.00736233
0.00736335
0.00736429
0.00736512
0.00736583
0.00736638
0.00736695
0.00736749
0.00736799
0.00736836
0.00736867
0.00736892
0.00736911
0.0073692
0.00736923
0.00736924
0.00736919
0.00736916
0.00736901
0.00736901
0.00736847
0.00158936
0.00236979
0.00321603
0.00375934
0.00409624
0.004311
0.00445093
0.00454022
0.00460975
0.00473626
0.00503068
0.00554178
0.00618685
0.00682583
0.00736867
0.0077942
0.00811612
0.00835643
0.0085346
0.00866638
0.0087632
0.00883368
0.00888417
0.00891992
0.00894468
0.00896156
0.00897276
0.00898058
0.00898637
0.00899122
0.00899579
0.009001
0.00900728
0.00901498
0.00902427
0.00903586
0.00904987
0.00906634
0.00908513
0.00910652
0.00913042
0.00915674
0.0091853
0.00921655
0.00925031
0.00928636
0.00932425
0.00936404
0.00940538
0.00944794
0.00949127
0.00953563
0.00958065
0.00962586
0.00967064
0.00971495
0.00975837
0.00980054
0.0098411
0.00988043
0.00991834
0.00995456
0.00998869
0.010021
0.0100513
0.0100796
0.0101057
0.0101304
0.0101536
0.0101752
0.010195
0.0102133
0.0102303
0.0102458
0.0102598
0.0102732
0.0102857
0.0102974
0.0103079
0.0103177
0.0103266
0.0103347
0.010342
0.010349
0.0103556
0.0103619
0.0103674
0.0103726
0.0103774
0.0103817
0.0103854
0.0103892
0.0103928
0.0103961
0.0103991
0.0104019
0.0104044
0.0104066
0.0104085
0.0104105
0.0104123
0.0104141
0.0104155
0.0104169
0.0104181
0.0104192
0.01042
0.0104208
0.0104216
0.0104223
0.0104229
0.0104233
0.0104237
0.010424
0.0104242
0.0104243
0.0104243
0.0104243
0.0104242
0.0104241
0.0104241
0.0104234
0.00212971
0.00251874
0.00352592
0.00427908
0.00478654
0.00512967
0.0053647
0.00552485
0.00565491
0.0058611
0.0062958
0.00702869
0.00794919
0.00886561
0.00965247
0.0102777
0.010758
0.0111223
0.0113974
0.0116051
0.0117614
0.0118787
0.011966
0.0120309
0.0120786
0.0121138
0.0121397
0.0121594
0.0121752
0.0121885
0.0122006
0.0122126
0.0122253
0.0122392
0.0122547
0.0122728
0.0122936
0.0123173
0.0123437
0.0123733
0.012406
0.0124417
0.0124801
0.0125219
0.0125668
0.0126146
0.0126647
0.0127173
0.0127719
0.0128281
0.0128852
0.0129437
0.0130031
0.0130628
0.0131219
0.0131805
0.013238
0.013294
0.0133478
0.0134001
0.0134505
0.0134986
0.0135441
0.0135872
0.0136276
0.0136654
0.0137004
0.0137334
0.0137644
0.0137933
0.0138198
0.0138444
0.0138671
0.0138879
0.0139068
0.0139246
0.0139414
0.013957
0.0139711
0.0139842
0.0139962
0.0140072
0.0140169
0.0140263
0.0140352
0.0140435
0.014051
0.014058
0.0140644
0.0140702
0.0140753
0.0140803
0.0140851
0.0140896
0.0140936
0.0140974
0.0141008
0.0141038
0.0141064
0.014109
0.0141116
0.0141139
0.0141159
0.0141178
0.0141195
0.0141209
0.0141221
0.0141232
0.0141243
0.0141253
0.0141261
0.0141268
0.0141274
0.0141278
0.0141281
0.0141282
0.0141283
0.0141284
0.0141284
0.0141282
0.0141282
0.0141274
0.00315396
0.00268385
0.00372404
0.00468603
0.00539568
0.00590398
0.00626841
0.00652963
0.00674676
0.00705631
0.00765472
0.00863827
0.00987326
0.0111153
0.012198
0.0130733
0.0137573
0.0142856
0.0146917
0.0150044
0.0152451
0.0154303
0.0155724
0.0156817
0.0157657
0.0158304
0.0158806
0.0159207
0.0159536
0.0159817
0.0160066
0.0160301
0.0160533
0.0160772
0.0161021
0.0161294
0.0161595
0.0161927
0.0162288
0.0162685
0.0163116
0.0163582
0.016408
0.0164616
0.016519
0.0165799
0.0166435
0.0167102
0.0167793
0.0168503
0.0169227
0.0169967
0.0170718
0.0171474
0.0172224
0.0172968
0.0173699
0.0174412
0.0175099
0.0175766
0.0176409
0.0177025
0.0177608
0.017816
0.0178679
0.0179166
0.0179616
0.018004
0.0180438
0.018081
0.0181151
0.0181468
0.0181761
0.018203
0.0182274
0.0182504
0.0182719
0.018292
0.0183102
0.0183271
0.0183426
0.0183568
0.0183695
0.0183816
0.018393
0.0184037
0.0184134
0.0184224
0.0184307
0.0184383
0.0184449
0.0184514
0.0184576
0.0184634
0.0184686
0.0184735
0.018478
0.018482
0.0184854
0.0184888
0.0184921
0.0184952
0.0184979
0.0185003
0.0185025
0.0185045
0.018506
0.0185076
0.0185091
0.0185104
0.0185115
0.0185125
0.0185133
0.0185139
0.0185143
0.0185147
0.0185149
0.018515
0.018515
0.0185149
0.018515
0.018514
0.00493156
0.00302611
0.00383381
0.00494857
0.00587439
0.00658103
0.00711137
0.00750845
0.00784361
0.00828131
0.00906177
0.0103148
0.011894
0.0135058
0.0149378
0.0161185
0.0170594
0.0177994
0.0183792
0.0188339
0.0191909
0.0194717
0.0196926
0.0198671
0.0200052
0.0201151
0.0202031
0.0202752
0.0203355
0.0203872
0.0204327
0.0204745
0.0205142
0.0205531
0.020592
0.0206327
0.0206756
0.0207214
0.0207701
0.0208224
0.0208782
0.0209378
0.0210008
0.0210681
0.0211396
0.021215
0.0212937
0.0213758
0.0214608
0.0215482
0.0216371
0.0217281
0.0218203
0.0219133
0.0220057
0.0220975
0.0221878
0.022276
0.0223612
0.0224439
0.0225238
0.0226003
0.0226728
0.0227416
0.0228064
0.0228671
0.0229234
0.0229764
0.0230262
0.0230726
0.0231153
0.023155
0.0231917
0.0232254
0.0232561
0.0232849
0.0233118
0.0233369
0.0233597
0.023381
0.0234004
0.0234183
0.0234343
0.0234494
0.0234637
0.0234771
0.0234893
0.0235007
0.0235111
0.0235207
0.0235291
0.0235372
0.023545
0.0235523
0.0235589
0.0235651
0.0235707
0.0235759
0.0235803
0.0235846
0.0235888
0.0235927
0.0235961
0.0235993
0.0236022
0.0236047
0.0236068
0.0236088
0.0236107
0.0236125
0.023614
0.0236153
0.0236164
0.0236173
0.023618
0.0236185
0.0236188
0.023619
0.0236192
0.0236192
0.0236193
0.0236183
0.00765407
0.00384116
0.00395997
0.00506395
0.00617791
0.00710139
0.00783082
0.0084003
0.00888754
0.00947889
0.0104547
0.0119855
0.0139284
0.0159484
0.0177829
0.0193293
0.0205871
0.0215957
0.0224005
0.0230431
0.0235571
0.0239691
0.0243
0.024567
0.0247832
0.0249591
0.0251033
0.0252236
0.0253253
0.025413
0.02549
0.0255598
0.0256244
0.025686
0.0257455
0.0258053
0.0258663
0.0259293
0.0259946
0.0260631
0.026135
0.0262105
0.0262894
0.0263728
0.0264605
0.0265525
0.0266481
0.0267475
0.0268502
0.0269557
0.027063
0.0271726
0.0272837
0.0273957
0.0275072
0.0276181
0.0277274
0.0278343
0.0279377
0.0280381
0.028135
0.0282281
0.0283164
0.0284003
0.0284794
0.0285536
0.0286225
0.0286873
0.028748
0.0288047
0.028857
0.0289056
0.0289506
0.0289919
0.0290296
0.0290649
0.0290978
0.0291284
0.0291564
0.0291824
0.0292063
0.0292283
0.029248
0.0292666
0.0292841
0.0293005
0.0293155
0.0293294
0.0293423
0.0293541
0.0293646
0.0293746
0.0293842
0.0293932
0.0294013
0.029409
0.029416
0.0294224
0.029428
0.0294334
0.0294386
0.0294434
0.0294477
0.0294517
0.0294554
0.0294586
0.0294613
0.0294639
0.0294664
0.0294686
0.0294705
0.0294723
0.0294738
0.029475
0.029476
0.0294767
0.0294773
0.0294777
0.0294781
0.0294781
0.0294784
0.0294773
0.0113261
0.0055177
0.00435843
0.005106
0.00628897
0.00740975
0.00835655
0.00913047
0.00980364
0.0105738
0.0117535
0.0135604
0.0158746
0.0183332
0.0206216
0.0225965
0.024238
0.0255804
0.0266714
0.0275577
0.0282788
0.0288669
0.0293476
0.0297424
0.030068
0.0303378
0.0305627
0.0307527
0.0309151
0.0310559
0.0311796
0.0312906
0.0313921
0.0314868
0.0315765
0.0316638
0.0317502
0.0318371
0.031925
0.032015
0.0321078
0.0322036
0.0323024
0.0324053
0.0325126
0.0326242
0.0327395
0.0328589
0.0329817
0.0331076
0.0332356
0.0333659
0.033498
0.0336311
0.0337639
0.0338959
0.0340261
0.0341536
0.0342772
0.0343972
0.0345131
0.0346244
0.0347301
0.0348306
0.0349255
0.0350146
0.0350974
0.0351752
0.0352481
0.0353161
0.035379
0.0354374
0.0354914
0.0355412
0.0355867
0.035629
0.0356685
0.0357052
0.0357389
0.0357702
0.035799
0.0358255
0.0358494
0.0358718
0.0358928
0.0359125
0.0359305
0.0359474
0.035963
0.0359774
0.0359901
0.0360023
0.0360138
0.0360247
0.0360345
0.0360438
0.0360524
0.0360603
0.0360672
0.0360738
0.0360801
0.0360861
0.0360913
0.0360963
0.0361008
0.0361049
0.0361084
0.0361117
0.0361147
0.0361176
0.03612
0.0361222
0.0361242
0.0361259
0.0361272
0.0361283
0.0361291
0.0361298
0.0361304
0.0361306
0.036131
0.0361299
0.0157242
0.00834315
0.00547881
0.00531281
0.00627206
0.00748286
0.00862509
0.00961753
0.010503
0.0114733
0.0128606
0.0149314
0.0176108
0.0205273
0.0233156
0.0257826
0.0278795
0.0296288
0.0310765
0.0322728
0.0332618
0.0340812
0.0347617
0.0353292
0.0358043
0.036204
0.0365418
0.0368304
0.0370791
0.037296
0.0374869
0.0376576
0.0378125
0.0379552
0.0380881
0.0382149
0.0383375
0.0384579
0.0385769
0.0386964
0.0388169
0.0389395
0.0390639
0.0391918
0.0393234
0.0394591
0.0395982
0.0397412
0.0398878
0.0400375
0.0401892
0.0403434
0.0404993
0.0406563
0.0408128
0.0409684
0.041122
0.0412726
0.0414186
0.0415603
0.0416972
0.0418286
0.0419536
0.0420724
0.0421846
0.0422901
0.0423883
0.0424803
0.0425664
0.0426468
0.0427211
0.0427902
0.0428541
0.0429131
0.042967
0.043017
0.0430636
0.043107
0.0431468
0.0431838
0.0432179
0.0432494
0.0432778
0.0433044
0.0433292
0.0433525
0.0433739
0.0433939
0.0434125
0.0434296
0.0434449
0.0434594
0.0434731
0.0434861
0.0434978
0.043509
0.0435193
0.0435288
0.0435372
0.0435452
0.0435527
0.0435599
0.0435663
0.0435724
0.0435779
0.043583
0.0435873
0.0435913
0.0435951
0.0435986
0.0436017
0.0436045
0.043607
0.0436092
0.043611
0.0436125
0.0436137
0.0436147
0.0436155
0.043616
0.0436166
0.0436155
0.020436
0.012298
0.00781802
0.006176
0.00638151
0.00739753
0.00861762
0.0097944
0.0108941
0.0120736
0.0136627
0.0159728
0.0189943
0.022372
0.0256961
0.0287159
0.0313422
0.033578
0.0354622
0.0370451
0.0383741
0.0394916
0.0404331
0.0412291
0.0419045
0.0424801
0.0429725
0.0433972
0.0437662
0.0440897
0.0443754
0.0446309
0.0448616
0.0450726
0.0452673
0.0454501
0.045624
0.0457914
0.045954
0.046114
0.0462727
0.0464312
0.0465899
0.0467505
0.0469136
0.0470797
0.0472486
0.047421
0.0475964
0.0477747
0.0479548
0.048137
0.0483208
0.0485053
0.0486891
0.0488718
0.0490519
0.0492284
0.0493997
0.0495658
0.049726
0.0498798
0.050026
0.050165
0.0502963
0.0504197
0.0505345
0.0506421
0.0507425
0.0508362
0.0509228
0.0510034
0.0510779
0.0511467
0.0512095
0.0512679
0.051322
0.0513724
0.0514187
0.0514618
0.0515016
0.0515383
0.0515716
0.0516026
0.0516316
0.0516587
0.0516837
0.0517071
0.0517288
0.051749
0.0517671
0.0517841
0.0518002
0.0518153
0.0518292
0.0518423
0.0518545
0.0518659
0.0518759
0.0518854
0.0518944
0.0519029
0.0519106
0.0519178
0.0519245
0.0519307
0.051936
0.0519409
0.0519455
0.0519498
0.0519536
0.0519571
0.0519602
0.051963
0.0519653
0.0519673
0.051969
0.0519704
0.0519715
0.0519723
0.0519732
0.0519722
0.0249655
0.0170282
0.0115579
0.00833357
0.00718489
0.00746843
0.00845244
0.009664
0.0109164
0.0122785
0.0140421
0.0165467
0.0198626
0.0236807
0.0275598
0.0311845
0.0344135
0.0372192
0.0396272
0.0416833
0.0434359
0.0449304
0.0462066
0.0472994
0.0482381
0.0490472
0.0497472
0.0503561
0.0508894
0.0513596
0.0517766
0.05215
0.0524869
0.0527938
0.0530754
0.0533373
0.0535832
0.0538169
0.0540404
0.054257
0.0544683
0.0546761
0.0548813
0.0550859
0.0552908
0.055497
0.0557046
0.0559143
0.0561262
0.0563401
0.0565551
0.0567715
0.0569887
0.0572061
0.0574221
0.0576363
0.0578472
0.0580536
0.0582538
0.0584476
0.0586341
0.0588129
0.0589829
0.0591442
0.0592964
0.0594393
0.0595724
0.0596967
0.0598125
0.0599204
0.0600202
0.0601128
0.0601985
0.0602776
0.0603499
0.0604169
0.0604789
0.0605365
0.0605896
0.060639
0.0606846
0.0607268
0.0607652
0.0608009
0.0608341
0.0608653
0.060894
0.0609209
0.060946
0.0609693
0.0609904
0.0610102
0.0610287
0.0610463
0.0610624
0.0610777
0.0610919
0.0611052
0.061117
0.0611282
0.0611387
0.0611487
0.0611577
0.0611663
0.0611742
0.0611816
0.061188
0.061194
0.0611995
0.0612047
0.0612093
0.0612136
0.0612174
0.0612209
0.0612239
0.0612265
0.0612287
0.0612305
0.0612321
0.0612332
0.0612345
0.0612336
0.0288717
0.021972
0.016356
0.0121013
0.00944116
0.00839311
0.00856532
0.0094328
0.0106263
0.0120545
0.0139099
0.0165229
0.0200449
0.0242433
0.0286665
0.032931
0.0368285
0.0402879
0.0433121
0.0459366
0.048207
0.0501698
0.0518675
0.0533389
0.0546172
0.055731
0.0567044
0.0575589
0.0583123
0.0589808
0.0595767
0.0601116
0.0605948
0.0610345
0.0614369
0.061809
0.0621557
0.0624818
0.0627905
0.0630858
0.0633702
0.0636463
0.0639153
0.06418
0.0644416
0.0647017
0.0649606
0.0652195
0.0654788
0.0657385
0.0659978
0.0662572
0.066516
0.0667738
0.0670291
0.0672812
0.0675287
0.0677705
0.0680045
0.0682305
0.0684474
0.0686548
0.0688516
0.0690379
0.0692132
0.0693777
0.0695306
0.069673
0.0698053
0.0699283
0.0700418
0.0701471
0.0702442
0.070334
0.070416
0.0704918
0.0705618
0.0706267
0.0706865
0.0707422
0.0707937
0.0708414
0.0708849
0.0709254
0.0709629
0.0709981
0.0710306
0.0710611
0.0710896
0.0711162
0.0711403
0.071163
0.0711842
0.0712042
0.0712227
0.0712402
0.0712565
0.0712719
0.0712857
0.0712987
0.0713109
0.0713224
0.071333
0.071343
0.0713522
0.0713609
0.0713686
0.0713757
0.0713823
0.0713884
0.071394
0.0713991
0.0714038
0.071408
0.0714117
0.071415
0.0714178
0.0714202
0.0714223
0.0714238
0.0714255
0.0714248
0.0318857
0.0265348
0.0215151
0.0170856
0.0134878
0.0110287
0.00983963
0.00974046
0.0103949
0.0115701
0.0132983
0.0158384
0.0193992
0.0238471
0.0287481
0.0336515
0.0382646
0.0424544
0.0461877
0.0494813
0.0523729
0.0549065
0.0571257
0.0590714
0.0607803
0.0622847
0.063612
0.0647874
0.065832
0.0667639
0.0675993
0.0683522
0.069034
0.0696549
0.070223
0.0707468
0.0712328
0.071687
0.072114
0.0725186
0.0729045
0.073275
0.0736323
0.0739797
0.074319
0.0746524
0.0749808
0.0753059
0.0756282
0.0759483
0.0762655
0.0765805
0.0768928
0.0772019
0.0775064
0.0778058
0.0780985
0.0783833
0.0786581
0.0789226
0.0791755
0.0794164
0.0796441
0.0798591
0.0800607
0.0802492
0.0804239
0.0805861
0.0807362
0.0808752
0.0810031
0.0811214
0.0812303
0.0813307
0.0814223
0.0815069
0.0815847
0.0816568
0.0817232
0.0817848
0.0818419
0.081895
0.0819434
0.0819884
0.0820302
0.0820694
0.0821055
0.0821396
0.0821714
0.0822012
0.0822284
0.0822539
0.0822778
0.0823003
0.0823212
0.082341
0.0823596
0.0823771
0.0823929
0.0824078
0.0824218
0.082435
0.0824471
0.0824587
0.0824694
0.0824795
0.0824885
0.0824969
0.0825046
0.0825119
0.0825184
0.0825245
0.0825301
0.0825352
0.0825397
0.0825438
0.0825473
0.0825504
0.0825531
0.0825552
0.0825573
0.0825568
0.0339566
0.030257
0.0262955
0.0224004
0.0187478
0.0155653
0.0131385
0.0116694
0.011156
0.0114739
0.0125845
0.0146553
0.0179169
0.0223429
0.0275458
0.0330124
0.038344
0.0433183
0.0478446
0.0519078
0.0555292
0.0587453
0.0615974
0.0641268
0.066372
0.0683681
0.070146
0.0717337
0.0731556
0.074433
0.0755841
0.0766262
0.0775734
0.0784381
0.0792304
0.0799606
0.0806369
0.0812667
0.0818562
0.0824115
0.0829375
0.0834384
0.0839176
0.0843789
0.0848253
0.0852594
0.0856828
0.0860977
0.0865053
0.0869066
0.0873012
0.0876899
0.0880725
0.0884486
0.088817
0.0891769
0.0895271
0.0898662
0.090192
0.090504
0.0908011
0.0910826
0.0913476
0.0915963
0.0918286
0.0920447
0.0922442
0.0924285
0.0925981
0.0927543
0.0928975
0.0930292
0.09315
0.093261
0.0933622
0.0934551
0.0935405
0.0936193
0.0936916
0.0937588
0.0938211
0.0938788
0.0939318
0.0939811
0.0940267
0.0940695
0.0941091
0.0941464
0.0941813
0.0942141
0.0942443
0.0942727
0.0942992
0.0943242
0.0943475
0.0943696
0.0943903
0.09441
0.094428
0.0944449
0.0944607
0.0944757
0.0944895
0.0945027
0.094515
0.0945265
0.094537
0.0945468
0.0945558
0.0945643
0.0945719
0.0945791
0.0945857
0.0945918
0.0945972
0.0946021
0.0946065
0.0946103
0.0946137
0.0946165
0.0946192
0.0946189
0.0352155
0.0329261
0.0301541
0.0271681
0.0241065
0.0210823
0.0182577
0.0158527
0.01407
0.0130301
0.0128341
0.0137102
0.0159956
0.0198322
0.0249281
0.030718
0.0366672
0.0424202
0.0477923
0.0527116
0.057168
0.0611818
0.0647863
0.0680197
0.0709203
0.0735245
0.0758653
0.0779736
0.0798763
0.0815978
0.0831591
0.0845791
0.0858754
0.0870629
0.0881541
0.0891609
0.0900936
0.0909613
0.0917719
0.0925329
0.0932504
0.0939302
0.0945767
0.0951948
0.0957882
0.0963606
0.0969144
0.0974524
0.0979764
0.098488
0.0989873
0.0994756
0.0999525
0.100418
0.100871
0.101311
0.101737
0.102146
0.102538
0.102911
0.103264
0.103597
0.103909
0.104199
0.104469
0.104718
0.104947
0.105157
0.105349
0.105525
0.105684
0.10583
0.105964
0.106085
0.106196
0.106297
0.106389
0.106474
0.106552
0.106624
0.106691
0.106753
0.106809
0.106862
0.106911
0.106957
0.107
0.10704
0.107078
0.107113
0.107146
0.107177
0.107206
0.107234
0.107259
0.107284
0.107307
0.107328
0.107348
0.107367
0.107385
0.107402
0.107418
0.107433
0.107447
0.10746
0.107472
0.107483
0.107493
0.107503
0.107512
0.107521
0.107528
0.107535
0.107542
0.107548
0.107553
0.107558
0.107562
0.107566
0.107569
0.107569
0.0358864
0.0345929
0.0328629
0.0308394
0.0286204
0.0262669
0.0238385
0.0214248
0.0191455
0.0171258
0.0155127
0.0146016
0.0149477
0.0171284
0.0212209
0.0267209
0.0329368
0.0393091
0.0454905
0.0513033
0.0566751
0.0615913
0.0660667
0.0701296
0.073814
0.0771549
0.0801857
0.0829385
0.0854426
0.0877246
0.089808
0.0917143
0.0934626
0.0950705
0.0965535
0.0979255
0.0991986
0.100384
0.101491
0.102529
0.103506
0.104429
0.105303
0.106135
0.106929
0.107691
0.108423
0.10913
0.109813
0.110476
0.111118
0.111741
0.112346
0.112933
0.113501
0.114048
0.114575
0.115079
0.115558
0.116012
0.11644
0.11684
0.117212
0.117557
0.117874
0.118166
0.118432
0.118674
0.118893
0.119092
0.119272
0.119434
0.119582
0.119715
0.119835
0.119945
0.120044
0.120135
0.120218
0.120294
0.120364
0.120429
0.12049
0.120545
0.120597
0.120646
0.120691
0.120734
0.120774
0.120812
0.120847
0.120881
0.120912
0.120942
0.12097
0.120996
0.121022
0.121046
0.121068
0.121089
0.121109
0.121128
0.121145
0.121162
0.121178
0.121193
0.121207
0.12122
0.121232
0.121243
0.121253
0.121263
0.121272
0.121281
0.121288
0.121295
0.121302
0.121308
0.121313
0.121317
0.121322
0.121322
0.0361962
0.0354883
0.0345009
0.0332714
0.0318463
0.0302601
0.0285365
0.0266978
0.0247677
0.0227597
0.0206771
0.0185955
0.0168852
0.0163846
0.0179694
0.021813
0.0273464
0.0337795
0.0404876
0.047085
0.0533677
0.0592436
0.0646833
0.0696904
0.0742854
0.0784961
0.0823529
0.0858867
0.0891273
0.0921025
0.0948375
0.0973559
0.0996789
0.101826
0.103814
0.105659
0.107376
0.108979
0.110478
0.111884
0.113207
0.114455
0.115636
0.116756
0.117823
0.118842
0.119817
0.120753
0.121653
0.122521
0.123358
0.124167
0.124947
0.125699
0.126422
0.127117
0.127781
0.128413
0.129012
0.129576
0.130104
0.130595
0.13105
0.131468
0.131851
0.132199
0.132515
0.1328
0.133056
0.133286
0.133491
0.133676
0.133841
0.133989
0.134122
0.134241
0.134349
0.134447
0.134535
0.134616
0.13469
0.134759
0.134822
0.134881
0.134936
0.134987
0.135035
0.13508
0.135122
0.135163
0.135201
0.135237
0.135271
0.135303
0.135334
0.135363
0.13539
0.135417
0.135442
0.135465
0.135487
0.135509
0.135529
0.135547
0.135565
0.135582
0.135598
0.135613
0.135627
0.13564
0.135652
0.135664
0.135675
0.135685
0.135694
0.135702
0.13571
0.135717
0.135724
0.135729
0.135735
0.135736
0.0363185
0.0358963
0.0353419
0.0346441
0.0338095
0.0328499
0.031775
0.030591
0.0292959
0.0278682
0.0262507
0.0243522
0.0221235
0.0198221
0.018319
0.0187526
0.0216383
0.026617
0.0328978
0.039745
0.0466726
0.0534072
0.0598092
0.0658186
0.0714189
0.0766164
0.0814294
0.0858821
0.090001
0.0938126
0.097342
0.100614
0.10365
0.106473
0.109099
0.111548
0.113834
0.115974
0.117982
0.119868
0.121645
0.123322
0.124908
0.126413
0.127843
0.129206
0.130508
0.131754
0.132948
0.134095
0.135196
0.136256
0.137274
0.138251
0.139188
0.140083
0.140936
0.141745
0.142507
0.143223
0.14389
0.144508
0.145078
0.145599
0.146073
0.146503
0.146889
0.147236
0.147545
0.147821
0.148065
0.148282
0.148475
0.148646
0.148797
0.148933
0.149054
0.149162
0.14926
0.149349
0.14943
0.149504
0.149572
0.149636
0.149695
0.14975
0.149802
0.14985
0.149896
0.14994
0.149982
0.150021
0.150059
0.150095
0.150128
0.150161
0.150192
0.150222
0.15025
0.150277
0.150302
0.150326
0.150349
0.150371
0.150392
0.150412
0.15043
0.150448
0.150464
0.15048
0.150494
0.150508
0.150521
0.150533
0.150544
0.150554
0.150564
0.150573
0.150581
0.150588
0.150595
0.150597
0.0363591
0.0360514
0.0357023
0.0352936
0.0348161
0.0342668
0.0336459
0.0329545
0.0321896
0.0313376
0.0303623
0.0291928
0.027711
0.0257792
0.0234204
0.0211812
0.0201678
0.0213342
0.0248614
0.0302577
0.0367758
0.0437664
0.0508115
0.0576812
0.0642553
0.0704767
0.0763262
0.0818063
0.0869299
0.091715
0.0961826
0.100355
0.104254
0.1079
0.111313
0.114512
0.117512
0.120331
0.122983
0.125483
0.127843
0.130075
0.13219
0.134196
0.136104
0.137922
0.139656
0.141313
0.142899
0.144419
0.145876
0.147274
0.148613
0.149896
0.151122
0.152291
0.153401
0.154452
0.155441
0.156366
0.157227
0.158024
0.158756
0.159425
0.160032
0.16058
0.161072
0.161512
0.161904
0.162251
0.162558
0.162829
0.163068
0.163279
0.163466
0.163631
0.163778
0.163909
0.164026
0.164131
0.164227
0.164315
0.164395
0.164469
0.164537
0.164602
0.164662
0.164718
0.164772
0.164823
0.164871
0.164917
0.164961
0.165003
0.165043
0.165082
0.165118
0.165153
0.165187
0.165219
0.165249
0.165278
0.165306
0.165332
0.165357
0.165381
0.165404
0.165425
0.165446
0.165465
0.165483
0.1655
0.165516
0.165531
0.165545
0.165558
0.16557
0.165581
0.165592
0.165601
0.16561
0.165614
0.0363702
0.0360998
0.0358287
0.035546
0.0352424
0.0349114
0.0345487
0.0341517
0.0337178
0.033241
0.0327075
0.0320903
0.0313405
0.0303696
0.029041
0.027228
0.0250253
0.0230298
0.0222358
0.0234291
0.0267778
0.0319212
0.0382491
0.0451662
0.0522441
0.0592342
0.0660072
0.0724952
0.0786643
0.084503
0.0900153
0.0952134
0.100112
0.104728
0.109076
0.113176
0.117044
0.120696
0.124148
0.127413
0.130506
0.133438
0.136223
0.138871
0.141393
0.143798
0.146094
0.148288
0.150388
0.152399
0.154325
0.15617
0.157937
0.159628
0.161242
0.162779
0.164238
0.165618
0.166916
0.168131
0.169263
0.17031
0.171274
0.172155
0.172957
0.173683
0.174336
0.174922
0.175444
0.175909
0.176322
0.176687
0.17701
0.177297
0.17755
0.177775
0.177974
0.178153
0.178313
0.178456
0.178587
0.178705
0.178814
0.178914
0.179006
0.179092
0.179172
0.179248
0.179319
0.179386
0.17945
0.17951
0.179568