/*--------------------------------*- C++ -*----------------------------------*\
  =========                 |
  \\      /  F ield         | OpenFOAM: The Open Source CFD Toolbox
   \\    /   O peration     | Website:  https://openfoam.org
    \\  /    A nd           | Version:  8
     \\/     M anipulation  |
\*---------------------------------------------------------------------------*/
FoamFile
{
    version     2.0;
    format      ascii;
    class       surfaceScalarField;
    location    "300";
    object      phi;
}
// * * * * * * * * * * * * * * * * * * * * * * * * * * * * * * * * * * * * * //

dimensions      [0 3 -1 0 0 0 0];

internalField   nonuniform List<scalar> 
14458
(
0.00222125
0.00139936
0.00205681
0.000164681
0.0019894
6.78344e-05
0.00194724
4.25467e-05
0.0019167
3.09231e-05
0.00189297
2.40316e-05
0.00187391
1.95551e-05
0.00185903
1.52187e-05
0.00184919
1.01185e-05
0.00184484
4.44582e-06
0.0018441
1.39826e-06
0.0018435
1.02341e-06
0.00184098
2.7873e-06
0.00183669
4.36158e-06
0.00183172
5.3434e-06
0.00182695
4.94703e-06
0.00182282
4.14701e-06
0.00181944
3.21939e-06
0.00181681
3.08255e-06
0.00181485
2.22347e-06
0.00181348
1.46832e-06
0.00181261
7.85113e-07
0.00181217
6.93006e-07
0.00181211
1.29691e-07
0.00181237
-3.57287e-07
0.00181291
-8.04262e-07
0.0018137
-4.41642e-07
0.00181471
-8.39617e-07
0.00181591
-1.18445e-06
0.00181728
-1.52237e-06
0.00181881
-1.32546e-06
0.00182049
-1.64281e-06
0.00182229
-1.91609e-06
0.00182421
-2.19071e-06
0.00182623
-1.72914e-06
0.00182837
-2.00231e-06
0.0018306
-2.23432e-06
0.00183291
-2.47946e-06
0.0018353
-2.2127e-06
0.00183776
-2.45578e-06
0.0018403
-2.656e-06
0.00184288
-2.86701e-06
0.00184552
-2.35585e-06
0.0018482
-2.56769e-06
0.00185092
-2.73281e-06
0.00185366
-2.91375e-06
0.0018564
-2.58561e-06
0.00185916
-2.7572e-06
0.0018619
-2.8776e-06
0.00186461
-3.00813e-06
0.00186728
-2.40799e-06
0.00186991
-2.53154e-06
0.00187248
-2.60203e-06
0.00187498
-2.6916e-06
0.00187739
-2.25899e-06
0.00187971
-2.34396e-06
0.00188194
-2.37928e-06
0.00188405
-2.43567e-06
0.00188606
-1.74366e-06
0.00188796
-1.8132e-06
0.00188976
-1.83805e-06
0.00189143
-1.89769e-06
0.001893
-1.43825e-06
0.00189448
-1.51632e-06
0.00189585
-1.55245e-06
0.00189711
-1.62173e-06
0.00189829
-9.44404e-07
0.00189938
-1.04087e-06
0.00190039
-1.09597e-06
0.00190131
-1.19233e-06
0.00190217
-7.63782e-07
0.00190297
-8.82028e-07
0.0019037
-9.57259e-07
0.00190437
-1.06645e-06
0.00190498
-4.27097e-07
0.00190555
-5.59918e-07
0.00190608
-6.49436e-07
0.00190656
-7.78486e-07
0.001907
-3.95914e-07
0.00190741
-5.40628e-07
0.00190779
-6.40565e-07
0.00190814
-7.7102e-07
0.00190845
-1.86313e-07
0.00190875
-3.33244e-07
0.00190903
-4.3595e-07
0.00190928
-5.74367e-07
0.00190951
-2.26565e-07
0.00190973
-3.74946e-07
0.00190993
-4.78996e-07
0.00191011
-6.10144e-07
0.00191027
-7.88092e-08
0.00191043
-2.21746e-07
0.00191058
-3.22449e-07
0.00191071
-4.55112e-07
0.00191083
-1.58244e-07
0.00191095
-2.96424e-07
0.00191106
-3.93136e-07
0.00191115
-5.13191e-07
0.00191123
-8.43977e-08
0.00191132
-2.10171e-07
0.0019114
-2.97112e-07
0.00191146
-4.10399e-07
0.00191153
-1.79357e-07
0.00191159
-2.91555e-07
0.00191164
-3.66664e-07
0.00191169
-4.59231e-07
0.00191173
-1.72646e-07
0.00191178
-2.611e-07
0.00191182
-3.16121e-07
0.00191185
-3.88501e-07
0.00191188
-2.65212e-07
0.00191191
-3.25828e-07
0.00191193
-3.54743e-07
0.00191196
-3.94773e-07
0.00191198
-3.4112e-07
0.001912
-3.61681e-07
0.00191201
-3.50261e-07
0.00191203
-3.506e-07
0.00191204
-3.87476e-07
0.00191205
-3.60462e-07
0.00191206
-5.5312e-08
-2.27876e-08
0.0031115
0.00259624
0.00288391
0.000392413
0.00278396
0.000168037
0.00272312
0.000103612
0.00267979
7.44754e-05
0.00264643
5.75608e-05
0.00261983
4.64361e-05
0.00259928
3.59683e-05
0.00258572
2.38322e-05
0.00257925
1.09632e-05
0.00257669
4.32756e-06
0.00257328
4.66994e-06
0.00256673
9.47928e-06
0.00255792
1.32036e-05
0.00254871
1.47548e-05
0.00254037
1.3381e-05
0.0025334
1.11207e-05
0.00252786
8.67275e-06
0.00252363
7.54978e-06
0.00252055
5.44373e-06
0.00251843
3.6363e-06
0.00251712
2.0495e-06
0.00251648
1.45949e-06
0.00251643
2.16427e-07
0.00251687
-8.40389e-07
0.0025177
-1.78181e-06
0.00251889
-1.44566e-06
0.00252038
-2.24774e-06
0.00252214
-2.93425e-06
0.00252412
-3.58598e-06
0.00252631
-3.40488e-06
0.00252868
-4.00051e-06
0.00253122
-4.51224e-06
0.00253389
-5.01005e-06
0.0025367
-4.37605e-06
0.00253963
-4.8641e-06
0.00254267
-5.27754e-06
0.0025458
-5.70077e-06
0.00254902
-5.33978e-06
0.00255232
-5.75586e-06
0.0025557
-6.09784e-06
0.00255913
-6.44322e-06
0.0025626
-5.6818e-06
0.00256612
-6.02375e-06
0.00256966
-6.2837e-06
0.00257321
-6.55613e-06
0.00257676
-6.04847e-06
0.0025803
-6.2986e-06
0.00258381
-6.46013e-06
0.00258727
-6.62119e-06
0.00259066
-5.66214e-06
0.00259399
-5.80363e-06
0.00259722
-5.85358e-06
0.00260035
-5.92173e-06
0.00260336
-5.19371e-06
0.00260626
-5.25242e-06
0.00260903
-5.23005e-06
0.00261166
-5.22955e-06
0.00261414
-4.09092e-06
0.00261649
-4.11593e-06
0.0026187
-4.07049e-06
0.00262077
-4.07583e-06
0.0026227
-3.29916e-06
0.00262451
-3.34553e-06
0.00262619
-3.32899e-06
0.00262774
-3.35901e-06
0.00262918
-2.26034e-06
0.00263051
-2.34658e-06
0.00263174
-2.37104e-06
0.00263287
-2.45918e-06
0.00263392
-1.75875e-06
0.00263489
-1.89548e-06
0.00263578
-1.9678e-06
0.0026366
-2.08773e-06
0.00263735
-1.0759e-06
0.00263804
-1.24517e-06
0.00263868
-1.3489e-06
0.00263926
-1.51265e-06
0.0026398
-9.06678e-07
0.0026403
-1.10659e-06
0.00264077
-1.23813e-06
0.00264119
-1.41095e-06
0.00264157
-5.01057e-07
0.00264193
-7.08981e-07
0.00264227
-8.48782e-07
0.00264257
-1.04125e-06
0.00264285
-5.00729e-07
0.00264311
-7.17722e-07
0.00264336
-8.66512e-07
0.00264358
-1.0509e-06
0.00264378
-2.31293e-07
0.00264397
-4.41816e-07
0.00264415
-5.8677e-07
0.0026443
-7.78094e-07
0.00264445
-3.20917e-07
0.00264459
-5.27733e-07
0.00264473
-6.70259e-07
0.00264484
-8.43473e-07
0.00264495
-1.83935e-07
0.00264505
-3.72445e-07
0.00264514
-5.00741e-07
0.00264522
-6.66905e-07
0.0026453
-3.12178e-07
0.00264537
-4.81907e-07
0.00264544
-5.95045e-07
0.0026455
-7.30352e-07
0.00264556
-2.87283e-07
0.00264561
-4.20826e-07
0.00264566
-5.05353e-07
0.0026457
-6.12155e-07
0.00264574
-4.19826e-07
0.00264578
-5.11612e-07
0.00264581
-5.64192e-07
0.00264584
-6.23297e-07
0.00264587
-5.20739e-07
0.0026459
-5.51026e-07
0.00264592
-5.55164e-07
0.00264594
-5.54283e-07
0.00264596
-5.94134e-07
0.00264597
-5.47118e-07
0.002646
-4.85889e-07
-4.40803e-07
0.00403424
0.00368893
0.00373889
0.000687876
0.003601
0.000306119
0.00351838
0.000186391
0.0034605
0.000132516
0.00341641
0.000101765
0.00338156
8.14828e-05
0.00335481
6.28547e-05
0.0033369
4.18543e-05
0.00332707
2.08354e-05
0.00332049
1.1146e-05
0.00331128
1.40415e-05
0.00329752
2.33349e-05
0.00328139
2.93588e-05
0.00326575
3.05224e-05
0.00325221
2.69714e-05
0.00324124
2.20994e-05
0.0032327
1.71634e-05
0.00322629
1.41034e-05
0.00322167
1.01444e-05
0.00321853
6.81447e-06
0.00321659
3.9618e-06
0.00321565
2.47917e-06
0.00321554
3.44763e-07
0.00321612
-1.44033e-06
0.00321725
-2.99262e-06
0.00321885
-2.94068e-06
0.00322085
-4.20297e-06
0.00322319
-5.26532e-06
0.00322581
-6.24977e-06
0.00322867
-6.20459e-06
0.00323176
-7.07574e-06
0.00323503
-7.81429e-06
0.00323845
-8.51747e-06
0.00324202
-7.84942e-06
0.00324572
-8.52292e-06
0.00324952
-9.08335e-06
0.00325342
-9.64864e-06
0.0032574
-9.26446e-06
0.00326146
-9.81367e-06
0.00326558
-1.02546e-05
0.00326974
-1.06897e-05
0.00327393
-9.78921e-06
0.00327815
-1.02099e-05
0.00328238
-1.05109e-05
0.00328659
-1.08213e-05
0.00329077
-1.01873e-05
0.00329493
-1.0461e-05
0.00329904
-1.06075e-05
0.00330307
-1.07417e-05
0.00330702
-9.52406e-06
0.00331086
-9.62076e-06
0.00331459
-9.58726e-06
0.00331818
-9.57266e-06
0.00332163
-8.59969e-06
0.00332494
-8.57241e-06
0.0033281
-8.43373e-06
0.00333109
-8.31762e-06
0.00333392
-6.83934e-06
0.00333658
-6.75799e-06
0.00333908
-6.58265e-06
0.00334142
-6.47635e-06
0.0033436
-5.44028e-06
0.00334564
-5.40079e-06
0.00334754
-5.28009e-06
0.00334929
-5.2185e-06
0.00335091
-3.81393e-06
0.00335241
-3.83535e-06
0.00335379
-3.77828e-06
0.00335506
-3.80899e-06
0.00335624
-2.90497e-06
0.00335733
-3.01374e-06
0.00335833
-3.03934e-06
0.00335925
-3.12455e-06
0.00336009
-1.86356e-06
0.00336087
-2.02158e-06
0.00336158
-2.09573e-06
0.00336223
-2.25157e-06
0.00336283
-1.49399e-06
0.00336339
-1.70916e-06
0.00336392
-1.83512e-06
0.00336439
-2.01117e-06
0.00336482
-8.98371e-07
0.00336523
-1.12585e-06
0.00336559
-1.26479e-06
0.00336593
-1.47392e-06
0.00336624
-8.11813e-07
0.00336654
-1.0622e-06
0.00336681
-1.22308e-06
0.00336706
-1.42651e-06
0.00336729
-4.35105e-07
0.0033675
-6.77347e-07
0.0033677
-8.33799e-07
0.00336787
-1.05122e-06
0.00336804
-4.97302e-07
0.00336819
-7.42005e-07
0.00336834
-9.02383e-07
0.00336848
-1.09926e-06
0.0033686
-3.05807e-07
0.00336871
-5.27181e-07
0.00336881
-6.69988e-07
0.00336891
-8.62314e-07
0.00336899
-4.35444e-07
0.00336908
-6.38257e-07
0.00336916
-7.66523e-07
0.00336923
-9.22256e-07
0.00336929
-3.92844e-07
0.00336936
-5.507e-07
0.00336941
-6.42989e-07
0.00336946
-7.66896e-07
0.00336951
-5.37937e-07
0.00336955
-6.47293e-07
0.0033696
-6.99199e-07
0.00336964
-7.67537e-07
0.00336967
-6.59975e-07
0.00336971
-6.94271e-07
0.00336974
-6.78839e-07
0.00336977
-6.74572e-07
0.0033698
-7.35672e-07
0.00336981
-6.66992e-07
0.00336985
-2.88624e-07
-2.031e-07
0.00509519
0.00469476
0.00472971
0.00105347
0.00454512
0.000490897
0.00443471
0.000296958
0.0043584
0.000208977
0.00430094
0.000159344
0.00425592
0.000126694
0.00422149
9.74095e-05
0.00419775
6.56935e-05
0.00418245
3.61742e-05
0.00416866
2.51676e-05
0.0041496
3.32521e-05
0.00412454
4.84888e-05
0.0040976
5.63098e-05
0.00407285
5.53901e-05
0.00405215
4.77165e-05
0.00403574
3.85156e-05
0.00402316
2.96951e-05
0.0040138
2.3597e-05
0.00400708
1.69292e-05
0.00400251
1.14173e-05
0.00399966
6.77685e-06
0.00399823
3.989e-06
0.00399795
6.43437e-07
0.00399859
-2.11388e-06
0.00399999
-4.47087e-06
0.00400201
-4.86084e-06
0.00400455
-6.69568e-06
0.00400751
-8.21502e-06
0.00401081
-9.59571e-06
0.0040144
-9.74111e-06
0.00401825
-1.09211e-05
0.00402232
-1.19073e-05
0.00402655
-1.28293e-05
0.00403093
-1.21428e-05
0.00403544
-1.29984e-05
0.00404005
-1.36969e-05
0.00404475
-1.43937e-05
0.00404952
-1.3983e-05
0.00405435
-1.46496e-05
0.00405924
-1.51721e-05
0.00406414
-1.56772e-05
0.00406906
-1.46258e-05
0.00407398
-1.50974e-05
0.00407888
-1.54114e-05
0.00408374
-1.57324e-05
0.00408855
-1.49554e-05
0.00409331
-1.52251e-05
0.004098
-1.53304e-05
0.00410258
-1.54106e-05
0.00410705
-1.39167e-05
0.00411139
-1.39355e-05
0.00411559
-1.37875e-05
0.00411962
-1.36614e-05
0.00412349
-1.24274e-05
0.0041272
-1.22875e-05
0.00413073
-1.20086e-05
0.00413408
-1.17527e-05
0.00413723
-9.92102e-06
0.00414021
-9.70425e-06
0.00414299
-9.37271e-06
0.00414558
-9.13203e-06
0.00414801
-7.82687e-06
0.00415027
-7.68159e-06
0.00415238
-7.43894e-06
0.00415434
-7.26825e-06
0.00415614
-5.55089e-06
0.0041578
-5.48578e-06
0.00415933
-5.32854e-06
0.00416074
-5.28739e-06
0.00416204
-4.17801e-06
0.00416325
-4.24659e-06
0.00416436
-4.21483e-06
0.00416539
-4.25448e-06
0.00416632
-2.74323e-06
0.00416718
-2.8748e-06
0.00416796
-2.90717e-06
0.00416867
-3.04675e-06
0.00416934
-2.14084e-06
0.00416996
-2.36481e-06
0.00417053
-2.48009e-06
0.00417106
-2.65373e-06
0.00417154
-1.34061e-06
0.00417199
-1.57742e-06
0.00417239
-1.70788e-06
0.00417276
-1.92869e-06
0.0041731
-1.14991e-06
0.00417343
-1.42982e-06
0.00417373
-1.60049e-06
0.00417401
-1.81983e-06
0.00417426
-6.60224e-07
0.0041745
-9.27124e-07
0.00417471
-1.09034e-06
0.0041749
-1.33092e-06
0.00417508
-6.85131e-07
0.00417526
-9.65292e-07
0.00417543
-1.14213e-06
0.00417558
-1.36069e-06
0.00417571
-4.35784e-07
0.00417584
-6.85331e-07
0.00417595
-8.40025e-07
0.00417606
-1.05697e-06
0.00417615
-5.61353e-07
0.00417625
-7.95982e-07
0.00417634
-9.40164e-07
0.00417643
-1.11542e-06
0.0041765
-4.97347e-07
0.00417657
-6.77083e-07
0.00417664
-7.79832e-07
0.0041767
-9.20235e-07
0.00417675
-6.52131e-07
0.00417681
-7.789e-07
0.00417686
-8.43862e-07
0.00417691
-9.22122e-07
0.00417696
-7.81833e-07
0.004177
-8.20611e-07
0.00417704
-8.17887e-07
0.00417708
-8.10904e-07
0.00417712
-8.68969e-07
0.00417714
-7.79797e-07
0.0041772
-6.59371e-07
-5.8496e-07
0.00634384
0.00561112
0.00590978
0.00148764
0.00566909
0.000731762
0.00552323
0.000442954
0.00542324
0.000309107
0.00534868
0.000234
0.00529076
0.000184779
0.00524648
0.000141798
0.00521475
9.7515e-05
0.00519112
5.98332e-05
0.00516624
5.02429e-05
0.00513275
6.68469e-05
0.00509197
8.93444e-05
0.00505056
9.77378e-05
0.00501388
9.21607e-05
0.0049839
7.77247e-05
0.00496048
6.1952e-05
0.00494267
4.74717e-05
0.00492947
3.68883e-05
0.00492
2.64533e-05
0.0049135
1.79427e-05
0.00490938
1.0878e-05
0.00490718
6.24347e-06
0.00490653
1.30234e-06
0.00490713
-2.72246e-06
0.00490872
-6.11456e-06
0.00491112
-7.19203e-06
0.00491418
-9.72908e-06
0.00491777
-1.17974e-05
0.00492179
-1.36448e-05
0.00492617
-1.40744e-05
0.00493085
-1.55959e-05
0.00493577
-1.68449e-05
0.00494088
-1.79945e-05
0.00494615
-1.73526e-05
0.00495155
-1.83782e-05
0.00495705
-1.91929e-05
0.00496262
-2.00013e-05
0.00496826
-1.95828e-05
0.00497395
-2.0341e-05
0.00497967
-2.09124e-05
0.00498539
-2.14579e-05
0.00499111
-2.0285e-05
0.0049968
-2.07688e-05
0.00500244
-2.1052e-05
0.00500802
-2.13472e-05
0.00501353
-2.04316e-05
0.00501896
-2.06611e-05
0.00502429
-2.06848e-05
0.0050295
-2.06758e-05
0.00503456
-1.89303e-05
0.00503947
-1.88291e-05
0.0050442
-1.85207e-05
0.00504875
-1.82461e-05
0.00505311
-1.67561e-05
0.00505728
-1.64679e-05
0.00506125
-1.60094e-05
0.00506502
-1.55799e-05
0.00506857
-1.34228e-05
0.00507191
-1.30297e-05
0.00507503
-1.24987e-05
0.00507794
-1.20895e-05
0.00508067
-1.05245e-05
0.00508322
-1.02415e-05
0.00508559
-9.84247e-06
0.00508779
-9.53326e-06
0.00508981
-7.53624e-06
0.00509168
-7.34978e-06
0.0050934
-7.05665e-06
0.00509497
-6.91713e-06
0.00509643
-5.62028e-06
0.00509779
-5.62449e-06
0.00509905
-5.5085e-06
0.0051002
-5.4802e-06
0.00510125
-3.75933e-06
0.00510221
-3.83698e-06
0.00510308
-3.79945e-06
0.00510388
-3.90332e-06
0.00510462
-2.87281e-06
0.00510531
-3.08835e-06
0.00510596
-3.17318e-06
0.00510655
-3.32843e-06
0.0051071
-1.8594e-06
0.00510759
-2.08433e-06
0.00510804
-2.18396e-06
0.00510845
-2.40151e-06
0.00510883
-1.53185e-06
0.0051092
-1.82764e-06
0.00510954
-1.99192e-06
0.00510985
-2.21467e-06
0.00511014
-9.31417e-07
0.0051104
-1.20601e-06
0.00511064
-1.35777e-06
0.00511085
-1.60957e-06
0.00511105
-8.96092e-07
0.00511125
-1.20042e-06
0.00511144
-1.38035e-06
0.00511161
-1.61022e-06
0.00511177
-5.9213e-07
0.00511191
-8.56437e-07
0.00511204
-1.00854e-06
0.00511215
-1.24067e-06
0.00511227
-6.9691e-07
0.00511238
-9.54527e-07
0.00511249
-1.10307e-06
0.00511258
-1.28996e-06
0.00511267
-6.13773e-07
0.00511276
-8.06227e-07
0.00511283
-9.06042e-07
0.0051129
-1.05651e-06
0.00511297
-7.64862e-07
0.00511304
-9.03909e-07
0.0051131
-9.63829e-07
0.00511316
-1.04817e-06
0.00511322
-9.0917e-07
0.00511328
-9.49501e-07
0.00511333
-9.27212e-07
0.00511338
-9.14977e-07
0.00511343
-9.91729e-07
0.00511346
-8.75846e-07
0.00511353
-4.81054e-07
-3.62073e-07
0.00782495
0.00642579
0.00732964
0.00198308
0.00702377
0.00103782
0.00683322
0.000633656
0.00670271
0.000439761
0.00660612
0.000330698
0.00653159
0.000259488
0.00647445
0.000199048
0.00643178
0.00014028
0.00639622
9.54165e-05
0.00635565
9.10326e-05
0.00630262
0.000119995
0.00624125
0.000150792
0.00618126
0.000157735
0.00612941
0.000144108
0.00608767
0.000119499
0.00605532
9.431e-05
0.00603082
7.19232e-05
0.00601267
5.51504e-05
0.00599957
3.96037e-05
0.00599048
2.70589e-05
0.00598458
1.67507e-05
0.00598124
9.64631e-06
0.00597994
2.60174e-06
0.00598029
-3.08383e-06
0.00598194
-7.82821e-06
0.00598464
-9.81395e-06
0.00598819
-1.32456e-05
0.00599241
-1.60069e-05
0.00599716
-1.8438e-05
0.00600236
-1.92258e-05
0.00600792
-2.11578e-05
0.00601378
-2.27179e-05
0.00601985
-2.41333e-05
0.0060261
-2.35377e-05
0.0060325
-2.47456e-05
0.00603898
-2.56784e-05
0.00604554
-2.65996e-05
0.00605216
-2.61567e-05
0.00605881
-2.69999e-05
0.00606549
-2.76093e-05
0.00607215
-2.81842e-05
0.00607878
-2.68523e-05
0.00608536
-2.73272e-05
0.00609187
-2.7556e-05
0.00609828
-2.78059e-05
0.00610461
-2.672e-05
0.00611083
-2.68902e-05
0.00611694
-2.68126e-05
0.00612289
-2.66966e-05
0.00612868
-2.46567e-05
0.00613427
-2.44096e-05
0.00613967
-2.39139e-05
0.00614484
-2.34689e-05
0.00614981
-2.16889e-05
0.00615457
-2.12315e-05
0.0061591
-2.05718e-05
0.0061634
-1.99491e-05
0.00616746
-1.74207e-05
0.00617127
-1.68239e-05
0.00617483
-1.60651e-05
0.00617816
-1.54657e-05
0.00618127
-1.36073e-05
0.00618418
-1.31676e-05
0.0061869
-1.25924e-05
0.00618942
-1.21284e-05
0.00619175
-9.80985e-06
0.00619388
-9.48041e-06
0.00619584
-9.03001e-06
0.00619765
-8.77909e-06
0.00619932
-7.26975e-06
0.00620088
-7.19977e-06
0.00620232
-6.9887e-06
0.00620364
-6.88499e-06
0.00620484
-4.92088e-06
0.00620594
-4.93216e-06
0.00620693
-4.81261e-06
0.00620784
-4.87662e-06
0.00620869
-3.70505e-06
0.00620948
-3.91088e-06
0.00621022
-3.96267e-06
0.0062109
-4.09975e-06
0.00621153
-2.44892e-06
0.00621209
-2.65669e-06
0.0062126
-2.72006e-06
0.00621306
-2.93522e-06
0.0062135
-1.96252e-06
0.00621392
-2.27657e-06
0.00621431
-2.43583e-06
0.00621467
-2.66545e-06
0.006215
-1.23694e-06
0.0062153
-1.51777e-06
0.00621556
-1.65633e-06
0.00621581
-1.92258e-06
0.00621604
-1.1321e-06
0.00621627
-1.46438e-06
0.00621649
-1.64976e-06
0.00621668
-1.89521e-06
0.00621686
-7.66223e-07
0.00621703
-1.04586e-06
0.00621718
-1.19564e-06
0.00621731
-1.44688e-06
0.00621744
-8.4749e-07
0.00621757
-1.13203e-06
0.0062177
-1.28875e-06
0.00621782
-1.49128e-06
0.00621792
-7.41097e-07
0.00621802
-9.47715e-07
0.00621811
-1.04923e-06
0.0062182
-1.21272e-06
0.00621828
-8.88954e-07
0.00621836
-1.04307e-06
0.00621844
-1.11303e-06
0.00621851
-1.20658e-06
0.00621859
-1.03749e-06
0.00621866
-1.08124e-06
0.00621873
-1.07159e-06
0.00621879
-1.05538e-06
0.00621886
-1.12658e-06
0.0062189
-9.85749e-07
0.00621899
-8.895e-07
-8.0556e-07
0.00958312
0.0071238
0.00904302
0.00252331
0.00866533
0.00141571
0.00841967
0.000879461
0.00825013
0.000609453
0.00812506
0.000455861
0.00802901
0.000355707
0.00795499
0.000273168
0.00789752
0.000197847
0.00784561
0.000147365
0.00778406
0.000152761
0.00770575
0.000198403
0.00761828
0.000238327
0.00753492
0.00024111
0.00746396
0.000215144
0.00740733
0.000176163
0.0073636
0.000138049
0.00733051
0.000104991
0.0073059
7.98393e-05
0.00728801
5.75284e-05
0.00727543
3.96682e-05
0.00726705
2.51119e-05
0.00726203
1.4718e-05
0.00725969
4.94933e-06
0.00725948
-2.88285e-06
0.00726097
-9.36548e-06
0.00726383
-1.26098e-05
0.00726777
-1.7169e-05
0.00727257
-2.07994e-05
0.00727806
-2.39541e-05
0.00728411
-2.52364e-05
0.00729061
-2.7659e-05
0.00729747
-2.95843e-05
0.0073046
-3.13069e-05
0.00731194
-3.08273e-05
0.00731943
-3.22274e-05
0.00732703
-3.32742e-05
0.00733471
-3.43042e-05
0.00734244
-3.3855e-05
0.00735021
-3.47696e-05
0.00735798
-3.53947e-05
0.00736573
-3.59791e-05
0.00737343
-3.45065e-05
0.00738105
-3.49413e-05
0.00738858
-3.50784e-05
0.00739599
-3.52535e-05
0.0074033
-3.39943e-05
0.00741048
-3.40761e-05
0.00741751
-3.38628e-05
0.00742438
-3.36107e-05
0.00743105
-3.12862e-05
0.00743751
-3.08546e-05
0.00744372
-3.01278e-05
0.00744969
-2.9477e-05
0.00745543
-2.73987e-05
0.00746093
-2.67362e-05
0.00746617
-2.58343e-05
0.00747115
-2.49822e-05
0.00747586
-2.20861e-05
0.00748028
-2.12395e-05
0.00748442
-2.02028e-05
0.00748829
-1.93727e-05
0.00749191
-1.72089e-05
0.0074953
-1.65743e-05
0.00749847
-1.57811e-05
0.00750141
-1.51263e-05
0.00750413
-1.24917e-05
0.00750663
-1.19777e-05
0.00750892
-1.13268e-05
0.00751102
-1.09323e-05
0.00751298
-9.20824e-06
0.0075148
-9.03606e-06
0.00751648
-8.69873e-06
0.00751802
-8.49406e-06
0.00751943
-6.30323e-06
0.00752071
-6.21784e-06
0.00752187
-5.98478e-06
0.00752293
-5.98801e-06
0.00752392
-4.6837e-06
0.00752484
-4.86284e-06
0.00752571
-4.86153e-06
0.00752651
-4.96515e-06
0.00752724
-3.15749e-06
0.00752789
-3.3275e-06
0.00752848
-3.3321e-06
0.00752902
-3.53127e-06
0.00752953
-2.46924e-06
0.00753002
-2.79031e-06
0.00753047
-2.92999e-06
0.0075309
-3.15639e-06
0.00753128
-1.61097e-06
0.00753163
-1.88313e-06
0.00753194
-1.99154e-06
0.00753223
-2.26278e-06
0.0075325
-1.41006e-06
0.00753276
-1.76209e-06
0.00753302
-1.94183e-06
0.00753325
-2.19528e-06
0.00753346
-9.81143e-07
0.00753366
-1.26508e-06
0.00753383
-1.39967e-06
0.00753399
-1.66313e-06
0.00753415
-1.02182e-06
0.0075343
-1.32722e-06
0.00753445
-1.48251e-06
0.00753459
-1.69494e-06
0.00753472
-8.93692e-07
0.00753484
-1.10692e-06
0.00753495
-1.19773e-06
0.00753505
-1.36912e-06
0.00753515
-1.02609e-06
0.00753524
-1.19114e-06
0.00753534
-1.25338e-06
0.00753544
-1.3517e-06
0.00753553
-1.18941e-06
0.00753562
-1.23226e-06
0.0075357
-1.20156e-06
0.00753578
-1.17525e-06
0.00753586
-1.27087e-06
0.00753592
-1.08765e-06
0.00753603
-7.38908e-07
-4.9692e-07
0.0116649
0.00769342
0.0111083
0.00308009
0.0106582
0.00186604
0.010347
0.00119079
0.0101283
0.000828349
0.00996662
0.000617645
0.00984263
0.000479873
0.00974645
0.000369466
0.00966925
0.000275155
0.00959569
0.000220946
0.00950722
0.000241444
0.00939721
0.000308517
0.0092773
0.000358317
0.00916477
0.000353643
0.00906977
0.000310241
0.0089942
0.00025176
0.00893588
0.000196388
0.00889163
0.000149197
0.00885855
0.000113016
0.00883428
8.18373e-05
0.00881695
5.70297e-05
0.00880511
3.69287e-05
0.00879763
2.22493e-05
0.00879365
8.93964e-06
0.00879244
-1.68038e-06
0.00879343
-1.04243e-05
0.0087962
-1.53026e-05
0.00880038
-2.13205e-05
0.00880566
-2.60744e-05
0.00881183
-3.01639e-05
0.00881873
-3.20824e-05
0.0088262
-3.51299e-05
0.00883412
-3.75197e-05
0.00884238
-3.96336e-05
0.00885091
-3.92961e-05
0.00885964
-4.09332e-05
0.00886849
-4.21191e-05
0.00887743
-4.32814e-05
0.00888643
-4.28188e-05
0.00889547
-4.38153e-05
0.00890452
-4.44569e-05
0.00891353
-4.50535e-05
0.00892249
-4.34013e-05
0.00893134
-4.37857e-05
0.00894008
-4.38129e-05
0.00894869
-4.39018e-05
0.00895717
-4.24356e-05
0.0089655
-4.24173e-05
0.00897367
-4.2052e-05
0.00898165
-4.16524e-05
0.00898942
-3.89921e-05
0.00899693
-3.83543e-05
0.00900417
-3.73674e-05
0.00901114
-3.64894e-05
0.00901784
-3.40678e-05
0.00902427
-3.31775e-05
0.00903042
-3.20049e-05
0.00903627
-3.08994e-05
0.00904181
-2.757e-05
0.00904702
-2.64385e-05
0.0090519
-2.50824e-05
0.00905647
-2.39895e-05
0.00906076
-2.14662e-05
0.00906478
-2.06072e-05
0.00906853
-1.95621e-05
0.00907202
-1.869e-05
0.00907525
-1.56734e-05
0.00907822
-1.49428e-05
0.00908094
-1.40556e-05
0.00908345
-1.3494e-05
0.00908578
-1.15113e-05
0.00908794
-1.12192e-05
0.00908994
-1.0734e-05
0.00909178
-1.04146e-05
0.00909347
-7.94401e-06
0.00909499
-7.74396e-06
0.00909636
-7.37606e-06
0.00909763
-7.30925e-06
0.0090988
-5.84249e-06
0.0090999
-5.99093e-06
0.00910093
-5.92851e-06
0.00910188
-5.99757e-06
0.00910274
-3.99328e-06
0.00910353
-4.11921e-06
0.00910423
-4.0549e-06
0.00910487
-4.23784e-06
0.00910547
-3.0651e-06
0.00910605
-3.39593e-06
0.00910659
-3.51502e-06
0.00910709
-3.74287e-06
0.00910755
-2.04821e-06
0.00910796
-2.3114e-06
0.00910833
-2.38553e-06
0.00910867
-2.66573e-06
0.009109
-1.73479e-06
0.00910931
-2.112e-06
0.00910961
-2.28748e-06
0.00910989
-2.55523e-06
0.00911015
-1.23012e-06
0.00911038
-1.5207e-06
0.00911058
-1.63917e-06
0.00911078
-1.92013e-06
0.00911096
-1.22454e-06
0.00911115
-1.55658e-06
0.00911133
-1.71399e-06
0.0091115
-1.94236e-06
0.00911165
-1.06819e-06
0.0091118
-1.29122e-06
0.00911193
-1.37551e-06
0.00911205
-1.55913e-06
0.00911217
-1.18456e-06
0.00911229
-1.36489e-06
0.00911241
-1.43486e-06
0.00911253
-1.54358e-06
0.00911264
-1.35041e-06
0.00911275
-1.39659e-06
0.00911286
-1.37802e-06
0.00911296
-1.3463e-06
0.00911306
-1.43427e-06
0.00911313
-1.21996e-06
0.00911327
-1.20505e-06
-1.0318e-06
0.0141222
0.0081303
0.0135876
0.00361484
0.0130759
0.00237797
0.0126915
0.00157536
0.0124125
0.00110749
0.0122043
0.000825931
0.0120443
0.000640102
0.0119191
0.000494755
0.011816
0.0003784
0.0117146
0.000322391
0.0115925
0.000363666
0.0114437
0.00045746
0.0112839
0.000518133
0.0111352
0.000502413
0.0110099
0.000435639
0.0109101
0.000351549
0.0108329
0.00027362
0.010774
0.000208014
0.0107298
0.000157387
0.0106969
0.000114705
0.0106731
8.08854e-05
0.0106564
5.36074e-05
0.0106454
3.33219e-05
0.0106389
1.54405e-05
0.010636
1.214e-06
0.010636
-1.04504e-05
0.0106382
-1.75318e-05
0.0106424
-2.54272e-05
0.0106479
-3.16334e-05
0.0106547
-3.69243e-05
0.0106623
-3.97161e-05
0.0106708
-4.35569e-05
0.0106798
-4.65384e-05
0.0106893
-4.91465e-05
0.0106991
-4.90665e-05
0.0107091
-5.09939e-05
0.0107194
-5.23503e-05
0.0107297
-5.36711e-05
0.0107402
-5.32344e-05
0.0107507
-5.43216e-05
0.0107612
-5.4976e-05
0.0107717
-5.55816e-05
0.0107821
-5.37765e-05
0.0107924
-5.4092e-05
0.0108026
-5.39817e-05
0.0108126
-5.39639e-05
0.0108225
-5.22913e-05
0.0108322
-5.21513e-05
0.0108418
-5.16057e-05
0.0108511
-5.10352e-05
0.0108602
-4.80474e-05
0.010869
-4.71679e-05
0.0108775
-4.58771e-05
0.0108857
-4.47349e-05
0.0108937
-4.19542e-05
0.0109013
-4.07965e-05
0.0109086
-3.93054e-05
0.0109155
-3.79026e-05
0.0109221
-3.41276e-05
0.0109283
-3.26542e-05
0.0109342
-3.0914e-05
0.0109396
-2.95026e-05
0.0109448
-2.65873e-05
0.0109496
-2.54502e-05
0.0109541
-2.40947e-05
0.0109583
-2.2953e-05
0.0109622
-1.95375e-05
0.0109658
-1.85325e-05
0.0109691
-1.73484e-05
0.0109721
-1.65714e-05
0.010975
-1.43082e-05
0.0109776
-1.38548e-05
0.01098
-1.31772e-05
0.0109822
-1.27058e-05
0.0109843
-9.95475e-06
0.0109861
-9.5994e-06
0.0109878
-9.05386e-06
0.0109893
-8.88648e-06
0.0109907
-7.25267e-06
0.010992
-7.34686e-06
0.0109933
-7.19649e-06
0.0109944
-7.21038e-06
0.0109955
-5.02374e-06
0.0109964
-5.08054e-06
0.0109973
-4.9192e-06
0.010998
-5.06798e-06
0.0109988
-3.79043e-06
0.0109995
-4.11742e-06
0.0110001
-4.19851e-06
0.0110007
-4.41591e-06
0.0110013
-2.59342e-06
0.0110018
-2.83127e-06
0.0110022
-2.85157e-06
0.0110026
-3.12963e-06
0.011003
-2.13032e-06
0.0110034
-2.52414e-06
0.0110038
-2.68327e-06
0.0110041
-2.95746e-06
0.0110044
-1.54253e-06
0.0110047
-1.82848e-06
0.0110049
-1.91677e-06
0.0110052
-2.20782e-06
0.0110054
-1.46859e-06
0.0110056
-1.82149e-06
0.0110058
-1.97115e-06
0.0110061
-2.20979e-06
0.0110062
-1.2832e-06
0.0110064
-1.50843e-06
0.0110066
-1.57322e-06
0.0110067
-1.76348e-06
0.0110069
-1.3692e-06
0.011007
-1.5605e-06
0.0110072
-1.62011e-06
0.0110073
-1.73366e-06
0.0110075
-1.54875e-06
0.0110076
-1.59256e-06
0.0110077
-1.55176e-06
0.0110079
-1.50569e-06
0.011008
-1.62119e-06
0.0110081
-1.35008e-06
0.0110082
-1.116e-06
-7.15836e-07
0.0170157
0.00843994
0.0165447
0.00408593
0.016
0.00292299
0.0155423
0.00203324
0.0151931
0.00145691
0.0149273
0.00109188
0.0147212
0.000846376
0.0145585
0.000657646
0.0144217
0.000515242
0.0142852
0.0004589
0.0141223
0.000526809
0.0139267
0.000653181
0.0137186
0.000726345
0.013525
0.000696021
0.0133614
0.000599319
0.0132306
0.000482397
0.0131288
0.000375435
0.0130507
0.000286045
0.0129915
0.000216747
0.012947
0.00015917
0.0129143
0.000113674
0.0128908
7.70876e-05
0.0128746
4.95315e-05
0.0128644
2.57099e-05
0.0128588
6.78981e-06
0.0128569
-8.68865e-06
0.0128581
-1.86473e-05
0.0128617
-2.90074e-05
0.0128673
-3.71289e-05
0.0128743
-4.40088e-05
0.0128826
-4.79568e-05
0.0128919
-5.28495e-05
0.0129019
-5.66233e-05
0.0129126
-5.98989e-05
0.0129238
-6.01693e-05
0.0129353
-6.24961e-05
0.0129471
-6.40986e-05
0.012959
-6.56468e-05
0.0129711
-6.52612e-05
0.0129832
-6.64837e-05
0.0129954
-6.71778e-05
0.0130076
-6.78214e-05
0.0130197
-6.58393e-05
0.0130317
-6.60965e-05
0.0130436
-6.58444e-05
0.0130553
-6.57228e-05
0.0130669
-6.3817e-05
0.0130783
-6.35563e-05
0.0130895
-6.28219e-05
0.0131005
-6.20794e-05
0.0131112
-5.87141e-05
0.0131216
-5.75789e-05
0.0131317
-5.59563e-05
0.0131414
-5.45299e-05
0.0131509
-5.13388e-05
0.0131599
-4.98888e-05
0.0131687
-4.8043e-05
0.013177
-4.63126e-05
0.0131849
-4.20101e-05
0.0131925
-4.01492e-05
0.0131995
-3.79658e-05
0.0132061
-3.61867e-05
0.0132124
-3.28015e-05
0.0132183
-3.13385e-05
0.0132238
-2.96165e-05
0.0132289
-2.81598e-05
0.0132337
-2.42527e-05
0.013238
-2.29228e-05
0.0132421
-2.13824e-05
0.0132458
-2.03464e-05
0.0132492
-1.77341e-05
0.0132525
-1.70848e-05
0.0132554
-1.61741e-05
0.0132582
-1.55225e-05
0.0132607
-1.24169e-05
0.0132629
-1.18759e-05
0.013265
-1.11153e-05
0.0132669
-1.08257e-05
0.0132686
-8.97867e-06
0.0132702
-9.00578e-06
0.0132717
-8.74865e-06
0.0132732
-8.69995e-06
0.0132744
-6.27819e-06
0.0132756
-6.25471e-06
0.0132766
-5.97747e-06
0.0132776
-6.08629e-06
0.0132785
-4.67272e-06
0.0132793
-4.99545e-06
0.0132801
-5.032e-06
0.0132809
-5.24195e-06
0.0132815
-3.25109e-06
0.0132822
-3.46232e-06
0.0132827
-3.41998e-06
0.0132832
-3.69782e-06
0.0132837
-2.60806e-06
0.0132841
-3.02341e-06
0.0132846
-3.16476e-06
0.013285
-3.45193e-06
0.0132854
-1.91585e-06
0.0132857
-2.20001e-06
0.013286
-2.25452e-06
0.0132863
-2.56045e-06
0.0132866
-1.76118e-06
0.0132869
-2.14125e-06
0.0132871
-2.28528e-06
0.0132874
-2.54113e-06
0.0132876
-1.53627e-06
0.0132878
-1.76784e-06
0.013288
-1.81601e-06
0.0132882
-2.01754e-06
0.0132884
-1.58815e-06
0.0132886
-1.79553e-06
0.0132888
-1.8599e-06
0.0132889
-1.98567e-06
0.0132891
-1.76605e-06
0.0132893
-1.81358e-06
0.0132894
-1.78423e-06
0.0132896
-1.73133e-06
0.0132898
-1.83517e-06
0.0132899
-1.52673e-06
0.0132901
-1.66723e-06
-1.3965e-06
0.020418
0.008639
0.020045
0.00445912
0.0195159
0.0034524
0.0190008
0.00254853
0.0185768
0.00188108
0.0182427
0.00142614
0.0179793
0.00110994
0.0177686
0.000868485
0.0175891
0.00069493
0.0174092
0.000638803
0.0171974
0.000738784
0.0169465
0.000904262
0.0166802
0.000992696
0.0164314
0.00094485
0.0162196
0.000811242
0.0160488
0.000653193
0.0159149
0.000509387
0.0158113
0.000389571
0.015732
0.000296167
0.0156718
0.000219384
0.0156267
0.000158786
0.0155936
0.00011015
0.0155701
7.31047e-05
0.0155542
4.15727e-05
0.0155445
1.65367e-05
0.0155397
-3.9141e-06
0.0155388
-1.77338e-05
0.0155411
-3.13254e-05
0.015546
-4.19797e-05
0.0155529
-5.09581e-05
0.0155615
-5.65008e-05
0.0155715
-6.27863e-05
0.0155825
-6.76238e-05
0.0155943
-7.17926e-05
0.0156068
-7.26331e-05
0.0156198
-7.55023e-05
0.0156332
-7.74569e-05
0.0156468
-7.93227e-05
0.0156607
-7.90809e-05
0.0156747
-8.04952e-05
0.0156888
-8.12655e-05
0.0157029
-8.19792e-05