/*--------------------------------*- C++ -*----------------------------------*\
  =========                 |
  \\      /  F ield         | OpenFOAM: The Open Source CFD Toolbox
   \\    /   O peration     | Website:  https://openfoam.org
    \\  /    A nd           | Version:  8
     \\/     M anipulation  |
\*---------------------------------------------------------------------------*/
FoamFile
{
    version     2.0;
    format      ascii;
    class       volVectorField;
    location    "300";
    object      U;
}
// * * * * * * * * * * * * * * * * * * * * * * * * * * * * * * * * * * * * * //

dimensions      [0 1 -1 0 0 0 0];

internalField   nonuniform List<vector> 
7320
(
(22.6428 -0.848126 0)
(20.2989 -0.015684 0)
(19.4727 0.000196466 0)
(18.9931 0.000307405 0)
(18.6576 0.000227429 0)
(18.4025 0.000177142 0)
(18.1987 0.000145521 0)
(18.0339 0.000115405 0)
(17.9112 7.95486e-05 0)
(17.8436 3.49795e-05 0)
(17.8274 5.7035e-06 0)
(17.8293 -5.66874e-06 0)
(17.816 4.08917e-06 0)
(17.7805 1.77174e-05 0)
(17.7329 2.98847e-05 0)
(17.6843 3.0316e-05 0)
(17.6407 2.66299e-05 0)
(17.6044 2.11052e-05 0)
(17.5754 2.24887e-05 0)
(17.5534 1.65987e-05 0)
(17.5375 1.11852e-05 0)
(17.5269 6.12211e-06 0)
(17.5207 6.42112e-06 0)
(17.5184 2.09783e-06 0)
(17.5195 -1.73916e-06 0)
(17.5235 -5.3369e-06 0)
(17.5299 -1.32637e-06 0)
(17.5387 -4.55162e-06 0)
(17.5495 -7.43922e-06 0)
(17.562 -1.03198e-05 0)
(17.576 -8.14558e-06 0)
(17.5915 -1.08431e-05 0)
(17.6084 -1.32209e-05 0)
(17.6264 -1.56475e-05 0)
(17.6454 -1.10662e-05 0)
(17.6656 -1.34286e-05 0)
(17.6867 -1.55103e-05 0)
(17.7087 -1.77349e-05 0)
(17.7313 -1.50867e-05 0)
(17.7549 -1.72563e-05 0)
(17.7791 -1.9102e-05 0)
(17.8039 -2.10781e-05 0)
(17.829 -1.61718e-05 0)
(17.8548 -1.81058e-05 0)
(17.881 -1.97068e-05 0)
(17.9074 -2.14798e-05 0)
(17.9338 -1.8411e-05 0)
(17.9605 -2.00752e-05 0)
(17.9871 -2.13425e-05 0)
(18.0135 -2.27404e-05 0)
(18.0395 -1.71798e-05 0)
(18.0652 -1.84699e-05 0)
(18.0904 -1.93641e-05 0)
(18.1149 -2.0454e-05 0)
(18.1386 -1.6567e-05 0)
(18.1615 -1.75675e-05 0)
(18.1835 -1.81694e-05 0)
(18.2045 -1.89848e-05 0)
(18.2244 -1.26512e-05 0)
(18.2433 -1.35006e-05 0)
(18.2612 -1.40106e-05 0)
(18.278 -1.48402e-05 0)
(18.2937 -1.07012e-05 0)
(18.3084 -1.16169e-05 0)
(18.3221 -1.21901e-05 0)
(18.3349 -1.30766e-05 0)
(18.3466 -6.82088e-06 0)
(18.3576 -7.8508e-06 0)
(18.3677 -8.56447e-06 0)
(18.3771 -9.65368e-06 0)
(18.3857 -5.71856e-06 0)
(18.3937 -6.92394e-06 0)
(18.401 -7.77912e-06 0)
(18.4078 -8.95739e-06 0)
(18.4139 -2.9808e-06 0)
(18.4197 -4.27458e-06 0)
(18.425 -5.2372e-06 0)
(18.4299 -6.5629e-06 0)
(18.4343 -2.99871e-06 0)
(18.4384 -4.39245e-06 0)
(18.4422 -5.42135e-06 0)
(18.4458 -6.74424e-06 0)
(18.4489 -1.24058e-06 0)
(18.4519 -2.62412e-06 0)
(18.4547 -3.6677e-06 0)
(18.4572 -5.04237e-06 0)
(18.4595 -1.77821e-06 0)
(18.4617 -3.17714e-06 0)
(18.4637 -4.2142e-06 0)
(18.4656 -5.51315e-06 0)
(18.4672 -4.97505e-07 0)
(18.4688 -1.82263e-06 0)
(18.4703 -2.82243e-06 0)
(18.4716 -4.11934e-06 0)
(18.4728 -1.32716e-06 0)
(18.474 -2.6178e-06 0)
(18.475 -3.56766e-06 0)
(18.476 -4.74215e-06 0)
(18.4769 -6.9657e-07 0)
(18.4777 -1.85518e-06 0)
(18.4785 -2.70834e-06 0)
(18.4792 -3.80545e-06 0)
(18.4798 -1.63377e-06 0)
(18.4804 -2.67543e-06 0)
(18.481 -3.40874e-06 0)
(18.4815 -4.3066e-06 0)
(18.4819 -1.60751e-06 0)
(18.4823 -2.41908e-06 0)
(18.4827 -2.95999e-06 0)
(18.4831 -3.65653e-06 0)
(18.4834 -2.50018e-06 0)
(18.4837 -3.06098e-06 0)
(18.4839 -3.35449e-06 0)
(18.4842 -3.73879e-06 0)
(18.4844 -3.2232e-06 0)
(18.4846 -3.41495e-06 0)
(18.4847 -3.33585e-06 0)
(18.4849 -3.34126e-06 0)
(18.485 -3.67604e-06 0)
(18.4851 -3.44464e-06 0)
(18.4851 -9.52011e-07 0)
(18.4854 -6.3358e-07 0)
(26.6036 0.167144 0)
(23.9489 0.00743421 0)
(22.9104 0.00132921 0)
(22.3238 0.000766396 0)
(21.9219 0.000552404 0)
(21.6197 0.000428363 0)
(21.3799 0.000347537 0)
(21.1875 0.000272026 0)
(21.046 0.000182745 0)
(20.9672 8.10706e-05 0)
(20.941 1.95979e-05 0)
(20.9257 1.01378e-05 0)
(20.8856 4.25324e-05 0)
(20.8192 7.45111e-05 0)
(20.7425 9.34174e-05 0)
(20.6695 8.87859e-05 0)
(20.6069 7.58239e-05 0)
(20.5563 6.01104e-05 0)
(20.5169 5.45431e-05 0)
(20.4876 3.98686e-05 0)
(20.4668 2.70218e-05 0)
(20.4532 1.5547e-05 0)
(20.4454 1.21116e-05 0)
(20.4429 2.85098e-06 0)
(20.4446 -5.1192e-06 0)
(20.4499 -1.22989e-05 0)
(20.4581 -8.80452e-06 0)
(20.4692 -1.50718e-05 0)
(20.4825 -2.0485e-05 0)
(20.4978 -2.56722e-05 0)
(20.5147 -2.38489e-05 0)
(20.5333 -2.86557e-05 0)
(20.5532 -3.28098e-05 0)
(20.5745 -3.68836e-05 0)
(20.5967 -3.13699e-05 0)
(20.62 -3.54063e-05 0)
(20.6443 -3.88498e-05 0)
(20.6694 -4.23922e-05 0)
(20.6952 -3.92766e-05 0)
(20.7217 -4.27783e-05 0)
(20.7489 -4.56815e-05 0)
(20.7766 -4.86416e-05 0)
(20.8046 -4.22035e-05 0)
(20.833 -4.51692e-05 0)
(20.8617 -4.74721e-05 0)
(20.8906 -4.98975e-05 0)
(20.9194 -4.5689e-05 0)
(20.9482 -4.79478e-05 0)
(20.9769 -4.9483e-05 0)
(21.0053 -5.10434e-05 0)
(21.0331 -4.30764e-05 0)
(21.0604 -4.45005e-05 0)
(21.0871 -4.51683e-05 0)
(21.113 -4.59934e-05 0)
(21.1379 -4.00205e-05 0)
(21.162 -4.07536e-05 0)
(21.185 -4.08046e-05 0)
(21.207 -4.10498e-05 0)
(21.2277 -3.15806e-05 0)
(21.2474 -3.20306e-05 0)
(21.2659 -3.18813e-05 0)
(21.2833 -3.21454e-05 0)
(21.2994 -2.5709e-05 0)
(21.3146 -2.6281e-05 0)
(21.3288 -2.63164e-05 0)
(21.342 -2.67472e-05 0)
(21.354 -1.75318e-05 0)
(21.3653 -1.84174e-05 0)
(21.3757 -1.87738e-05 0)
(21.3853 -1.96509e-05 0)
(21.3941 -1.37721e-05 0)
(21.4023 -1.50275e-05 0)
(21.4099 -1.57384e-05 0)
(21.4168 -1.68581e-05 0)
(21.4231 -8.31048e-06 0)
(21.429 -9.83387e-06 0)
(21.4344 -1.07993e-05 0)
(21.4394 -1.22587e-05 0)
(21.4438 -7.13035e-06 0)
(21.4481 -8.87016e-06 0)
(21.452 -1.0035e-05 0)
(21.4556 -1.15582e-05 0)
(21.4588 -3.8426e-06 0)
(21.4619 -5.65534e-06 0)
(21.4647 -6.89158e-06 0)
(21.4673 -8.56466e-06 0)
(21.4696 -3.97412e-06 0)
(21.4718 -5.83524e-06 0)
(21.4739 -7.12305e-06 0)
(21.4758 -8.72107e-06 0)
(21.4775 -1.76317e-06 0)
(21.4791 -3.57575e-06 0)
(21.4806 -4.83493e-06 0)
(21.482 -6.48015e-06 0)
(21.4832 -2.59469e-06 0)
(21.4844 -4.35655e-06 0)
(21.4855 -5.57937e-06 0)
(21.4865 -7.06821e-06 0)
(21.4873 -1.47537e-06 0)
(21.4882 -3.08675e-06 0)
(21.489 -4.19029e-06 0)
(21.4897 -5.6092e-06 0)
(21.4903 -2.5986e-06 0)
(21.491 -4.03718e-06 0)
(21.4916 -4.99972e-06 0)
(21.4921 -6.15515e-06 0)
(21.4925 -2.41301e-06 0)
(21.493 -3.54813e-06 0)
(21.4934 -4.2642e-06 0)
(21.4938 -5.17152e-06 0)
(21.4941 -3.5512e-06 0)
(21.4944 -4.32535e-06 0)
(21.4947 -4.74714e-06 0)
(21.4949 -5.24684e-06 0)
(21.4952 -4.43404e-06 0)
(21.4954 -4.68981e-06 0)
(21.4956 -4.66842e-06 0)
(21.4958 -4.66315e-06 0)
(21.4959 -5.04235e-06 0)
(21.4961 -4.66049e-06 0)
(21.4961 -3.10578e-06 0)
(21.4965 -2.71084e-06 0)
(28.9496 0.0984833 0)
(26.1303 0.0063956 0)
(24.921 0.0023459 0)
(24.2465 0.00142819 0)
(23.793 0.00102118 0)
(23.4562 0.000787324 0)
(23.1911 0.000633621 0)
(22.9803 0.000491349 0)
(22.8259 0.000326593 0)
(22.7358 0.000151587 0)
(22.6917 5.86677e-05 0)
(22.6461 6.57092e-05 0)
(22.5659 0.000135663 0)
(22.4582 0.000190591 0)
(22.3456 0.000211468 0)
(22.2446 0.000192361 0)
(22.1608 0.000160298 0)
(22.0948 0.000125692 0)
(22.0443 0.00010633 0)
(22.0072 7.70181e-05 0)
(21.9812 5.20267e-05 0)
(21.9643 3.03261e-05 0)
(21.9547 2.03424e-05 0)
(21.9514 3.6817e-06 0)
(21.9532 -1.03874e-05 0)
(21.9593 -2.27616e-05 0)
(21.9687 -2.07085e-05 0)
(21.9811 -3.10348e-05 0)
(21.9961 -3.98064e-05 0)
(22.0131 -4.80219e-05 0)
(22.0318 -4.68858e-05 0)
(22.0522 -5.42876e-05 0)
(22.0739 -6.06132e-05 0)
(22.0968 -6.66922e-05 0)
(22.1206 -6.0178e-05 0)
(22.1455 -6.60905e-05 0)
(22.1711 -7.10619e-05 0)
(22.1975 -7.60988e-05 0)
(22.2243 -7.24016e-05 0)
(22.2518 -7.7334e-05 0)
(22.2798 -8.13513e-05 0)
(22.3081 -8.53533e-05 0)
(22.3366 -7.70474e-05 0)
(22.3653 -8.09848e-05 0)
(22.3942 -8.39041e-05 0)
(22.423 -8.69209e-05 0)
(22.4517 -8.12366e-05 0)
(22.4802 -8.39603e-05 0)
(22.5085 -8.55946e-05 0)
(22.5363 -8.71566e-05 0)
(22.5635 -7.62471e-05 0)
(22.5901 -7.75356e-05 0)
(22.616 -7.76962e-05 0)
(22.641 -7.80231e-05 0)
(22.665 -6.94859e-05 0)
(22.6881 -6.96932e-05 0)
(22.7102 -6.89225e-05 0)
(22.7313 -6.8364e-05 0)
(22.7511 -5.51866e-05 0)
(22.7699 -5.49432e-05 0)
(22.7875 -5.38597e-05 0)
(22.804 -5.33597e-05 0)
(22.8194 -4.42141e-05 0)
(22.8338 -4.42555e-05 0)
(22.8472 -4.35677e-05 0)
(22.8597 -4.34049e-05 0)
(22.8712 -3.07742e-05 0)
(22.8818 -3.13305e-05 0)
(22.8916 -3.11719e-05 0)
(22.9007 -3.17593e-05 0)
(22.909 -2.36506e-05 0)
(22.9167 -2.48819e-05 0)
(22.9239 -2.53706e-05 0)
(22.9305 -2.63947e-05 0)
(22.9364 -1.49275e-05 0)
(22.942 -1.65862e-05 0)
(22.947 -1.74854e-05 0)
(22.9517 -1.90827e-05 0)
(22.9559 -1.21932e-05 0)
(22.9599 -1.42776e-05 0)
(22.9635 -1.55697e-05 0)
(22.967 -1.73177e-05 0)
(22.97 -7.12081e-06 0)
(22.9729 -9.3229e-06 0)
(22.9755 -1.07301e-05 0)
(22.9779 -1.27421e-05 0)
(22.9801 -6.6738e-06 0)
(22.9822 -9.02268e-06 0)
(22.9841 -1.05781e-05 0)
(22.986 -1.25222e-05 0)
(22.9875 -3.40313e-06 0)
(22.9891 -5.68942e-06 0)
(22.9904 -7.20868e-06 0)
(22.9917 -9.25572e-06 0)
(22.9928 -4.16167e-06 0)
(22.994 -6.42932e-06 0)
(22.995 -7.95012e-06 0)
(22.996 -9.80346e-06 0)
(22.9968 -2.49963e-06 0)
(22.9976 -4.56458e-06 0)
(22.9984 -5.92776e-06 0)
(22.999 -7.71968e-06 0)
(22.9996 -3.78974e-06 0)
(23.0002 -5.65704e-06 0)
(23.0008 -6.8664e-06 0)
(23.0013 -8.32008e-06 0)
(23.0018 -3.44355e-06 0)
(23.0022 -4.90692e-06 0)
(23.0026 -5.79237e-06 0)
(23.003 -6.94186e-06 0)
(23.0033 -4.82988e-06 0)
(23.0036 -5.83409e-06 0)
(23.0039 -6.35152e-06 0)
(23.0042 -6.98389e-06 0)
(23.0044 -5.9432e-06 0)
(23.0047 -6.26408e-06 0)
(23.0049 -6.19705e-06 0)
(23.0051 -6.16892e-06 0)
(23.0053 -6.68256e-06 0)
(23.0055 -6.10416e-06 0)
(23.0055 -3.74181e-06 0)
(23.0061 -3.06786e-06 0)
(30.6448 0.0459654 0)
(27.813 0.00832441 0)
(26.4558 0.00393288 0)
(25.6941 0.0023875 0)
(25.189 0.00168874 0)
(24.8185 0.0012929 0)
(24.5297 0.00103251 0)
(24.3019 0.000795982 0)
(24.1347 0.00053118 0)
(24.0296 0.000269242 0)
(23.9591 0.000151751 0)
(23.8715 0.000197821 0)
(23.7404 0.000322856 0)
(23.5839 0.000401432 0)
(23.4313 0.000411933 0)
(23.2999 0.000362322 0)
(23.1938 0.000296066 0)
(23.1116 0.000229902 0)
(23.0495 0.000185865 0)
(23.0042 0.000133891 0)
(22.9724 9.04887e-05 0)
(22.9517 5.36063e-05 0)
(22.9398 3.26963e-05 0)
(22.9352 5.57318e-06 0)
(22.9365 -1.69586e-05 0)
(22.9427 -3.63795e-05 0)
(22.9526 -3.79365e-05 0)
(22.9658 -5.34124e-05 0)
(22.9817 -6.63386e-05 0)
(22.9998 -7.81917e-05 0)
(23.0196 -7.8685e-05 0)
(23.041 -8.90085e-05 0)
(23.0638 -9.77088e-05 0)
(23.0876 -0.000105911 0)
(23.1123 -9.91363e-05 0)
(23.1379 -0.000106893 0)
(23.1641 -0.000113296 0)
(23.1908 -0.000119704 0)
(23.2179 -0.00011576 0)
(23.2455 -0.000121948 0)
(23.2734 -0.00012687 0)
(23.3016 -0.000131669 0)
(23.3297 -0.000121907 0)
(23.358 -0.000126491 0)
(23.3861 -0.000129675 0)
(23.4142 -0.000132924 0)
(23.4419 -0.00012588 0)
(23.4694 -0.000128688 0)
(23.4965 -0.000130026 0)
(23.5232 -0.000131166 0)
(23.5491 -0.00011756 0)
(23.5745 -0.00011822 0)
(23.5989 -0.000117374 0)
(23.6226 -0.000116711 0)
(23.6452 -0.000105626 0)
(23.667 -0.000104827 0)
(23.6878 -0.000102762 0)
(23.7075 -0.000100915 0)
(23.7261 -8.42617e-05 0)
(23.7438 -8.28047e-05 0)
(23.7602 -8.02878e-05 0)
(23.7757 -7.85539e-05 0)
(23.79 -6.6764e-05 0)
(23.8035 -6.58477e-05 0)
(23.816 -6.40317e-05 0)
(23.8277 -6.28665e-05 0)
(23.8384 -4.71446e-05 0)
(23.8484 -4.69486e-05 0)
(23.8575 -4.58864e-05 0)
(23.8659 -4.58297e-05 0)
(23.8737 -3.56807e-05 0)
(23.8809 -3.65752e-05 0)
(23.8875 -3.65483e-05 0)
(23.8937 -3.71737e-05 0)
(23.8992 -2.32137e-05 0)
(23.9044 -2.4688e-05 0)
(23.9091 -2.52344e-05 0)
(23.9134 -2.67122e-05 0)
(23.9173 -1.8327e-05 0)
(23.921 -2.05337e-05 0)
(23.9244 -2.17475e-05 0)
(23.9276 -2.35004e-05 0)
(23.9304 -1.12911e-05 0)
(23.9331 -1.36395e-05 0)
(23.9355 -1.50022e-05 0)
(23.9378 -1.71555e-05 0)
(23.9397 -9.89919e-06 0)
(23.9417 -1.25629e-05 0)
(23.9435 -1.42293e-05 0)
(23.9452 -1.63474e-05 0)
(23.9467 -5.53198e-06 0)
(23.9481 -8.10049e-06 0)
(23.9494 -9.71214e-06 0)
(23.9505 -1.20041e-05 0)
(23.9516 -5.97002e-06 0)
(23.9526 -8.60363e-06 0)
(23.9536 -1.02966e-05 0)
(23.9545 -1.23753e-05 0)
(23.9553 -3.7483e-06 0)
(23.9561 -6.11785e-06 0)
(23.9568 -7.61351e-06 0)
(23.9574 -9.65753e-06 0)
(23.9579 -5.026e-06 0)
(23.9585 -7.21656e-06 0)
(23.9591 -8.58185e-06 0)
(23.9596 -1.02337e-05 0)
(23.96 -4.48437e-06 0)
(23.9604 -6.17778e-06 0)
(23.9608 -7.15607e-06 0)
(23.9612 -8.47209e-06 0)
(23.9615 -5.98187e-06 0)
(23.9618 -7.16003e-06 0)
(23.9621 -7.7447e-06 0)
(23.9624 -8.47217e-06 0)
(23.9627 -7.23381e-06 0)
(23.963 -7.59693e-06 0)
(23.9632 -7.50822e-06 0)
(23.9635 -7.45002e-06 0)
(23.9637 -8.04559e-06 0)
(23.9639 -7.25791e-06 0)
(23.9639 -4.81749e-06 0)
(23.9645 -4.01618e-06 0)
(31.9341 0.0470023 0)
(29.2281 0.0125167 0)
(27.7541 0.00607202 0)
(26.9063 0.00366699 0)
(26.3478 0.00256852 0)
(25.9422 0.00195192 0)
(25.6289 0.00154747 0)
(25.3837 0.00118874 0)
(25.202 0.000805002 0)
(25.0778 0.000455665 0)
(24.9743 0.000335784 0)
(24.8379 0.000451246 0)
(24.6515 0.000645876 0)
(24.4446 0.000739601 0)
(24.2522 0.000718163 0)
(24.0909 0.000614925 0)
(23.9632 0.000494526 0)
(23.8651 0.000380833 0)
(23.7914 0.000299231 0)
(23.7378 0.000214966 0)
(23.7001 0.000145729 0)
(23.6751 8.78442e-05 0)
(23.6604 5.11754e-05 0)
(23.6539 1.00586e-05 0)
(23.6541 -2.36376e-05 0)
(23.6597 -5.22252e-05 0)
(23.6694 -5.94694e-05 0)
(23.6828 -8.12963e-05 0)
(23.699 -9.92323e-05 0)
(23.7174 -0.00011538 0)
(23.7377 -0.000118273 0)
(23.7596 -0.000131833 0)
(23.7828 -0.000143072 0)
(23.8071 -0.000153492 0)
(23.8321 -0.000146895 0)
(23.8579 -0.0001564 0)
(23.8842 -0.000164062 0)
(23.9109 -0.000171672 0)
(23.9379 -0.000167582 0)
(23.9653 -0.000174801 0)
(23.9928 -0.000180361 0)
(24.0204 -0.000185694 0)
(24.048 -0.000174609 0)
(24.0755 -0.000179489 0)
(24.1028 -0.000182563 0)
(24.1299 -0.000185713 0)
(24.1566 -0.000177275 0)
(24.183 -0.000179837 0)
(24.209 -0.000180535 0)
(24.2344 -0.00018093 0)
(24.2592 -0.000164714 0)
(24.2833 -0.000164356 0)
(24.3065 -0.000162109 0)
(24.3289 -0.000160118 0)
(24.3503 -0.000146461 0)
(24.3709 -0.000144332 0)
(24.3906 -0.000140645 0)
(24.4093 -0.000137208 0)
(24.4269 -0.000117199 0)
(24.4435 -0.000114164 0)
(24.4591 -0.000109851 0)
(24.4736 -0.000106584 0)
(24.4871 -9.21738e-05 0)
(24.4999 -9.00251e-05 0)
(24.5117 -8.68041e-05 0)
(24.5228 -8.43861e-05 0)
(24.5329 -6.57487e-05 0)
(24.5423 -6.45005e-05 0)
(24.5509 -6.22463e-05 0)
(24.5588 -6.13251e-05 0)
(24.5661 -4.92417e-05 0)
(24.5729 -4.96014e-05 0)
(24.5792 -4.8856e-05 0)
(24.585 -4.89008e-05 0)
(24.5903 -3.26903e-05 0)
(24.5952 -3.37506e-05 0)
(24.5995 -3.37277e-05 0)
(24.6036 -3.49326e-05 0)
(24.6072 -2.5212e-05 0)
(24.6107 -2.74086e-05 0)
(24.6139 -2.84061e-05 0)
(24.617 -3.0042e-05 0)
(24.6197 -1.60986e-05 0)
(24.6222 -1.8422e-05 0)
(24.6244 -1.95772e-05 0)
(24.6265 -2.17596e-05 0)
(24.6284 -1.34936e-05 0)
(24.6302 -1.63722e-05 0)
(24.6319 -1.80453e-05 0)
(24.6335 -2.02473e-05 0)
(24.6349 -8.01719e-06 0)
(24.6363 -1.07356e-05 0)
(24.6374 -1.23135e-05 0)
(24.6385 -1.4765e-05 0)
(24.6395 -7.95813e-06 0)
(24.6405 -1.08784e-05 0)
(24.6414 -1.26596e-05 0)
(24.6423 -1.48915e-05 0)
(24.6431 -5.17913e-06 0)
(24.6438 -7.75261e-06 0)
(24.6444 -9.28577e-06 0)
(24.645 -1.15179e-05 0)
(24.6456 -6.32268e-06 0)
(24.6461 -8.77749e-06 0)
(24.6466 -1.02361e-05 0)
(24.6472 -1.20345e-05 0)
(24.6476 -5.57885e-06 0)
(24.648 -7.43728e-06 0)
(24.6484 -8.44615e-06 0)
(24.6487 -9.88762e-06 0)
(24.6491 -7.09661e-06 0)
(24.6494 -8.4176e-06 0)
(24.6497 -9.03541e-06 0)
(24.65 -9.83904e-06 0)
(24.6503 -8.45572e-06 0)
(24.6506 -8.84726e-06 0)
(24.6509 -8.71619e-06 0)
(24.6511 -8.61853e-06 0)
(24.6513 -9.29355e-06 0)
(24.6516 -8.27362e-06 0)
(24.6516 -5.62467e-06 0)
(24.6523 -4.69525e-06 0)
(32.9265 0.0603838 0)
(30.4693 0.0174575 0)
(28.9194 0.00881952 0)
(27.9898 0.00534595 0)
(27.3755 0.00371696 0)
(26.9323 0.00280438 0)
(26.5929 0.00220806 0)
(26.3284 0.00169331 0)
(26.1299 0.00117212 0)
(25.9828 0.00074267 0)
(25.8419 0.000653924 0)
(25.654 0.000875249 0)
(25.4123 0.00115114 0)
(25.1567 0.00124323 0)
(24.9262 0.00115961 0)
(24.7366 0.00097233 0)
(24.588 0.000772319 0)
(24.4745 0.000591009 0)
(24.3895 0.000456147 0)
(24.3274 0.000327613 0)
(24.2834 0.000223313 0)
(24.2537 0.000137178 0)
(24.2356 7.89702e-05 0)
(24.2266 1.9422e-05 0)
(24.2251 -2.8861e-05 0)
(24.2295 -6.93351e-05 0)
(24.2385 -8.45562e-05 0)
(24.2513 -0.000114328 0)
(24.2672 -0.000138439 0)
(24.2855 -0.000159807 0)
(24.3057 -0.00016591 0)
(24.3276 -0.000183204 0)
(24.3508 -0.00019729 0)
(24.375 -0.000210153 0)
(24.4 -0.000204025 0)
(24.4257 -0.000215271 0)
(24.4518 -0.000224085 0)
(24.4783 -0.000232797 0)
(24.5049 -0.000228552 0)
(24.5319 -0.000236635 0)
(24.5589 -0.000242612 0)
(24.586 -0.000248274 0)
(24.6129 -0.000235801 0)
(24.6397 -0.000240677 0)
(24.6662 -0.000243305 0)
(24.6924 -0.000246078 0)
(24.7182 -0.000236098 0)
(24.7436 -0.000238143 0)
(24.7686 -0.000237908 0)
(24.7931 -0.000237301 0)
(24.8169 -0.00021837 0)
(24.84 -0.000216663 0)
(24.8622 -0.000212661 0)
(24.8836 -0.000209059 0)
(24.9042 -0.000192683 0)
(24.9239 -0.000188953 0)
(24.9427 -0.000183353 0)
(24.9606 -0.000178072 0)
(24.9775 -0.000154604 0)
(24.9935 -0.00014966 0)
(25.0084 -0.000143206 0)
(25.0224 -0.00013814 0)
(25.0354 -0.000120984 0)
(25.0476 -0.000117359 0)
(25.059 -0.000112474 0)
(25.0696 -0.000108586 0)
(25.0794 -8.69735e-05 0)
(25.0884 -8.43993e-05 0)
(25.0967 -8.06777e-05 0)
(25.1043 -7.87046e-05 0)
(25.1113 -6.46432e-05 0)
(25.1179 -6.43066e-05 0)
(25.1239 -6.26631e-05 0)
(25.1295 -6.19867e-05 0)
(25.1346 -4.35421e-05 0)
(25.1393 -4.39952e-05 0)
(25.1435 -4.32097e-05 0)
(25.1474 -4.40319e-05 0)
(25.1509 -3.30028e-05 0)
(25.1542 -3.51034e-05 0)
(25.1573 -3.57803e-05 0)
(25.1602 -3.72274e-05 0)
(25.1628 -2.16232e-05 0)
(25.1653 -2.37943e-05 0)
(25.1674 -2.46098e-05 0)
(25.1694 -2.67578e-05 0)
(25.1712 -1.754e-05 0)
(25.1729 -2.05831e-05 0)
(25.1745 -2.21951e-05 0)
(25.1761 -2.44418e-05 0)
(25.1775 -1.0893e-05 0)
(25.1788 -1.36737e-05 0)
(25.1799 -1.51238e-05 0)
(25.1809 -1.7697e-05 0)
(25.1819 -1.01824e-05 0)
(25.1828 -1.33567e-05 0)
(25.1837 -1.51765e-05 0)
(25.1846 -1.75362e-05 0)
(25.1853 -6.82517e-06 0)
(25.186 -9.54227e-06 0)
(25.1866 -1.10468e-05 0)
(25.1872 -1.34443e-05 0)
(25.1877 -7.74302e-06 0)
(25.1883 -1.04416e-05 0)
(25.1888 -1.19596e-05 0)
(25.1893 -1.38888e-05 0)
(25.1897 -6.78795e-06 0)
(25.1902 -8.77557e-06 0)
(25.1906 -9.77585e-06 0)
(25.1909 -1.13284e-05 0)
(25.1912 -8.26633e-06 0)
(25.1916 -9.72047e-06 0)
(25.1919 -1.03631e-05 0)
(25.1922 -1.12405e-05 0)
(25.1925 -9.71523e-06 0)
(25.1928 -1.01299e-05 0)
(25.1931 -9.9675e-06 0)
(25.1934 -9.82298e-06 0)
(25.1936 -1.05613e-05 0)
(25.1939 -9.28221e-06 0)
(25.1939 -6.82135e-06 0)
(25.1947 -5.82896e-06 0)
(33.6708 0.0694926 0)
(31.5722 0.0227139 0)
(30.0006 0.0122589 0)
(28.9991 0.00752654 0)
(28.328 0.00521254 0)
(27.8446 0.00390802 0)
(27.4765 0.0030579 0)
(27.1906 0.00234515 0)
(26.9725 0.00166687 0)
(26.7993 0.00117082 0)
(26.6191 0.00115606 0)
(26.3803 0.00152443 0)
(26.0859 0.00189038 0)
(25.7848 0.00195641 0)
(25.5183 0.00177184 0)
(25.3016 0.00146237 0)
(25.1327 0.00115103 0)
(25.0039 0.000877116 0)
(24.9073 0.000669615 0)
(24.8364 0.000481893 0)
(24.7855 0.000331 0)
(24.7507 0.000207538 0)
(24.7285 0.000120624 0)
(24.7165 3.70323e-05 0)
(24.7125 -3.02066e-05 0)
(24.7151 -8.60613e-05 0)
(24.7227 -0.000112082 0)
(24.7345 -0.000151908 0)
(24.7496 -0.00018378 0)
(24.7672 -0.00021164 0)
(24.7869 -0.000221985 0)
(24.8084 -0.000243749 0)
(24.8312 -0.000261183 0)
(24.8551 -0.000276881 0)
(24.8797 -0.000271561 0)
(24.905 -0.000284653 0)
(24.9308 -0.000294603 0)
(24.9568 -0.000304399 0)
(24.983 -0.000299995 0)
(25.0094 -0.000308838 0)
(25.0359 -0.000315062 0)
(25.0624 -0.000320897 0)
(25.0887 -0.000306928 0)
(25.1148 -0.000311537 0)
(25.1406 -0.000313414 0)
(25.166 -0.000315567 0)
(25.1911 -0.000303865 0)
(25.2158 -0.000305152 0)
(25.24 -0.000303715 0)
(25.2637 -0.000301876 0)
(25.2867 -0.000280054 0)
(25.3091 -0.000276679 0)
(25.3306 -0.000270571 0)
(25.3514 -0.000265077 0)
(25.3713 -0.000245764 0)
(25.3905 -0.000240155 0)
(25.4087 -0.000232332 0)
(25.4262 -0.000224933 0)
(25.4427 -0.000197787 0)
(25.4582 -0.000190571 0)
(25.4728 -0.000181587 0)
(25.4864 -0.000174417 0)
(25.4991 -0.000154283 0)
(25.5111 -0.000148901 0)
(25.5222 -0.000142047 0)
(25.5326 -0.000136433 0)
(25.5422 -0.000111655 0)
(25.5511 -0.000107443 0)
(25.5592 -0.000101934 0)
(25.5667 -9.8688e-05 0)
(25.5736 -8.25083e-05 0)
(25.58 -8.12907e-05 0)
(25.586 -7.85421e-05 0)
(25.5915 -7.6984e-05 0)
(25.5965 -5.62107e-05 0)
(25.6011 -5.58466e-05 0)
(25.6052 -5.40831e-05 0)
(25.609 -5.44016e-05 0)
(25.6124 -4.20184e-05 0)
(25.6157 -4.39356e-05 0)
(25.6187 -4.41812e-05 0)
(25.6216 -4.53679e-05 0)
(25.6242 -2.80894e-05 0)
(25.6265 -2.99818e-05 0)
(25.6286 -3.03201e-05 0)
(25.6306 -3.23736e-05 0)
(25.6323 -2.22068e-05 0)
(25.634 -2.5373e-05 0)
(25.6356 -2.68602e-05 0)
(25.6371 -2.91217e-05 0)
(25.6385 -1.42792e-05 0)
(25.6398 -1.70431e-05 0)
(25.6409 -1.82736e-05 0)
(25.6419 -2.09405e-05 0)
(25.6428 -1.27407e-05 0)
(25.6437 -1.61496e-05 0)
(25.6446 -1.79661e-05 0)
(25.6455 -2.04397e-05 0)
(25.6462 -8.76318e-06 0)
(25.6469 -1.15737e-05 0)
(25.6475 -1.2988e-05 0)
(25.6481 -1.55385e-05 0)
(25.6486 -9.35867e-06 0)
(25.6491 -1.22924e-05 0)
(25.6497 -1.3842e-05 0)
(25.6502 -1.58953e-05 0)
(25.6506 -8.18001e-06 0)
(25.651 -1.02679e-05 0)
(25.6514 -1.12212e-05 0)
(25.6518 -1.28756e-05 0)
(25.6521 -9.56204e-06 0)
(25.6524 -1.11439e-05 0)
(25.6528 -1.17972e-05 0)
(25.6531 -1.2743e-05 0)
(25.6534 -1.1104e-05 0)
(25.6537 -1.15306e-05 0)
(25.654 -1.13262e-05 0)
(25.6543 -1.11115e-05 0)
(25.6546 -1.19426e-05 0)
(25.6549 -1.03284e-05 0)
(25.6549 -8.10717e-06 0)
(25.6557 -6.52139e-06 0)
(34.1946 0.0755468 0)
(32.541 0.0282447 0)
(31.018 0.0164387 0)
(29.9636 0.0103182 0)
(29.2377 0.00715075 0)
(28.7121 0.00533649 0)
(28.3127 0.00415388 0)
(28.0027 0.00319103 0)
(27.7624 0.00233358 0)
(27.561 0.00178925 0)
(27.3416 0.00189893 0)
(27.0549 0.00245967 0)
(26.7122 0.00292257 0)
(26.3688 0.00293162 0)
(26.0683 0.00259881 0)
(25.8252 0.00212052 0)
(25.6359 0.00165875 0)
(25.4915 0.00126124 0)
(25.3827 0.00095702 0)
(25.3022 0.000691431 0)
(25.2439 0.000479461 0)
(25.2031 0.000307233 0)
(25.1761 0.000182592 0)
(25.1603 6.7815e-05 0)
(25.1533 -2.39783e-05 0)
(25.1534 -9.97267e-05 0)
(25.159 -0.000140143 0)
(25.1692 -0.000192819 0)
(25.1829 -0.000234586 0)
(25.1994 -0.000270676 0)
(25.2182 -0.000286635 0)
(25.2389 -0.000313928 0)
(25.2609 -0.000335468 0)
(25.2842 -0.000354618 0)
(25.3082 -0.000350571 0)
(25.333 -0.000365774 0)
(25.3582 -0.000376958 0)
(25.3836 -0.000387931 0)
(25.4093 -0.000383414 0)
(25.4351 -0.000392998 0)
(25.461 -0.00039936 0)
(25.4869 -0.00040528 0)
(25.5126 -0.000389702 0)
(25.5381 -0.000393834 0)
(25.5633 -0.000394682 0)
(25.5881 -0.000396009 0)
(25.6126 -0.000382398 0)
(25.6366 -0.000382723 0)
(25.6602 -0.000379831 0)
(25.6834 -0.000376556 0)
(25.7059 -0.000351631 0)
(25.7278 -0.000346284 0)
(25.7489 -0.000337707 0)
(25.7692 -0.000330036 0)
(25.7888 -0.000307516 0)
(25.8076 -0.000299734 0)
(25.8256 -0.000289342 0)
(25.8427 -0.000279524 0)
(25.859 -0.000248384 0)
(25.8744 -0.000238491 0)
(25.8888 -0.000226519 0)
(25.9024 -0.000216883 0)
(25.915 -0.000193438 0)
(25.9269 -0.000185962 0)
(25.938 -0.000176763 0)
(25.9484 -0.000169111 0)
(25.958 -0.000140862 0)
(25.9669 -0.000134645 0)
(25.975 -0.000126956 0)
(25.9824 -0.000122161 0)
(25.9893 -0.000103631 0)
(25.9957 -0.000101305 0)
(26.0017 -9.71899e-05 0)
(26.0072 -9.4555e-05 0)
(26.0122 -7.1267e-05 0)
(26.0168 -6.98453e-05 0)
(26.0209 -6.68417e-05 0)
(26.0247 -6.65076e-05 0)
(26.0281 -5.26618e-05 0)
(26.0314 -5.42923e-05 0)
(26.0344 -5.39685e-05 0)
(26.0373 -5.48141e-05 0)
(26.0399 -3.57833e-05 0)
(26.0422 -3.72633e-05 0)
(26.0443 -3.69627e-05 0)
(26.0463 -3.8854e-05 0)
(26.048 -2.76979e-05 0)
(26.0497 -3.09463e-05 0)
(26.0513 -3.22324e-05 0)
(26.0528 -3.44825e-05 0)
(26.0542 -1.83229e-05 0)
(26.0554 -2.09943e-05 0)
(26.0565 -2.19013e-05 0)
(26.0575 -2.46356e-05 0)
(26.0585 -1.57427e-05 0)
(26.0594 -1.93735e-05 0)
(26.0603 -2.11394e-05 0)
(26.0611 -2.37212e-05 0)
(26.0619 -1.1076e-05 0)
(26.0626 -1.39371e-05 0)
(26.0632 -1.51932e-05 0)
(26.0638 -1.78895e-05 0)
(26.0643 -1.12365e-05 0)
(26.0648 -1.44047e-05 0)
(26.0654 -1.59564e-05 0)
(26.0659 -1.81357e-05 0)
(26.0663 -9.81017e-06 0)
(26.0668 -1.19766e-05 0)
(26.0672 -1.28422e-05 0)
(26.0675 -1.45947e-05 0)
(26.0679 -1.10328e-05 0)
(26.0682 -1.27436e-05 0)
(26.0685 -1.3395e-05 0)
(26.0689 -1.44144e-05 0)
(26.0692 -1.26625e-05 0)
(26.0695 -1.30993e-05 0)
(26.0698 -1.28472e-05 0)
(26.0702 -1.25528e-05 0)
(26.0704 -1.34732e-05 0)
(26.0707 -1.14859e-05 0)
(26.0708 -9.62665e-06 0)
(26.0716 -7.52481e-06 0)
(34.5334 0.0801577 0)
(33.3601 0.0337961 0)
(31.9721 0.0213157 0)
(30.8973 0.0138191 0)
(30.1239 0.00964119 0)
(29.5559 0.00718119 0)
(29.123 0.0055691 0)
(28.7864 0.00429165 0)
(28.5212 0.00322824 0)
(28.2906 0.0026561 0)
(28.0337 0.00294624 0)
(27.7039 0.00374904 0)
(27.318 0.00431614 0)
(26.9358 0.0042327 0)
(26.6027 0.0036961 0)
(26.3333 0.00299285 0)
(26.123 0.00233265 0)
(25.962 0.00177302 0)
(25.8401 0.00134193 0)
(25.7491 0.000974913 0)
(25.6822 0.000683499 0)
(25.6345 0.000447955 0)
(25.6019 0.000274093 0)
(25.5815 0.000118957 0)
(25.5707 -4.636e-06 0)
(25.5676 -0.000106146 0)
(25.5706 -0.000165626 0)
(25.5786 -0.000234873 0)
(25.5904 -0.000289421 0)
(25.6054 -0.000336107 0)
(25.6228 -0.000359546 0)
(25.6422 -0.000393864 0)
(25.6633 -0.000420627 0)
(25.6856 -0.000444154 0)
(25.7088 -0.000442063 0)
(25.7328 -0.000459858 0)
(25.7572 -0.000472552 0)
(25.782 -0.000484943 0)
(25.807 -0.000480461 0)
(25.8322 -0.000490878 0)
(25.8575 -0.00049736 0)
(25.8828 -0.00050336 0)
(25.9079 -0.000486097 0)
(25.9329 -0.000489608 0)
(25.9575 -0.000489195 0)
(25.9818 -0.000489536 0)
(26.0057 -0.000473841 0)
(26.0293 -0.000473039 0)
(26.0525 -0.000468467 0)
(26.0752 -0.000463583 0)
(26.0974 -0.000435326 0)
(26.119 -0.000427723 0)
(26.1398 -0.000416311 0)
(26.1599 -0.000406172 0)
(26.1793 -0.000380134 0)
(26.1979 -0.000369869 0)
(26.2158 -0.000356525 0)
(26.233 -0.00034395 0)
(26.2493 -0.000308415 0)
(26.2647 -0.000295385 0)
(26.2792 -0.000279897 0)
(26.2927 -0.000267357 0)
(26.3055 -0.000240163 0)
(26.3175 -0.00023018 0)
(26.3287 -0.000218177 0)
(26.3392 -0.000208098 0)
(26.3489 -0.000175952 0)
(26.3579 -0.000167286 0)
(26.3662 -0.000156938 0)
(26.3738 -0.000150239 0)
(26.3807 -0.000129024 0)
(26.3873 -0.0001253 0)
(26.3933 -0.000119491 0)
(26.3989 -0.000115529 0)
(26.404 -8.94469e-05 0)
(26.4087 -8.66787e-05 0)
(26.4129 -8.21175e-05 0)
(26.4167 -8.09363e-05 0)
(26.4203 -6.54515e-05 0)
(26.4236 -6.66617e-05 0)
(26.4266 -6.55971e-05 0)
(26.4295 -6.59972e-05 0)
(26.4322 -4.50761e-05 0)
(26.4346 -4.59905e-05 0)
(26.4367 -4.48622e-05 0)
(26.4386 -4.65042e-05 0)
(26.4404 -3.42761e-05 0)
(26.4421 -3.75559e-05 0)
(26.4437 -3.85512e-05 0)
(26.4453 -4.07573e-05 0)
(26.4467 -2.32158e-05 0)
(26.448 -2.57147e-05 0)
(26.4491 -2.61817e-05 0)
(26.4501 -2.89509e-05 0)
(26.451 -1.93295e-05 0)
(26.452 -2.31694e-05 0)
(26.4529 -2.48332e-05 0)
(26.4537 -2.75183e-05 0)
(26.4545 -1.38722e-05 0)
(26.4552 -1.67419e-05 0)
(26.4558 -1.77666e-05 0)
(26.4564 -2.06007e-05 0)
(26.4569 -1.34617e-05 0)
(26.4575 -1.68668e-05 0)
(26.458 -1.83909e-05 0)
(26.4585 -2.07005e-05 0)
(26.459 -1.17502e-05 0)
(26.4595 -1.39755e-05 0)
(26.4599 -1.47115e-05 0)
(26.4602 -1.65581e-05 0)
(26.4606 -1.27412e-05 0)
(26.461 -1.4583e-05 0)
(26.4613 -1.52235e-05 0)
(26.4617 -1.63201e-05 0)
(26.462 -1.44494e-05 0)
(26.4623 -1.48923e-05 0)
(26.4626 -1.45946e-05 0)
(26.463 -1.42041e-05 0)
(26.4632 -1.5215e-05 0)
(26.4636 -1.27957e-05 0)
(26.4637 -1.15905e-05 0)
(26.4644 -8.82493e-06 0)
(34.7383 0.0835315 0)
(34.0043 0.0389295 0)
(32.8454 0.026699 0)
(31.8004 0.0180785 0)
(30.9962 0.0127961 0)
(30.3893 0.00955035 0)
(29.9222 0.00739516 0)
(29.5568 0.00572462 0)
(29.2646 0.00442066 0)
(29.0044 0.00383939 0)
(28.7133 0.00436867 0)
(28.3462 0.00546837 0)
(27.9229 0.00615078 0)
(27.5053 0.0059377 0)
(27.1407 0.00513435 0)
(26.8444 0.00413947 0)
(26.6121 0.00322217 0)
(26.4331 0.00245239 0)
(26.2966 0.00185644 0)
(26.1937 0.00135807 0)
(26.1171 0.000963735 0)
(26.0613 0.000646199 0)
(26.0221 0.000408298 0)
(25.9961 0.000200908 0)
(25.9806 3.60678e-05 0)
(25.9735 -9.88972e-05 0)
(25.9732 -0.000183609 0)
(25.9783 -0.000274401 0)
(25.9878 -0.000345645 0)
(26.0006 -0.000406158 0)
(26.0162 -0.000439648 0)
(26.0341 -0.000483097 0)
(26.0537 -0.000516697 0)
(26.0748 -0.000545955 0)
(26.0969 -0.000546852 0)
(26.1199 -0.000568032 0)
(26.1435 -0.000582752 0)
(26.1674 -0.000597023 0)
(26.1917 -0.000592891 0)
(26.2162 -0.000604397 0)
(26.2408 -0.000611103 0)
(26.2654 -0.000617302 0)
(26.29 -0.000598368 0)
(26.3144 -0.000601208 0)
(26.3385 -0.000599368 0)
(26.3624 -0.000598628 0)
(26.3859 -0.000580718 0)
(26.4091 -0.000578678 0)
(26.4319 -0.000572237 0)
(26.4543 -0.000565615 0)
(26.4763 -0.000533822 0)
(26.4977 -0.000523708 0)
(26.5184 -0.000509096 0)
(26.5384 -0.000496198 0)
(26.5578 -0.000466307 0)
(26.5765 -0.000453231 0)
(26.5945 -0.000436511 0)
(26.6117 -0.000420803 0)
(26.6282 -0.000380408 0)
(26.6438 -0.000363723 0)
(26.6585 -0.000344095 0)
(26.6723 -0.000328126 0)
(26.6853 -0.000296635 0)
(26.6975 -0.000283637 0)
(26.709 -0.000268255 0)
(26.7198 -0.000255259 0)
(26.7298 -0.000218678 0)
(26.739 -0.00020702 0)
(26.7475 -0.000193412 0)
(26.7553 -0.00018435 0)
(26.7625 -0.000160005 0)
(26.7692 -0.000154503 0)
(26.7755 -0.000146574 0)
(26.7812 -0.000140956 0)
(26.7865 -0.000111717 0)
(26.7914 -0.000107246 0)
(26.7957 -0.000100725 0)
(26.7996 -9.84354e-05 0)
(26.8033 -8.10641e-05 0)
(26.8067 -8.16719e-05 0)
(26.8099 -7.96377e-05 0)
(26.8128 -7.94507e-05 0)
(26.8155 -5.64563e-05 0)
(26.818 -5.66221e-05 0)
(26.8202 -5.44298e-05 0)
(26.8222 -5.57027e-05 0)
(26.8241 -4.22816e-05 0)
(26.8258 -4.55214e-05 0)
(26.8275 -4.61052e-05 0)
(26.829 -4.82206e-05 0)
(26.8305 -2.92104e-05 0)
(26.8318 -3.14461e-05 0)
(26.8329 -3.13298e-05 0)
(26.834 -3.40865e-05 0)
(26.835 -2.36799e-05 0)
(26.8359 -2.77092e-05 0)
(26.8368 -2.9202e-05 0)
(26.8377 -3.19817e-05 0)
(26.8385 -1.72913e-05 0)