/*--------------------------------*- C++ -*----------------------------------*\
  =========                 |
  \\      /  F ield         | OpenFOAM: The Open Source CFD Toolbox
   \\    /   O peration     | Website:  https://openfoam.org
    \\  /    A nd           | Version:  7
     \\/     M anipulation  |
\*---------------------------------------------------------------------------*/
FoamFile
{
    version     2.0;
    format      ascii;
    class       volScalarField;
    location    "500";
    object      k;
}
// * * * * * * * * * * * * * * * * * * * * * * * * * * * * * * * * * * * * * //

dimensions      [0 2 -2 0 0 0 0];

internalField   nonuniform List<scalar> 
32100
(
1.72968e+08
1.72269e+08
1.70926e+08
1.68893e+08
1.6641e+08
1.63691e+08
1.60973e+08
1.58517e+08
1.56588e+08
1.55414e+08
1.5515e+08
1.55805e+08
1.57098e+08
1.58268e+08
1.58174e+08
1.685e+08
1.67993e+08
1.66908e+08
1.65321e+08
1.63389e+08
1.61284e+08
1.59192e+08
1.57314e+08
1.55843e+08
1.54929e+08
1.54656e+08
1.54992e+08
1.55691e+08
1.56263e+08
1.5619e+08
1.64958e+08
1.64568e+08
1.63707e+08
1.62464e+08
1.60965e+08
1.5934e+08
1.57732e+08
1.56287e+08
1.55141e+08
1.54395e+08
1.54097e+08
1.54196e+08
1.54543e+08
1.54823e+08
1.54751e+08
1.62206e+08
1.61887e+08
1.61181e+08
1.60238e+08
1.59077e+08
1.57815e+08
1.56563e+08
1.55429e+08
1.54512e+08
1.53881e+08
1.53554e+08
1.53521e+08
1.53658e+08
1.5378e+08
1.53709e+08
1.60081e+08
1.59824e+08
1.59271e+08
1.58533e+08
1.57625e+08
1.56637e+08
1.5565e+08
1.54745e+08
1.53991e+08
1.53433e+08
1.53108e+08
1.52997e+08
1.53003e+08
1.53031e+08
1.52962e+08
1.58469e+08
1.58229e+08
1.57688e+08
1.57236e+08
1.56536e+08
1.55757e+08
1.54969e+08
1.54233e+08
1.53597e+08
1.53104e+08
1.52789e+08
1.52616e+08
1.52537e+08
1.52507e+08
1.52437e+08
1.57314e+08
1.57113e+08
1.56794e+08
1.56345e+08
1.55756e+08
1.55135e+08
1.545e+08
1.53892e+08
1.53347e+08
1.52906e+08
1.52584e+08
1.52365e+08
1.52232e+08
1.5217e+08
1.521e+08
1.5655e+08
1.56358e+08
1.56135e+08
1.55699e+08
1.55237e+08
1.54747e+08
1.54232e+08
1.53718e+08
1.53247e+08
1.52843e+08
1.52504e+08
1.5224e+08
1.52065e+08
1.51994e+08
1.51929e+08
1.56134e+08
1.55957e+08
1.55702e+08
1.55334e+08
1.54946e+08
1.54573e+08
1.54156e+08
1.53716e+08
1.53304e+08
1.52926e+08
1.52555e+08
1.52227e+08
1.52018e+08
1.5192e+08
1.51867e+08
1.56106e+08
1.55875e+08
1.55528e+08
1.55144e+08
1.54847e+08
1.54608e+08
1.54272e+08
1.53883e+08
1.53523e+08
1.53169e+08
1.52754e+08
1.5235e+08
1.5208e+08
1.51924e+08
1.51879e+08
1.56568e+08
1.56036e+08
1.55528e+08
1.55159e+08
1.54905e+08
1.54853e+08
1.54555e+08
1.54212e+08
1.53928e+08
1.53621e+08
1.53179e+08
1.52578e+08
1.52429e+08
1.52251e+08
1.52209e+08
1.57178e+08
1.57458e+08
1.59568e+08
1.58353e+08
1.55328e+08
1.55496e+08
1.55165e+08
1.54756e+08
1.54651e+08
1.54769e+08
1.54565e+08
1.53014e+08
1.53272e+08
1.53661e+08
1.5362e+08
1.57729e+08
1.64465e+08
1.91909e+08
1.67118e+08
1.58801e+08
1.57624e+08
1.57677e+08
1.56104e+08
1.56461e+08
1.62971e+08
1.9152e+08
1.88551e+08
1.59963e+08
1.69524e+08
1.6949e+08
1.89599e+08
3.12781e+08
3.85729e+08
3.47076e+08
2.85775e+08
1.7939e+08
1.92442e+08
1.71159e+08
1.68322e+08
1.96533e+08
2.88616e+08
2.92501e+08
1.76858e+08
2.70459e+08
2.70426e+08
5.04078e+08
5.31886e+08
5.3072e+08
5.22795e+08
4.78479e+08
4.41051e+08
4.06355e+08
3.93639e+08
3.92073e+08
3.45376e+08
3.87372e+08
4.01981e+08
3.74857e+08
3.50941e+08
3.50915e+08
6.24794e+08
6.68803e+08
6.66039e+08
6.47916e+08
6.12242e+08
5.52676e+08
5.24313e+08
5.04986e+08
4.9088e+08
4.42986e+08
4.40549e+08
4.43949e+08
4.39751e+08
4.12686e+08
4.12662e+08
6.94679e+08
7.15986e+08
7.04504e+08
6.87851e+08
6.46019e+08
6.03328e+08
5.73243e+08
5.62483e+08
5.39056e+08
4.97876e+08
4.76525e+08
4.79071e+08
4.74883e+08
4.54315e+08
4.54292e+08
7.46773e+08
7.54109e+08
7.4037e+08
7.22983e+08
6.82739e+08
6.4145e+08
6.01347e+08
5.82612e+08
5.6678e+08
5.37474e+08
5.05083e+08
5.03989e+08
5.03265e+08
4.87735e+08
4.87713e+08
7.94151e+08
7.95418e+08
7.92627e+08
7.72669e+08
7.32936e+08
6.89256e+08
6.45764e+08
6.05273e+08
5.92698e+08
5.67826e+08
5.36074e+08
5.35127e+08
5.34595e+08
5.25677e+08
5.25654e+08
8.46433e+08
8.46245e+08
8.62572e+08
8.51183e+08
7.99016e+08
7.53634e+08
7.11203e+08
6.65238e+08
6.37181e+08
6.06978e+08
5.74495e+08
5.80036e+08
5.78989e+08
5.65571e+08
5.65547e+08
9.20554e+08
9.26371e+08
9.6296e+08
9.50342e+08
8.87954e+08
8.4209e+08
8.10772e+08
7.64172e+08
7.13075e+08
6.69046e+08
6.19661e+08
6.13336e+08
6.14003e+08
6.09841e+08
6.09817e+08
1.02029e+09
1.03653e+09
1.07846e+09
1.0652e+09
1.00268e+09
9.45623e+08
9.50661e+08
9.1522e+08
8.30567e+08
7.643e+08
6.86046e+08
6.6646e+08
6.69492e+08
6.64447e+08
6.64421e+08
1.15589e+09
1.17969e+09
1.22359e+09
1.21447e+09
1.14921e+09
1.07816e+09
1.11835e+09
1.09191e+09
9.89908e+08
9.01702e+08
7.8455e+08
7.54864e+08
7.58845e+08
7.3596e+08
7.35933e+08
1.32857e+09
1.35721e+09
1.39197e+09
1.39668e+09
1.33681e+09
1.26597e+09
1.3014e+09
1.29377e+09
1.18371e+09
1.07035e+09
9.24369e+08
8.79233e+08
8.81549e+08
8.3018e+08
8.30151e+08
1.54339e+09
1.55952e+09
1.58556e+09
1.60989e+09
1.55453e+09
1.47736e+09
1.49474e+09
1.49924e+09
1.40742e+09
1.26134e+09
1.08899e+09
1.04143e+09
1.03219e+09
9.52332e+08
9.523e+08
1.8117e+09
1.81257e+09
1.83847e+09
1.87451e+09
1.81001e+09
1.71122e+09
1.69469e+09
1.68498e+09
1.63906e+09
1.47967e+09
1.27187e+09
1.23529e+09
1.20471e+09
1.10525e+09
1.10522e+09
2.1111e+09
2.10586e+09
2.13076e+09
2.16824e+09
2.09671e+09
1.97176e+09
1.92327e+09
1.88551e+09
1.87057e+09
1.71269e+09
1.45758e+09
1.4178e+09
1.39179e+09
1.2924e+09
1.29236e+09
2.43195e+09
2.41309e+09
2.42998e+09
2.45325e+09
2.40852e+09
2.27032e+09
2.19353e+09
2.11674e+09
2.09198e+09
1.99133e+09
1.65781e+09
1.60716e+09
1.59201e+09
1.5345e+09
1.53445e+09
2.81419e+09
2.73208e+09
2.72171e+09
2.73789e+09
2.74485e+09
2.62732e+09
2.52246e+09
2.39093e+09
2.3474e+09
2.28412e+09
1.93571e+09
1.86618e+09
1.85283e+09
1.86959e+09
1.86953e+09
3.35863e+09
3.18688e+09
3.09941e+09
3.11396e+09
3.18149e+09
3.09713e+09
2.97218e+09
2.76948e+09
2.72874e+09
2.70927e+09
2.31592e+09
2.16997e+09
2.16653e+09
2.30974e+09
2.30966e+09
4.22201e+09
4.01117e+09
3.79462e+09
3.64736e+09
3.72659e+09
3.67502e+09
3.54093e+09
3.32265e+09
3.28151e+09
3.29094e+09
2.83724e+09
2.52542e+09
2.55462e+09
2.88628e+09
2.88617e+09
5.44763e+09
5.38631e+09
5.35675e+09
4.36863e+09
4.4426e+09
4.37909e+09
4.20119e+09
4.14135e+09
4.12671e+09
4.02758e+09
3.52432e+09
3.07082e+09
3.19032e+09
3.66083e+09
3.66067e+09
6.79234e+09
6.8134e+09
6.85334e+09
5.52003e+09
5.42024e+09
5.21821e+09
4.93578e+09
5.06795e+09
5.09583e+09
4.90424e+09
4.40163e+09
4.07512e+09
4.19853e+09
4.6383e+09
4.6381e+09
8.14611e+09
7.72715e+09
7.71077e+09
7.22868e+09
6.65879e+09
6.20028e+09
5.73042e+09
6.21958e+09
6.27253e+09
6.01603e+09
5.53665e+09
5.3997e+09
5.4519e+09
5.81467e+09
5.81441e+09
9.7592e+09
9.09177e+09
8.90502e+09
9.27491e+09
8.23579e+09
7.37101e+09
6.76626e+09
7.60702e+09
7.61006e+09
7.40012e+09
6.96073e+09
6.88608e+09
6.89248e+09
7.19203e+09
7.1917e+09
1.16637e+10
1.14279e+10
1.14184e+10
1.15902e+10
1.02434e+10
8.87153e+09
8.61536e+09
9.04512e+09
9.03876e+09
8.92417e+09
8.68391e+09
8.54739e+09
8.51721e+09
8.779e+09
8.77858e+09
1.35349e+10
1.35495e+10
1.35314e+10
1.3138e+10
1.23704e+10
1.09267e+10
1.05364e+10
1.05847e+10
1.07605e+10
1.06512e+10
1.06367e+10
1.03325e+10
1.032e+10
1.05955e+10
1.0595e+10
1.52303e+10
1.54517e+10
1.55164e+10
1.44613e+10
1.42334e+10
1.38682e+10
1.27514e+10
1.23071e+10
1.31488e+10
1.3006e+10
1.31471e+10
1.24093e+10
1.24184e+10
1.26813e+10
1.26806e+10
1.66707e+10
1.62815e+10
1.6262e+10
1.59127e+10
1.69425e+10
1.89351e+10
1.66951e+10
1.45218e+10
1.69033e+10
1.69072e+10
1.68516e+10
1.51205e+10
1.49903e+10
1.50469e+10
1.50461e+10
1.87358e+10
1.73936e+10
1.71446e+10
1.76707e+10
2.37835e+10
2.65599e+10
2.41906e+10
1.81965e+10
2.20098e+10
2.2281e+10
2.15479e+10
1.87475e+10
1.79604e+10
1.75789e+10
1.75779e+10
2.34313e+10
2.08246e+10
2.00911e+10
2.33587e+10
3.41278e+10
3.71749e+10
3.45625e+10
2.63707e+10
2.76481e+10
2.82234e+10
2.73118e+10
2.36125e+10
2.09283e+10
1.99367e+10
1.99356e+10
3.29681e+10
2.95774e+10
2.72804e+10
3.57377e+10
4.64679e+10
5.0009e+10
4.78928e+10
3.52461e+10
3.16488e+10
3.39968e+10
3.51999e+10
3.1233e+10
2.27225e+10
2.15013e+10
2.15002e+10
4.67817e+10
4.42418e+10
4.29087e+10
5.2264e+10
6.00984e+10
6.48351e+10
6.42386e+10
5.82021e+10
3.50732e+10
4.08708e+10
4.6988e+10
4.33255e+10
2.61161e+10
2.27424e+10
2.27413e+10
6.26385e+10
6.18426e+10
6.23227e+10
6.78656e+10
7.47434e+10
8.06801e+10
8.11656e+10
7.75203e+10
6.96677e+10
4.98608e+10
5.11933e+10
5.12773e+10
3.36384e+10
2.40407e+10
2.40398e+10
7.85534e+10
7.8884e+10
7.92525e+10
8.25801e+10
8.89756e+10
9.59973e+10
9.86171e+10
1.04886e+11
9.35517e+10
8.66489e+10
5.615e+10
6.80997e+10
6.3938e+10
2.49189e+10
2.49182e+10
9.08448e+10
9.21484e+10
9.41752e+10
9.62035e+10
1.01753e+11
1.08746e+11
1.13214e+11
1.22946e+11
1.22706e+11
1.16533e+11
1.1308e+11
1.06845e+11
1.00847e+11
8.80509e+10
8.80472e+10
1.00487e+11
1.0239e+11
1.03319e+11
1.0559e+11
1.12505e+11
1.18302e+11
1.23417e+11
1.34838e+11
1.44923e+11
1.45255e+11
1.36926e+11
1.34222e+11
1.30066e+11
1.24116e+11
1.2411e+11
1.09086e+11
1.10836e+11
1.11287e+11
1.13742e+11
1.22407e+11
1.27911e+11
1.33241e+11
1.4318e+11
1.49925e+11
1.53884e+11
1.48781e+11
1.46583e+11
1.44955e+11
1.43182e+11
1.43174e+11
1.16899e+11
1.19431e+11
1.22055e+11
1.2365e+11
1.34118e+11
1.4007e+11
1.43535e+11
1.49312e+11
1.54526e+11
1.55313e+11
1.55051e+11
1.52815e+11
1.51675e+11
1.51401e+11
1.51384e+11
1.24296e+11
1.27676e+11
1.30105e+11
1.32164e+11
1.45806e+11
1.51066e+11
1.53545e+11
1.55165e+11
1.56691e+11
1.57317e+11
1.56636e+11
1.55563e+11
1.54704e+11
1.54661e+11
1.54624e+11
1.30597e+11
1.33268e+11
1.33781e+11
1.37512e+11
1.55354e+11
1.58944e+11
1.58473e+11
1.57347e+11
1.57296e+11
1.57344e+11
1.57333e+11
1.56806e+11
1.56129e+11
1.56114e+11
1.56027e+11
1.3703e+11
1.3773e+11
1.36591e+11
1.50273e+11
1.63827e+11
1.66046e+11
1.6275e+11
1.5905e+11
1.57432e+11
1.57393e+11
1.57384e+11
1.57214e+11
1.56803e+11
1.56794e+11
1.56523e+11
1.46045e+11
1.4789e+11
1.48984e+11
1.61992e+11
1.71721e+11
1.70805e+11
1.66544e+11
1.60867e+11
1.5781e+11
1.57512e+11
1.57504e+11
1.57461e+11
1.57215e+11
1.57207e+11
1.56299e+11
1.54731e+11
1.56404e+11
1.5877e+11
1.71627e+11
1.74924e+11
1.75589e+11
1.73602e+11
1.63075e+11
1.58612e+11
1.57925e+11
1.57917e+11
1.5792e+11
1.57641e+11
1.57633e+11
1.55494e+11
1.61367e+11
1.6275e+11
1.66138e+11
1.75074e+11
1.78492e+11
1.8113e+11
1.85174e+11
1.70841e+11
1.61964e+11
1.58567e+11
1.5856e+11
1.59045e+11
1.58394e+11
1.58581e+11
1.57865e+11
1.67641e+11
1.69867e+11
1.73561e+11
1.80224e+11
1.85406e+11
1.86523e+11
1.87145e+11
1.8583e+11
1.80405e+11
1.58962e+11
1.6328e+11
1.64452e+11
1.60312e+11
2.68386e+11
2.68349e+11
1.74342e+11
1.77131e+11
1.81141e+11
1.86793e+11
1.934e+11
1.94077e+11
1.9e+11
2.03042e+11
2.12902e+11
2.12619e+11
2.03748e+11
1.92235e+11
2.00601e+11
4.4365e+11
4.42274e+11
1.81832e+11
1.85065e+11
1.90339e+11
1.95986e+11
2.06769e+11
2.07709e+11
2.11679e+11
2.36427e+11
2.61255e+11
2.61501e+11
2.92549e+11
3.189e+11
3.85853e+11
6.22948e+11
6.19943e+11
1.93955e+11
1.95789e+11
2.01382e+11
2.08991e+11
2.25198e+11
2.26224e+11
2.38133e+11
2.8578e+11
3.31418e+11
3.34281e+11
4.00872e+11
4.45064e+11
4.54151e+11
7.92248e+11
7.87582e+11
2.18837e+11
2.13681e+11
2.17535e+11
2.25828e+11
2.466e+11
2.47516e+11
2.68592e+11
3.50048e+11
4.3063e+11
5.83296e+11
5.69086e+11
5.70003e+11
5.83764e+11
9.61101e+11
9.55456e+11
2.67323e+11
2.47626e+11
2.40487e+11
2.46624e+11
2.67843e+11
2.68519e+11
2.98882e+11
4.17334e+11
5.3487e+11
6.34161e+11
6.34268e+11
6.21435e+11
6.99616e+11
1.14997e+12
1.14635e+12
3.41343e+11
3.11516e+11
2.72421e+11
2.73367e+11
2.86224e+11
2.8666e+11
3.25472e+11
4.7554e+11
6.33842e+11
6.34352e+11
6.34447e+11
6.34613e+11
7.30139e+11
1.39509e+12
1.39295e+12
4.32595e+11
4.03756e+11
3.29888e+11
3.10748e+11
3.00854e+11
3.01017e+11
3.44177e+11
4.83386e+11
6.14529e+11
6.34444e+11
6.34822e+11
6.39114e+11
9.37085e+11
1.69176e+12
1.68989e+12
5.31952e+11
5.11438e+11
4.24926e+11
3.60288e+11
3.12452e+11
3.1156e+11
3.55226e+11
4.78611e+11
6.00575e+11
6.06349e+11
6.39805e+11
7.74431e+11
1.65613e+12
2.06141e+12
2.05934e+12
6.34204e+11
6.23946e+11
5.6856e+11
4.28821e+11
3.31659e+11
3.15703e+11
3.56714e+11
4.79349e+11
5.97739e+11
5.99931e+11
8.37182e+11
1.73184e+12
2.29938e+12
2.4648e+12
2.46255e+12
7.35456e+11
7.34191e+11
7.37897e+11
5.57136e+11
4.63093e+11
3.23718e+11
3.65734e+11
4.92566e+11
5.88078e+11
8.8376e+11
2.27735e+12
2.83344e+12
2.87948e+12
2.8472e+12
2.84489e+12
8.28237e+11
8.26133e+11
8.25577e+11
7.8711e+11
7.28371e+11
5.04308e+11
6.52575e+11
5.51025e+11
7.32558e+11
2.74078e+12
3.43052e+12
3.50013e+12
3.38143e+12
3.19913e+12
3.19655e+12
9.23855e+11
9.19331e+11
9.08802e+11
9.18249e+11
9.53956e+11
9.61796e+11
1.14275e+12
1.35776e+12
2.43581e+12
3.82062e+12
3.97708e+12
3.96472e+12
3.82579e+12
3.57069e+12
3.56691e+12
1.03872e+12
1.03377e+12
1.03614e+12
1.06585e+12
1.16809e+12
1.26671e+12
1.52422e+12
2.07825e+12
3.7583e+12
4.08747e+12
4.21714e+12
4.2782e+12
4.2469e+12
4.06201e+12
4.0508e+12
1.16328e+12
1.1535e+12
1.16374e+12
1.21388e+12
1.36929e+12
1.5318e+12
2.00109e+12
3.42857e+12
3.83367e+12
4.05116e+12
4.24498e+12
4.4491e+12
4.64214e+12
4.7556e+12
4.70111e+12
1.28392e+12
1.27009e+12
1.27845e+12
1.35895e+12
1.55525e+12
1.83606e+12
3.0826e+12
3.37017e+12
3.59323e+12
3.82109e+12
4.09187e+12
4.43327e+12
4.86831e+12
5.39302e+12
5.25166e+12
1.3967e+12
1.38508e+12
1.39121e+12
1.49355e+12
1.73049e+12
2.59297e+12
2.84073e+12
2.96567e+12
3.15331e+12
3.42554e+12
3.75776e+12
4.18934e+12
4.78394e+12
5.44475e+12
5.29331e+12
1.49203e+12
1.4906e+12
1.50423e+12
1.58862e+12
2.09566e+12
2.26196e+12
2.34879e+12
2.44842e+12
2.62525e+12
2.90175e+12
3.24535e+12
3.69457e+12
4.34347e+12
5.19148e+12
5.12922e+12
1.55058e+12
1.55553e+12
1.57838e+12
1.66406e+12
1.80386e+12
1.85214e+12
1.89763e+12
1.9891e+12
2.13717e+12
2.36363e+12
2.66857e+12
3.08378e+12
3.67728e+12
4.55845e+12
4.52965e+12
1.57448e+12
1.57886e+12
1.59383e+12
1.63092e+12
1.68855e+12
1.72077e+12
1.76014e+12
1.82019e+12
1.91908e+12
2.08919e+12
2.3769e+12
2.79763e+12
3.3966e+12
4.26071e+12
4.18633e+12
1.58556e+12
1.58878e+12
1.59884e+12
1.62086e+12
1.6531e+12
1.68312e+12
1.71986e+12
1.77228e+12
1.85877e+12
2.02082e+12
2.32377e+12
2.85465e+12
3.58113e+12
4.54571e+12
4.49251e+12
1.58978e+12
1.59202e+12
1.59887e+12
1.61469e+12
1.63953e+12
1.66771e+12
1.70288e+12
1.75499e+12
1.84835e+12
2.03432e+12
2.39086e+12
3.05158e+12
4.00291e+12
5.38471e+12
5.33513e+12
1.59049e+12
1.59214e+12
1.59761e+12
1.61046e+12
1.63217e+12
1.65948e+12
1.6946e+12
1.74946e+12
1.85822e+12
2.09063e+12
2.54402e+12
3.42488e+12
4.91235e+12
7.03247e+12
6.99993e+12
1.58927e+12
1.59049e+12
1.59519e+12
1.60633e+12
1.6261e+12
1.65294e+12
1.68896e+12
1.74925e+12
1.88403e+12
2.19664e+12
2.81537e+12
3.99236e+12
5.9935e+12
8.58731e+12
8.57407e+12
1.58616e+12
1.58704e+12
1.59119e+12
1.60104e+12
1.61911e+12
1.64557e+12
1.68291e+12
1.7506e+12
1.92385e+12
2.3559e+12
3.18455e+12
4.66675e+12
7.2333e+12
1.06189e+13
1.15058e+13
1.57148e+12
1.57144e+12
1.574e+12
1.58055e+12
1.59382e+12
1.6172e+12
1.6561e+12
1.74077e+12
2.05701e+12
3.00244e+12
4.7423e+12
7.38187e+12
1.16865e+13
1.55134e+13
1.77061e+13
1.51955e+12
1.51861e+12
1.51843e+12
1.51885e+12
1.52012e+12
1.52273e+12
1.52831e+12
1.54356e+12
1.62259e+12
2.67045e+12
5.4278e+12
8.24385e+12
1.15482e+13
1.51888e+13
1.81581e+13
1.51778e+12
1.51684e+12
1.51678e+12
1.51736e+12
1.51863e+12
1.52079e+12
1.52433e+12
1.53069e+12
1.54437e+12
1.5779e+12
1.6556e+12
2.00065e+12
6.68773e+12
8.34391e+12
9.19449e+12
1.51636e+12
1.5159e+12
1.51612e+12
1.51697e+12
1.51852e+12
1.52099e+12
1.52497e+12
1.5316e+12
1.54423e+12
1.57321e+12
1.64161e+12
1.76745e+12
1.97775e+12
3.04992e+12
3.88618e+12
1.51173e+12
1.51206e+12
1.51329e+12
1.51508e+12
1.51736e+12
1.52039e+12
1.52487e+12
1.53229e+12
1.54597e+12
1.57462e+12
1.64256e+12
1.80207e+12
2.14328e+12
2.89091e+12
3.6197e+12
1.49632e+12
1.49726e+12
1.49956e+12
1.50304e+12
1.50773e+12
1.51423e+12
1.52406e+12
1.5404e+12
1.57182e+12
1.6448e+12
1.84081e+12
2.33247e+12
2.93411e+12
3.35903e+12
3.64772e+12
1.44602e+12
1.44803e+12
1.4527e+12
1.46012e+12
1.47077e+12
1.48604e+12
1.50833e+12
1.53918e+12
1.5861e+12
1.67031e+12
1.86526e+12
2.45283e+12
3.35357e+12
3.90862e+12
4.28791e+12
1.28061e+12
1.28221e+12
1.28641e+12
1.29392e+12
1.30705e+12
1.33111e+12
1.37519e+12
1.43551e+12
1.51015e+12
1.62768e+12
1.92851e+12
3.19354e+12
4.72358e+12
6.01505e+12
7.02466e+12
1.14193e+12
1.14211e+12
1.14279e+12
1.14465e+12
1.14871e+12
1.15641e+12
1.17021e+12
1.19564e+12
1.24922e+12
1.47695e+12
2.66862e+12
5.03307e+12
7.54107e+12
9.10051e+12
1.03393e+13
9.90387e+11
9.87198e+11
9.82404e+11
9.784e+11
9.77352e+11
9.80013e+11
9.86479e+11
1.00822e+12
1.10216e+12
1.83095e+12
3.12043e+12
4.66187e+12
5.88496e+12
6.82163e+12
7.51172e+12
7.90317e+11
7.88977e+11
7.89143e+11
7.92734e+11
7.94708e+11
7.95886e+11
7.98029e+11
8.03805e+11
8.21613e+11
8.96827e+11
1.7149e+12
2.56565e+12
3.19957e+12
3.67768e+12
4.0441e+12
6.32447e+11
6.32218e+11
6.3249e+11
6.34421e+11
6.31911e+11
6.23754e+11
6.17689e+11
6.11235e+11
6.04564e+11
6.3289e+11
7.73856e+11
1.00546e+12
1.24066e+12
1.45241e+12
1.63079e+12
3.86193e+11
3.89058e+11
3.83131e+11
3.54867e+11
3.30658e+11
3.10528e+11
2.91165e+11
2.71727e+11
2.58787e+11
2.64738e+11
2.97081e+11
3.54999e+11
4.29997e+11
5.12284e+11
5.88486e+11
1.87634e+11
1.85597e+11
1.80064e+11
1.7194e+11
1.62053e+11
1.51372e+11
1.39913e+11
1.28223e+11
1.1709e+11
1.08396e+11
1.05228e+11
1.11775e+11
1.30478e+11
1.58208e+11
1.87527e+11
1.11668e+11
1.10271e+11
1.0748e+11
1.03793e+11
9.9528e+10
9.50733e+10
9.06614e+10
8.65218e+10
8.27323e+10
7.91871e+10
7.55729e+10
7.20625e+10
6.91816e+10
6.7483e+10
6.71908e+10
7.9366e+10
7.85827e+10
7.71906e+10
7.53256e+10
7.31941e+10
7.08588e+10
6.86427e+10
6.656e+10
6.44056e+10
6.19351e+10
5.93046e+10
5.68282e+10
5.42088e+10
5.10573e+10
4.76235e+10
6.11165e+10
6.07346e+10
5.99416e+10
5.88537e+10
5.75506e+10
5.60963e+10
5.4574e+10
5.29444e+10
5.12631e+10
4.95652e+10
4.78029e+10
4.58183e+10
4.3546e+10
4.12985e+10
3.97403e+10
4.83139e+10
4.81816e+10
4.78869e+10
4.73944e+10
4.6584e+10
4.55752e+10
4.44557e+10
4.33482e+10
4.23046e+10
4.12314e+10
4.00724e+10
3.87953e+10
3.74163e+10
3.60963e+10
3.52608e+10
4.01521e+10
4.0046e+10
3.98265e+10
3.95209e+10
3.91125e+10
3.86311e+10
3.8113e+10
3.75768e+10
3.69563e+10
3.62425e+10
3.54967e+10
3.47253e+10
3.39557e+10
3.3306e+10
3.28802e+10
3.49474e+10
3.49107e+10
3.48356e+10
3.47356e+10
3.46182e+10
3.44813e+10
3.42916e+10
3.4015e+10
3.36424e+10
3.32301e+10
3.28067e+10
3.23646e+10
3.19053e+10
3.147e+10
3.11526e+10
3.13918e+10
3.1381e+10
3.13605e+10
3.13313e+10
3.12843e+10
3.12291e+10
3.11833e+10
3.11437e+10
3.10696e+10
3.09257e+10
3.06992e+10
3.04223e+10
3.01125e+10
2.98218e+10
2.96044e+10
2.83808e+10
2.8383e+10
2.83882e+10
2.83924e+10
2.83895e+10
2.8373e+10
2.83631e+10
2.83816e+10
2.84437e+10
2.85462e+10
2.85678e+10
2.84819e+10
2.83434e+10
2.81955e+10
2.80692e+10
2.55516e+10
2.55524e+10
2.55556e+10
2.5559e+10
2.55629e+10
2.55615e+10
2.55523e+10
2.55492e+10
2.55753e+10
2.56943e+10
2.60129e+10
2.63236e+10
2.64044e+10
2.63541e+10
2.62302e+10
2.31939e+10
2.3192e+10
2.31881e+10
2.31772e+10
2.31533e+10
2.31163e+10
2.30627e+10
2.29924e+10
2.29131e+10
2.2837e+10
2.27992e+10
2.29007e+10
2.31802e+10
2.35557e+10
2.3855e+10
2.12134e+10
2.12004e+10
2.11702e+10
2.1116e+10
2.10305e+10
2.09204e+10
2.07886e+10
2.06338e+10
2.04572e+10
2.02503e+10
2.00116e+10
1.97625e+10
1.95486e+10
1.93923e+10
1.93246e+10
1.88804e+10
1.88672e+10
1.88361e+10
1.87745e+10
1.86868e+10
1.85929e+10
1.84916e+10
1.83738e+10
1.82087e+10
1.79722e+10
1.76557e+10
1.72951e+10
1.69467e+10
1.66223e+10
1.63138e+10
1.66068e+10
1.65928e+10
1.65621e+10
1.6522e+10
1.64868e+10
1.64572e+10
1.64247e+10
1.63611e+10
1.61782e+10
1.5812e+10
1.53679e+10
1.49443e+10
1.45471e+10
1.41491e+10
1.37338e+10
1.4351e+10
1.43434e+10
1.43328e+10
1.43279e+10
1.43281e+10
1.43155e+10
1.4262e+10
1.41123e+10
1.37985e+10
1.33749e+10
1.29645e+10
1.25848e+10
1.22096e+10
1.18207e+10
1.14084e+10
1.22484e+10
1.22458e+10
1.2245e+10
1.22468e+10
1.22439e+10
1.22149e+10
1.21357e+10
1.19777e+10
1.17209e+10
1.13564e+10
1.09742e+10
1.06126e+10
1.0265e+10
9.90825e+09
9.52599e+09
1.04322e+10
1.04194e+10
1.04005e+10
1.03797e+10
1.03538e+10
1.0315e+10
1.02476e+10
1.0117e+10
9.85476e+09
9.5171e+09
9.21754e+09
8.94272e+09
8.65641e+09
8.34386e+09
8.00821e+09
8.87908e+09
8.87612e+09
8.87079e+09
8.85821e+09
8.83223e+09
8.784e+09
8.70472e+09
8.58314e+09
8.37812e+09
8.09547e+09
7.82314e+09
7.54447e+09
7.2582e+09
6.97867e+09
6.72072e+09
7.76446e+09
7.76631e+09
7.76824e+09
7.76507e+09
7.75191e+09
7.72059e+09
7.66022e+09
7.56182e+09
7.39632e+09
7.12034e+09
6.81198e+09
6.52586e+09
6.284e+09
6.08146e+09
5.91242e+09
6.9501e+09
6.95162e+09
6.95437e+09
6.95546e+09
6.94946e+09
6.92515e+09
6.86316e+09
6.74862e+09
6.55612e+09
6.27685e+09
6.00171e+09
5.76265e+09
5.5543e+09
5.37463e+09
5.22587e+09
6.21113e+09
6.21018e+09
6.20962e+09
6.2091e+09
6.20313e+09
6.17584e+09
6.08288e+09
5.88113e+09
5.62351e+09
5.38478e+09
5.16667e+09
4.95636e+09
4.75656e+09
4.59181e+09
4.46578e+09
5.45397e+09
5.44929e+09
5.44108e+09
5.4279e+09
5.40342e+09
5.35048e+09
5.23529e+09
5.04327e+09
4.80744e+09
4.58332e+09
4.38336e+09
4.20317e+09
4.05138e+09
3.93031e+09
3.83506e+09
4.857e+09
4.85366e+09
4.84625e+09
4.83321e+09
4.80997e+09
4.76418e+09
4.66547e+09
4.47348e+09
4.21879e+09
3.99562e+09
3.80058e+09
3.63917e+09
3.51917e+09
3.42953e+09
3.36157e+09
4.41692e+09
4.41518e+09
4.40995e+09
4.39938e+09
4.37866e+09
4.33358e+09
4.22001e+09
3.9924e+09
3.74249e+09
3.53286e+09
3.35657e+09
3.22548e+09
3.13533e+09
3.06985e+09
3.01914e+09
4.02725e+09
4.02453e+09
4.0183e+09
4.00683e+09
3.98524e+09
3.93761e+09
3.80743e+09
3.56535e+09
3.3431e+09
3.14911e+09
2.99324e+09
2.88329e+09
2.80567e+09
2.74535e+09
2.69506e+09
3.69302e+09
3.68945e+09
3.68182e+09
3.66898e+09
3.64735e+09
3.60571e+09
3.49841e+09
3.2327e+09
2.98134e+09
2.77318e+09
2.61569e+09
2.51393e+09
2.44469e+09
2.39051e+09
2.34535e+09
3.39292e+09
3.38843e+09
3.3779e+09
3.3594e+09
3.32649e+09
3.25718e+09
3.08767e+09
2.83266e+09
2.59531e+09
2.39683e+09
2.26826e+09
2.19085e+09
2.1363e+09
2.093e+09
2.05724e+09
3.03142e+09
3.02407e+09
3.00681e+09
2.97652e+09
2.9248e+09
2.82727e+09
2.63901e+09
2.41247e+09
2.2237e+09
2.07836e+09
1.9821e+09
1.91886e+09
1.87215e+09
1.83481e+09
1.80392e+09
2.65565e+09
2.64668e+09
2.61929e+09
2.56571e+09
2.47066e+09
2.31502e+09
2.14906e+09
2.00897e+09
1.88815e+09
1.78963e+09
1.71818e+09
1.66908e+09
1.63261e+09
1.60358e+09
1.57931e+09
2.11499e+09
2.10142e+09
2.06898e+09
2.01419e+09
1.94002e+09
1.8534e+09
1.75557e+09
1.65561e+09
1.57469e+09
1.51247e+09
1.46877e+09
1.43846e+09
1.41449e+09
1.39392e+09
1.37554e+09
1.67182e+09
1.66071e+09
1.63463e+09
1.59287e+09
1.53778e+09
1.47699e+09
1.41486e+09
1.35554e+09
1.30959e+09
1.27771e+09
1.25591e+09
1.23884e+09
1.22391e+09
1.21014e+09
1.19741e+09
1.29304e+09
1.28518e+09
1.26748e+09
1.24097e+09
1.21119e+09
1.18224e+09
1.15455e+09
1.12965e+09
1.10953e+09
1.09455e+09
1.08313e+09
1.07327e+09
1.06394e+09
1.05481e+09
1.04581e+09
1.04668e+09
1.0424e+09
1.03355e+09
1.02157e+09
1.00855e+09
9.95122e+08
9.81411e+08
9.67662e+08
9.55336e+08
9.45748e+08
9.38005e+08
9.30915e+08
9.23916e+08
9.16862e+08
9.09778e+08
8.75893e+08
8.73916e+08
8.69505e+08
8.63146e+08
8.56293e+08
8.48875e+08
8.40464e+08
8.31455e+08
8.23545e+08
8.17247e+08
8.1199e+08
8.07096e+08
8.02187e+08
7.97211e+08
7.92191e+08
7.3892e+08
7.37612e+08
7.3526e+08
7.32632e+08
7.3004e+08
7.27021e+08
7.23368e+08
7.19053e+08
7.14635e+08
7.11167e+08
7.08271e+08
7.05425e+08
7.02358e+08
6.99006e+08
6.95388e+08
6.40349e+08
6.39752e+08
6.38627e+08
6.36977e+08
6.34695e+08
6.31769e+08
6.28294e+08
6.24488e+08
6.2142e+08
6.19673e+08
6.18278e+08
6.16804e+08
6.15068e+08
6.12983e+08
6.10488e+08
5.61066e+08
5.60444e+08
5.59071e+08
5.56972e+08
5.54147e+08
5.50669e+08
5.4661e+08
5.42534e+08
5.40303e+08
5.38978e+08
5.37964e+08
5.3696e+08
5.35773e+08
5.34231e+08
5.32222e+08
4.87115e+08
4.86584e+08
4.85442e+08
4.8351e+08
4.80836e+08
4.77465e+08
4.7357e+08
4.70438e+08
4.691e+08
4.68344e+08
4.67742e+08
4.67074e+08
4.6618e+08
4.64966e+08
4.63451e+08
4.18859e+08
4.18266e+08
4.17036e+08
4.15113e+08
4.12901e+08
4.1073e+08
4.08795e+08
4.07658e+08
4.07345e+08
4.07294e+08
4.0721e+08
4.06996e+08
4.06582e+08
4.05923e+08
4.05071e+08
3.61138e+08
3.60772e+08
3.60103e+08
3.59153e+08
3.57976e+08
3.56511e+08
3.54874e+08
3.54238e+08
3.54326e+08
3.54528e+08
3.54634e+08
3.54642e+08
3.54518e+08
3.54199e+08
3.53635e+08
3.1092e+08
3.10957e+08
3.1103e+08
3.10968e+08
3.10678e+08
3.1014e+08
3.09731e+08
3.09633e+08
3.09668e+08
3.09648e+08
3.0948e+08
3.09195e+08
3.08782e+08
3.08226e+08
3.07478e+08
2.70875e+08
2.70978e+08
2.71182e+08
2.71192e+08
2.7104e+08
2.70865e+08
2.70838e+08
2.70975e+08
2.70901e+08
2.70576e+08
2.7006e+08
2.69412e+08
2.68619e+08
2.67658e+08
2.66494e+08
2.37833e+08
2.37707e+08
2.37516e+08
2.37223e+08
2.36724e+08
2.36039e+08
2.35747e+08
2.35876e+08
2.35974e+08
2.35807e+08
2.35415e+08
2.34785e+08
2.339e+08
2.32748e+08
2.31345e+08
2.08355e+08
2.07926e+08
2.07112e+08
2.06207e+08
2.0536e+08
2.04845e+08
2.04971e+08
2.05387e+08
2.05742e+08
2.05847e+08
2.05676e+08
2.05187e+08
2.04379e+08
2.03277e+08
2.01935e+08
1.77557e+08
1.76645e+08
1.7574e+08
1.75713e+08
1.76431e+08
1.77382e+08
1.78024e+08
1.78507e+08
1.78868e+08
1.79063e+08
1.79006e+08
1.78674e+08
1.78066e+08
1.77214e+08
1.76167e+08
1.49627e+08
1.49931e+08
1.50568e+08
1.51452e+08
1.52559e+08
1.53844e+08
1.54925e+08
1.55493e+08
1.55804e+08
1.55938e+08
1.55875e+08
1.556e+08
1.55113e+08
1.54437e+08
1.53607e+08
1.3243e+08
1.32595e+08
1.32898e+08
1.33295e+08
1.33786e+08
1.34378e+08
1.35082e+08
1.35581e+08
1.35902e+08
1.36047e+08
1.36004e+08
1.35761e+08
1.35308e+08
1.34659e+08
1.33851e+08
1.16482e+08
1.16528e+08
1.16588e+08
1.16624e+08
1.16626e+08
1.16594e+08
1.16474e+08
1.16555e+08
1.16714e+08
1.16844e+08
1.16885e+08
1.16783e+08
1.16492e+08
1.16036e+08
1.1547e+08
1.01179e+08
1.01143e+08
1.01072e+08
1.00929e+08
1.00685e+08
1.00322e+08
9.99734e+07
9.97825e+07
9.96533e+07
9.95731e+07
9.95163e+07
9.94602e+07
9.94113e+07
9.93771e+07
9.9387e+07
8.81779e+07
8.81131e+07
8.80028e+07
8.78289e+07
8.76055e+07
8.73666e+07
8.7168e+07
8.694e+07
8.67201e+07
8.65408e+07
8.63998e+07
8.63145e+07
8.63279e+07
8.6446e+07
8.66746e+07
7.75658e+07
7.75064e+07
7.74117e+07
7.72729e+07
7.71082e+07
7.6946e+07
7.68039e+07
7.66517e+07
7.64934e+07
7.63606e+07
7.6275e+07
7.62511e+07
7.63074e+07
7.64463e+07
7.66618e+07
6.87706e+07
6.87227e+07
6.86498e+07
6.85414e+07
6.84107e+07
6.8282e+07
6.81593e+07
6.80255e+07
6.79098e+07
6.78386e+07
6.78257e+07
6.78854e+07
6.8019e+07
6.82206e+07
6.84559e+07
6.14653e+07
6.14352e+07
6.13968e+07
6.13313e+07
6.1237e+07
6.1118e+07
6.10027e+07
6.09059e+07
6.08339e+07
6.07938e+07
6.07961e+07
6.08607e+07
6.09915e+07
6.11859e+07
6.14078e+07
5.51526e+07
5.51273e+07
5.50986e+07
5.5053e+07
5.49974e+07
5.49437e+07
5.49039e+07
5.48579e+07
5.48098e+07
5.47781e+07
5.4777e+07
5.48194e+07
5.49024e+07
5.50303e+07
5.51809e+07
4.96219e+07
4.95946e+07
4.95606e+07
4.95076e+07
4.94402e+07
4.93699e+07
4.93137e+07
4.92742e+07
4.92451e+07
4.92314e+07
4.9251e+07
4.93075e+07
4.93926e+07
4.94963e+07
4.96017e+07
4.47106e+07
4.46803e+07
4.46382e+07
4.45738e+07
4.44926e+07
4.44114e+07
4.43493e+07
4.43006e+07
4.42608e+07
4.42415e+07
4.42555e+07
4.43015e+07
4.43797e+07
4.44692e+07
4.45508e+07
4.02431e+07
4.02174e+07
4.0183e+07
4.01279e+07
4.00541e+07
3.99707e+07
3.98906e+07
3.98205e+07
3.97677e+07
3.97437e+07
3.97488e+07
3.97782e+07
3.98283e+07
3.98968e+07
3.99589e+07
3.60355e+07
3.60124e+07
3.59817e+07
3.59319e+07
3.58669e+07
3.5799e+07
3.57387e+07
3.56878e+07
3.56488e+07
3.56224e+07
3.56147e+07
3.5627e+07
3.5655e+07
3.56969e+07
3.57379e+07
3.21349e+07
3.21138e+07
3.20857e+07
3.20414e+07
3.19893e+07
3.19457e+07
3.19165e+07
3.18971e+07
3.18795e+07
3.18569e+07
3.18317e+07
3.18137e+07
3.18104e+07
3.18106e+07
3.18128e+07
2.8543e+07
2.85255e+07
2.85045e+07
2.84755e+07
2.84487e+07
2.84324e+07
2.84274e+07
2.84277e+07
2.84251e+07
2.8407e+07
2.83767e+07
2.83373e+07
2.82952e+07
2.8251e+07
2.8212e+07
2.52766e+07
2.52623e+07
2.52482e+07
2.52339e+07
2.52303e+07
2.5239e+07
2.52523e+07
2.52599e+07
2.5258e+07
2.52461e+07
2.52262e+07
2.51832e+07
2.51212e+07
2.50497e+07
2.49855e+07
2.23387e+07
2.2331e+07
2.23292e+07
2.23291e+07
2.2335e+07
2.23467e+07
2.2358e+07
2.23628e+07
2.23615e+07
2.23603e+07
2.23463e+07
2.23044e+07
2.22411e+07
2.21688e+07
2.20998e+07
1.96786e+07
1.96727e+07
1.96727e+07
1.96731e+07
1.96761e+07
1.96822e+07
1.96884e+07
1.96893e+07
1.96825e+07
1.96705e+07
1.96508e+07
1.96315e+07
1.96044e+07
1.95715e+07
1.95265e+07
1.72866e+07
1.72823e+07
1.72841e+07
1.72863e+07
1.7291e+07
1.72991e+07
1.73092e+07
1.73163e+07
1.73161e+07
1.73056e+07
1.72907e+07
1.72807e+07
1.72715e+07
1.72621e+07
1.72406e+07
1.51425e+07
1.51439e+07
1.51559e+07
1.51712e+07
1.51897e+07
1.52099e+07
1.52284e+07
1.52412e+07
1.52456e+07
1.52434e+07
1.52339e+07
1.52196e+07
1.52048e+07
1.51892e+07
1.51689e+07
1.33119e+07
1.33143e+07
1.33265e+07
1.33405e+07
1.33558e+07
1.33705e+07
1.33817e+07
1.33871e+07
1.33851e+07
1.33749e+07
1.33549e+07
1.3332e+07
1.33083e+07
1.32784e+07
1.32413e+07
1.16976e+07
1.16999e+07
1.17114e+07
1.17245e+07
1.17378e+07
1.17492e+07
1.17566e+07
1.1759e+07
1.17554e+07
1.17432e+07
1.17198e+07
1.16867e+07
1.16463e+07
1.15986e+07
1.15461e+07
1.02902e+07
1.02914e+07
1.02997e+07
1.03077e+07
1.03141e+07
1.03176e+07
1.03172e+07
1.03128e+07
1.03038e+07
1.02874e+07
1.02609e+07
1.02263e+07
1.01874e+07
1.0145e+07
1.01e+07
9.01273e+06
9.01262e+06
9.01755e+06
9.02046e+06
9.01938e+06
9.01319e+06
9.00174e+06
8.98564e+06
8.96621e+06
8.94447e+06
8.92258e+06
8.89819e+06
8.86893e+06
8.83413e+06
8.79418e+06
7.84586e+06
7.84394e+06
7.84491e+06
7.84353e+06
7.83873e+06
7.82963e+06
7.81584e+06
7.79837e+06
7.7799e+06
7.76271e+06
7.74741e+06
7.72973e+06
7.70596e+06
7.67611e+06
7.64122e+06
6.82186e+06
6.81919e+06
6.81806e+06
6.81422e+06
6.80747e+06
6.79815e+06
6.78708e+06
6.77525e+06
6.76325e+06
6.75076e+06
6.73613e+06
6.71866e+06
6.69724e+06
6.67158e+06
6.64227e+06
5.91315e+06
5.91063e+06
5.90959e+06
5.90678e+06
5.90226e+06