/*--------------------------------*- C++ -*----------------------------------*\
  =========                 |
  \\      /  F ield         | OpenFOAM: The Open Source CFD Toolbox
   \\    /   O peration     | Website:  https://openfoam.org
    \\  /    A nd           | Version:  7
     \\/     M anipulation  |
\*---------------------------------------------------------------------------*/
FoamFile
{
    version     2.0;
    format      ascii;
    class       volScalarField;
    location    "500";
    object      nut;
}
// * * * * * * * * * * * * * * * * * * * * * * * * * * * * * * * * * * * * * //

dimensions      [0 2 -1 0 0 0 0];

internalField   nonuniform List<scalar> 
32100
(
2.15096e+17
2.06974e+17
2.09721e+17
2.03929e+17
1.98236e+17
1.91872e+17
1.85053e+17
1.78182e+17
1.73118e+17
1.69879e+17
1.70374e+17
1.71295e+17
1.771e+17
1.7807e+17
2.3345
2.2066e+17
2.23173e+17
2.14333e+17
2.12354e+17
2.07989e+17
2.02928e+17
1.98395e+17
1.95851e+17
1.93478e+17
1.92252e+17
1.89754e+17
1.91672e+17
1.89267e+17
1.92549e+17
2.31977
2.48041e+17
2.33478e+17
2.39351e+17
2.32943e+17
2.29669e+17
2.25343e+17
2.21021e+17
2.18055e+17
2.1545e+17
2.12156e+17
2.13713e+17
2.02587e+17
2.12194e+17
2.11907e+17
2.30901
2.55919e+17
2.50055e+17
2.36599e+17
2.46167e+17
2.44613e+17
2.41172e+17
2.37072e+17
2.33904e+17
2.3233e+17
2.34268e+17
2.22416e+17
2.44727e+17
2.30044e+17
2.31807e+17
2.30119
2.79053e+17
2.61226e+17
2.8733e+17
2.63298e+17
2.63852e+17
2.61991e+17
2.58443e+17
2.55143e+17
2.51312e+17
2.42352e+17
2.80286e+17
2.63612e+17
2.52887e+17
2.52209e+17
2.29555
2.83505e+17
2.57908e+17
2.1959e+17
2.72493e+17
2.74811e+17
2.73849e+17
2.71221e+17
2.68462e+17
2.70044e+17
2.88229e+17
3.00099e+17
2.88017e+17
2.68127e+17
2.68871e+17
2.29159
3.07787e+17
3.01448e+17
5.5046e+17
2.8386e+17
2.87923e+17
2.88809e+17
2.87452e+17
2.8466e+17
2.75297e+17
3.03913e+17
3.09297e+17
2.90373e+17
2.88322e+17
3.01958e+17
2.28903
3.00254e+17
2.34208e+17
1.32086e+17
2.95212e+17
2.99598e+17
2.98773e+17
2.9763e+17
2.95007e+17
3.11831e+17
3.16909e+17
3.31702e+17
3.05816e+17
2.89378e+17
3.28034e+17
2.28772
3.33035e+17
5.05911e+17
5.30938e+17
2.96171e+17
3.01912e+17
3.06241e+17
3.05606e+17
3.03888e+17
3.19246e+17
3.23059e+17
2.86498e+17
2.33711e+17
3.22061e+17
1.31885e+17
2.28724
2.98474e+17
1.53091e+17
4.05763e+16
3.1945e+17
3.20505e+17
3.10424e+17
3.08519e+17
3.039e+17
3.15583e+17
3.15378e+17
2.36184e+17
1.81197e+17
6.02898e+16
1.60005e+16
2.28731
9.43547e+16
2.56033e+15
2.88515e+14
6.92095e+15
1.66618e+17
3.3255e+17
3.8462e+17
3.06902e+17
2.93958e+17
2.61713e+17
1.34354e+17
9.37164e+16
4.63673e+16
2.91855e+15
2.28972
3.94988e+17
9.04062e+15
5.13738e+14
9.34204e+15
1.31959e+16
1.98814e+17
1.47081e+17
1.95448e+17
1.76843e+17
3.84242e+16
2.56179e+15
7.59578e+14
5.79878e+15
3.37738e+14
2.30011
6.17212e+15
4.13277e+14
4.28369e+13
3.22577e+14
3.71724e+14
2.15336e+16
1.21735e+16
1.81293e+16
2.33685e+16
8.53072e+15
2.76597e+15
4.65804e+14
1.20934e+15
3.59835e+13
2.41407
8.8378e+13
1.02362e+14
1.00101e+14
1.47469e+14
8.89188e+13
1.80513e+14
3.19668e+14
1.3719e+14
3.07234e+14
1.06935e+15
7.59849e+14
1.28783e+14
1.52585e+13
7.50698e+13
3.04449
4.68207e+14
2.37803e+14
1.63095e+14
3.53022e+14
2.56599e+14
1.56542e+15
1.74131e+15
1.08222e+15
8.63351e+14
6.59958e+14
3.42647e+15
5.21034e+14
3.17884e+13
1.08237e+14
3.46703
7.83547e+14
3.56412e+14
1.31554e+14
4.46124e+14
4.08483e+14
2.77598e+15
1.73195e+15
1.22816e+15
2.12097e+15
8.24812e+14
5.20628e+15
1.94924e+15
3.24743e+13
1.05465e+14
3.75934
5.65493e+14
1.77897e+15
1.03473e+15
2.35362e+15
4.63777e+15
6.53721e+15
6.11212e+15
3.22035e+15
5.0109e+15
8.24487e+14
7.05935e+15
1.42102e+15
3.15051e+13
1.71229e+14
3.94428
3.84792e+14
1.79087e+15
7.21518e+14
4.51037e+15
3.37578e+15
5.65508e+15
3.61675e+15
1.20097e+16
8.66788e+15
8.21964e+14
5.51447e+15
3.83433e+15
2.20772e+13
1.17973e+14
4.08671
3.69262e+14
2.15544e+15
1.1509e+15
3.02195e+15
3.64562e+15
4.7637e+15
2.19758e+15
3.18211e+15
5.81428e+15
5.17111e+14
3.39927e+15
2.72581e+14
2.0633e+13
1.11307e+14
4.24262
2.61917e+14
1.18686e+15
8.38663e+14
3.09944e+15
2.87763e+15
2.98609e+15
1.41111e+15
1.94001e+15
3.28606e+15
2.64482e+14
2.45016e+15
2.5452e+15
2.04168e+13
9.34057e+13
4.40061
1.86116e+14
6.71942e+14
9.10868e+14
3.22437e+15
2.06097e+15
2.46901e+15
9.21321e+14
1.22277e+15
1.91905e+15
1.4383e+14
1.39792e+15
1.65312e+15
1.88869e+13
7.55904e+13
4.56955
1.02243e+14
3.70278e+14
1.03492e+15
3.5793e+15
1.50459e+15
1.87912e+15
7.65028e+14
1.08326e+15
1.2391e+15
8.23173e+13
8.67213e+14
8.09391e+14
1.83932e+13
5.78425e+13
4.7697
5.96314e+13
2.0173e+14
8.83083e+14
2.63258e+15
1.05618e+15
8.64019e+14
8.67023e+14
1.27177e+15
8.29969e+14
5.06112e+13
4.9414e+14
4.92608e+14
1.92163e+13
4.12446e+13
5.01977
3.51661e+13
1.12033e+14
9.70789e+14
3.09238e+15
7.82346e+14
5.84187e+14
9.39504e+14
1.19043e+15
5.90306e+14
3.45186e+13
3.68021e+14
3.19912e+14
2.07039e+13
2.70885e+13
5.33138
2.32547e+13
6.17696e+13
6.54788e+14
2.41734e+15
5.83567e+14
3.84214e+14
9.29259e+14
1.66288e+15
4.16016e+14
2.33112e+13
2.99847e+14
2.15014e+14
2.15982e+13
1.63832e+13
5.71012
1.86425e+13
3.61943e+13
4.56341e+14
2.46525e+15
4.5785e+14
3.08705e+14
8.97071e+14
2.02766e+15
3.3297e+14
1.87582e+13
2.33308e+14
1.80844e+14
1.77354e+13
9.26973e+12
6.15149
1.85447e+13
2.32814e+13
3.28168e+14
2.41302e+15
3.29064e+14
2.28453e+14
7.24973e+14
1.59965e+15
3.30713e+14
2.12243e+13
2.08279e+14
2.17382e+14
1.06614e+13
5.12517e+12
6.6519
1.66359e+13
1.6854e+13
2.66376e+14
3.12093e+15
2.43686e+14
2.18077e+14
7.3438e+14
1.44858e+15
4.29078e+14
2.39325e+13
1.14452e+14
1.40309e+14
6.25876e+12
2.99178e+12
7.24821
1.44342e+13
1.25103e+13
2.06907e+14
2.80972e+15
1.94621e+14
1.80729e+14
6.20987e+14
9.48194e+14
2.37543e+14
2.51971e+13
6.76326e+13
1.02163e+14
3.80235e+12
2.07097e+12
8.00054
1.1498e+13
9.22374e+12
8.86396e+13
1.69688e+15
2.1426e+14
1.70498e+14
5.17317e+14
6.24306e+14
1.7117e+14
2.74824e+13
4.27591e+13
8.86622e+13
2.32852e+12
1.79878e+12
8.8926
9.08073e+12
7.18121e+12
4.79701e+13
1.36659e+15
2.42832e+14
1.64259e+14
5.19499e+14
3.02922e+14
8.84356e+13
3.05817e+13
3.17042e+13
5.02832e+13
1.49121e+12
1.52458e+12
9.94075
8.24389e+12
6.74202e+12
7.96439e+13
6.9427e+14
1.94426e+14
1.61666e+14
4.50383e+14
2.39248e+14
7.22614e+13
3.4071e+13
2.41265e+13
1.78624e+13
1.10693e+12
1.43809e+12
11.1955
8.1256e+12
7.39062e+12
3.21695e+14
3.15308e+14
1.65253e+14
1.64138e+14
3.87579e+14
2.23053e+14
7.09643e+13
3.07897e+13
1.50116e+13
9.47214e+12
9.27218e+11
1.36743e+12
12.602
7.77188e+12
6.59647e+12
9.30171e+14
1.83164e+14
1.29562e+14
1.64033e+14
2.55138e+14
1.75442e+14
5.79437e+13
2.246e+13
9.51768e+12
7.94637e+12
7.48846e+11
1.26845e+12
14.11
9.40894e+12
7.62804e+12
2.21487e+14
1.71138e+14
9.85137e+13
1.46772e+14
5.78351e+13
2.15912e+14
6.69033e+13
1.90133e+13
6.00083e+12
6.57539e+12
5.86361e+11
1.15875e+12
15.6927
1.13474e+13
9.37833e+12
2.87653e+14
2.30603e+14
7.62832e+13
7.86899e+13
2.85415e+13
2.28571e+14
5.6362e+13
1.68694e+13
4.22264e+12
6.06505e+12
4.44436e+11
1.05105e+12
17.338
1.24122e+13
9.27728e+12
2.93485e+14
5.35657e+14
5.84723e+13
4.9448e+13
2.06543e+13
2.17208e+14
4.78518e+13
1.4041e+13
3.96929e+12
5.34854e+12
3.26507e+11
9.46699e+11
19.0476
1.34951e+13
1.32185e+13
4.1323e+14
4.51589e+14
3.47831e+13
2.24271e+13
1.41725e+13
1.70749e+14
3.71566e+13
7.3987e+12
2.87628e+12
3.85219e+12
2.39115e+11
8.50519e+11
20.8384
1.26476e+13
2.19524e+13
2.15529e+15
2.42859e+14
1.59285e+13
2.14696e+13
1.09909e+13
7.65315e+13
3.80138e+13
4.63583e+12
2.56275e+12
2.37879e+12
1.75203e+11
7.78346e+11
22.6991
1.17463e+13
2.23312e+13
5.49016e+14
5.18595e+13
1.50321e+13
1.63855e+13
1.03433e+13
1.44235e+13
4.02928e+13
4.14076e+12
2.55152e+12
1.28753e+12
1.2503e+11
7.48852e+11
24.5348
8.15147e+12
1.14485e+13
1.82949e+14
2.3583e+13
1.75434e+13
1.71064e+13
9.44976e+12
6.42932e+12
4.52287e+13
5.07455e+12
2.13159e+12
5.83787e+11
6.19749e+10
8.28208e+11
26.1286
6.87402e+12
9.18453e+12
5.60089e+13
1.4596e+13
2.00143e+13
1.66334e+13
8.50529e+12
2.90911e+12
7.86388e+13
7.1472e+12
1.53174e+12
1.37674e+11
4.9371e+10
1.30408e+12
27.1346
7.35245e+12
7.80978e+12
2.8645e+13
1.69665e+13
2.00557e+13
1.79428e+13
9.0873e+12
4.07184e+12
1.11056e+12
1.52226e+13
1.57003e+12
1.36671e+11
3.01816e+10
8.10747e+11
27.9068
7.45061e+12
7.19176e+12
2.61635e+13
1.76182e+13
1.8931e+13
1.95621e+13
9.76026e+12
5.46048e+12
3.97349e+12
7.27748e+11
1.8586e+13
1.03649e+11
1.35934e+10
2.66086e+11
28.6925
7.97939e+12
7.46479e+12
2.88573e+13
1.66165e+13
2.01366e+13
2.48707e+13
1.03737e+13
1.65957e+12
3.86677e+12
1.72609e+12
5.36628e+11
1.10381e+11
8.3991e+09
7.34743e+08
29.2121
1.14842e+13
1.08541e+13
2.8033e+13
1.5735e+13
1.82389e+13
3.50233e+13
1.37448e+13
1.25888e+13
2.22274e+12
1.80468e+12
5.26727e+11
7.44285e+10
7.8578e+09
4.31069e+08
54.913
1.0101e+13
9.20389e+12
6.23048e+13
2.44511e+13
1.70052e+13
4.92901e+13
1.74584e+13
1.82864e+13
6.19615e+12
1.59777e+12
1.91929e+12
1.33138e+11
6.41824e+09
2.00622e+08
65.1982
9.58382e+12
1.20345e+13
3.00623e+13
1.29422e+13
1.36747e+13
3.28078e+13
9.34705e+12
3.19474e+13
5.22927e+13
1.14554e+13
2.13713e+12
1.49744e+11
5.45048e+09
6.50955e+07
70.0269
7.16834e+12
8.92945e+12
3.32866e+13
9.88526e+12
9.24108e+12
3.1177e+13
6.19374e+12
1.95858e+13
3.7359e+13
1.6893e+14
1.07734e+12
7.55397e+10
4.83228e+09
1.99915e+07
72.0066
4.96651e+12
6.62691e+12
5.12428e+13
7.53692e+12
1.03437e+13
4.22698e+13
8.05297e+12
2.04865e+13
1.76828e+14
7.14611e+12
4.9912e+11
3.55368e+10
4.24281e+09
7.21307e+06
72.7732
3.07499e+12
4.07141e+12
1.27967e+14
5.66766e+12
9.39887e+12
6.61517e+13
2.71095e+13
2.98032e+13
7.18358e+14
1.90714e+16
2.49913e+11
1.79191e+10
3.68972e+09
2.82496e+06
73.1028
1.82955e+12
2.10809e+12
1.12683e+13
5.11728e+12
9.64663e+12
7.23813e+13
1.63366e+13
3.05146e+13
3.59021e+14
1.41592e+16
1.31755e+11
9.49008e+09
3.11793e+09
879559
73.219
1.33187e+12
1.55332e+12
9.61104e+12
5.42043e+12
9.443e+12
1.80671e+14
2.19076e+13
1.52778e+14
1.85677e+14
2.95628e+15
6.64254e+10
4.79218e+09
2.60511e+09
264275
73.1663
1.30086e+12
2.16788e+12
5.90973e+12
7.66002e+12
8.23383e+13
1.47796e+14
1.37672e+13
3.93239e+13
9.58583e+13
1.48038e+15
3.31211e+10
2.39088e+09
1.23974e+09
106881
72.9777
1.27312e+12
1.29449e+12
2.55802e+12
5.07741e+12
1.07737e+13
1.76226e+14
1.94489e+13
2.26883e+13
5.0706e+13
7.56676e+14
1.56063e+10
1.13342e+09
4.01471e+08
92357.3
73.5267
8.45546e+11
8.41547e+11
1.46596e+12
3.09545e+12
5.12005e+12
1.18007e+14
4.97704e+14
1.32744e+13
3.16909e+13
6.57332e+10
4.8667e+09
3.56357e+08
915872
222572
95.6969
5.48885e+11
7.05404e+11
6.92075e+11
1.70304e+12
2.23e+12
7.38363e+13
2.98495e+13
7.7733e+12
2.21358e+13
1.17416e+10
7.56511e+08
4.86109e+07
259203
273401
122.842
2.27232e+11
4.10173e+11
5.10275e+11
7.98614e+11
1.01866e+12
4.9187e+13
1.9792e+13
5.1509e+12
1.66471e+13
1.47133e+10
1.29204e+09
4.86102e+06
532030
453991
145.432
8.87013e+10
1.94288e+11
2.8166e+11
3.92329e+11
4.84191e+11
3.45793e+13
1.35289e+13
3.66996e+12
1.32765e+13
2.14294e+10
2.16239e+09
1.66107e+08
799835
628009
163.911
4.54782e+10
8.48764e+10
1.43136e+11
1.97755e+11
2.34338e+11
2.50121e+13
9.81603e+12
2.71167e+12
1.09462e+13
4.95078e+10
3.30814e+09
2.39653e+08
1.41822e+06
794009
180.562
3.58306e+10
3.94224e+10
1.00501e+11
1.02215e+11
1.12366e+11
1.78638e+13
6.86864e+12
1.88632e+12
8.10828e+12
1.478e+13
6.34194e+08
4.47044e+07
2.19292e+06
1.45789e+06
197.831
3.60394e+10
2.68011e+10
4.0032e+10
5.64998e+10
5.25788e+10
1.08314e+13
4.21046e+12
1.17636e+12
5.36383e+12
7.22634e+15
6.62452e+10
4.78299e+07
1.42667e+06
2.6257e+06
218.105
4.11671e+10
2.7107e+10
1.89923e+10
3.50739e+10
2.40436e+10
4.76773e+12
2.33636e+12
5.7456e+11
2.33579e+12
6.09302e+10
3.90808e+09
2.35536e+07
851991
3.31934e+06
240.248
4.70577e+10
2.94497e+10
7.31418e+09
2.86893e+10
1.08445e+10
1.68334e+12
1.00291e+12
2.56283e+11
6.94073e+11
2.07358e+08
8.1644e+07
4.04768e+06
1.80942e+06
3.42563e+06
265.233
5.06008e+10
3.44478e+10
8.82547e+09
1.47945e+10
5.17815e+09
1.86095e+11
4.66322e+10
3.06606e+10
1.02281e+10
9.86174e+06
5.20887e+06
1.88375e+06
2.24085e+06
3.46382e+06
290.061
5.21743e+10
3.82524e+10
7.95795e+09
3.16084e+09
1.75017e+09
4.76916e+09
5.09035e+08
4.45676e+09
2.92958e+08
8.71024e+06
3.57835e+06
3.61019e+06
2.45331e+06
3.49449e+06
311.792
5.5721e+10
4.38243e+10
3.56177e+10
3.12684e+09
2.01369e+09
6.15723e+08
2.00546e+08
1.40353e+08
8.45792e+06
6.66811e+06
6.70153e+06
4.62147e+06
2.5403e+06
2.85641e+06
330.529
4.50476e+10
3.39603e+10
1.73104e+10
2.14617e+09
1.7481e+09
6.53998e+08
2.83762e+08
1.08223e+08
7.94244e+06
1.24982e+07
9.12515e+06
5.16701e+06
2.34531e+06
1.59526e+06
349.182
3.68603e+10
2.96089e+10
1.33021e+10
1.55845e+09
1.47441e+09
5.70845e+08
2.41321e+08
1.56589e+07
2.4233e+07
1.78647e+07
1.09025e+07
5.0342e+06
1.75918e+06
697899
372.141
3.61726e+10
2.78412e+10
1.34702e+10
1.32708e+09
1.2071e+09
4.52894e+08
3.00152e+07
4.5833e+07
3.51741e+07
2.33934e+07
1.1939e+07
4.44044e+06
1.19674e+06
319572
400.897
3.83901e+10
2.49755e+10
1.14651e+10
1.33026e+09
9.48649e+08
4.34748e+07
8.1682e+07
6.20384e+07
4.081e+07
2.62395e+07
1.21587e+07
3.86561e+06
917467
188774
423.673
4.1783e+10
2.16281e+10
6.89299e+09
1.82316e+09
1.1179e+08
1.12227e+08
1.01781e+08
8.25016e+07
5.06271e+07
2.77709e+07
1.15516e+07
3.38197e+06
905967
175355
425.286
5.09151e+10
2.09064e+10
3.39764e+09
1.77061e+08
2.66566e+08
2.07479e+08
1.70753e+08
1.23234e+08
6.53526e+07
2.85544e+07
1.0364e+07
2.697e+06
512826
267071
418.608
8.49102e+10
3.62252e+10
7.0053e+09
1.06408e+09
4.6129e+08
3.65204e+08
2.93558e+08
1.95493e+08
9.23796e+07
3.376e+07
1.14286e+07
2.7947e+06
506206
88993.1
393.376
1.82588e+11
8.27003e+10
1.65519e+10
2.18823e+09
2.20179e+09
1.91645e+09
1.53503e+09
7.89496e+08
2.83686e+08
8.41867e+07
2.79115e+07
6.07628e+06
961409
203971
378.311
2.02045e+11
9.26406e+10
2.76652e+10
9.9426e+09
8.3262e+09
7.18858e+09
5.33526e+09
2.69093e+09
8.94349e+08
2.4921e+08
6.85689e+07
1.96514e+07
3.83429e+06
927961
391.962
4.38719e+11
2.12834e+11
6.96356e+10
3.10461e+10
2.32303e+10
1.85523e+10
1.21385e+10
5.50954e+09
1.85362e+09
5.43011e+08
1.44203e+08
5.04886e+07
1.0899e+07
1.8976e+06
427.162
5.77227e+11
3.47113e+11
1.44606e+11
6.85391e+10
4.79087e+10
3.76805e+10
2.40723e+10
1.01376e+10
3.31843e+09
9.83064e+08
2.44195e+08
6.2017e+07
1.48171e+07
4.29631e+06
489.295
5.69659e+11
3.92794e+11
1.99699e+11
1.05117e+11
7.05002e+10
5.31704e+10
3.27187e+10
1.28139e+10
4.20673e+09
1.36628e+09
3.84949e+08
1.2005e+08
3.39377e+07
1.35123e+07
541.528
5.14715e+11
3.80768e+11
2.22567e+11
1.25377e+11
7.47719e+10
5.3001e+10
3.1756e+10
1.18506e+10
3.97442e+09
1.58198e+09
5.51044e+08
1.7835e+08
5.98454e+07
2.42e+07
627.337
5.10791e+11
4.25036e+11
2.6448e+11
1.445e+11
7.72023e+10
4.42485e+10
2.18669e+10
5.16029e+09
1.41715e+09
6.77661e+08
4.27894e+08
2.04221e+08
8.0478e+07
1.59875e+08
1.37511e+07
7.75485e+11
6.80035e+11
3.93577e+11
2.01889e+11
9.52822e+10
4.11946e+10
1.57032e+10
4.42585e+09
5.01127e+08
3.38463e+08
5.98919e+08
3.97198e+08
2.41431e+08
2.70881e+08
2.434e+08
5.25047e+13
4.77013e+13
3.10252e+13
1.84123e+13
1.00129e+13
4.76003e+12
1.59042e+12
3.44354e+11
9.34623e+10
2.04721e+10
2.71789e+09
2.48401e+08
1.27706e+09
1.02431e+09
7.68052e+08
1.09883e+15
1.02913e+15
7.93665e+14
5.80196e+14
3.99158e+14
2.29513e+14
1.21407e+14
5.3528e+13
1.78032e+13
4.97914e+12
1.69387e+12
3.54531e+11
6.55654e+09
6.55069e+09
6.44978e+09
3.43633e+15
3.57599e+15
4.01419e+15
4.30016e+15
3.95255e+15
2.82096e+15
1.58248e+15
7.43733e+14
2.99043e+14
1.00609e+14
3.16724e+13
1.10285e+13
2.33627e+12
1.07192e+12
1.0003e+12
5.44946e+15
5.52319e+15
4.91931e+15
4.08821e+15
3.1122e+15
1.98929e+15
1.14535e+15
5.76539e+14
2.36455e+14
8.23499e+13
2.54889e+13
1.25476e+13
1.40362e+13
1.48381e+13
1.59576e+13
2.81045e+15
2.59731e+15
1.84253e+15
1.11813e+15
6.21872e+14
3.1762e+14
2.14775e+14
1.50972e+14
9.02983e+13
4.00596e+13
1.09487e+13
3.17637e+12
4.29341e+12
4.56227e+12
4.41073e+12
1.3502e+15
1.17067e+15
6.99315e+14
3.68675e+14
1.79679e+14
9.14259e+13
5.36597e+13
4.18428e+13
2.64439e+13
1.07651e+13
1.58713e+12
8.91287e+11
7.47948e+11
7.7181e+11
7.47656e+11
4.36747e+15
3.90734e+15
2.49539e+15
1.38279e+15
7.07996e+14
3.41266e+14
1.41745e+14
5.21443e+13
8.66936e+12
1.0199e+12
4.73495e+11
2.04341e+11
3.93859e+11
4.4183e+11
4.26405e+11
1.14694e+15
9.85661e+14
7.0214e+14
4.13541e+14
2.0393e+14
8.70177e+13
3.16167e+13
7.59551e+12
7.73856e+11
4.3594e+11
2.56355e+11
3.14022e+11
3.70271e+11
4.29337e+11
4.06705e+11
2.16349e+15
2.491e+15
2.01552e+15
1.38076e+15
7.38731e+14
3.30681e+14
1.49826e+14
4.96418e+13
1.18412e+13
5.77071e+11
3.99169e+11
4.33923e+11
5.81165e+11
5.67978e+11
4.84163e+11
1.05129e+15
2.28228e+15
2.33568e+15
3.05461e+14
1.51409e+14
1.11829e+14
5.69859e+13
1.62884e+13
2.68842e+12
1.52272e+12
9.40432e+11
9.26412e+11
8.85376e+11
7.03207e+11
5.43087e+11
9.35547e+14
8.89139e+14
6.32214e+14
4.10408e+14
2.7918e+14
1.6102e+14
7.2059e+13
3.12405e+13
1.44857e+13
7.93994e+12
5.0669e+12
3.59766e+12
2.67357e+12
2.10715e+12
1.80519e+12
2.1894e+15
2.00109e+15
1.44273e+15
1.076e+15
8.23552e+14
5.9667e+14
3.55712e+14
1.78658e+14
8.29337e+13
3.75839e+13
1.81998e+13
1.05289e+13
7.39469e+12
5.81569e+12
4.97242e+12
3.13031e+15
2.86298e+15
2.95132e+15
2.28275e+15
2.12465e+15
1.91636e+15
1.71785e+15
1.27603e+15
8.50985e+14
5.15566e+14
2.71364e+14
1.26795e+14
5.7311e+13
2.81168e+13
1.72038e+13
2.81008e+15
3.15802e+15
3.78279e+15
3.86752e+15
3.47631e+15
3.40374e+15
3.6352e+15
3.41356e+15
2.39024e+15
1.44991e+15
1.11006e+15
8.07673e+14
4.80813e+14
2.56811e+14
1.68872e+14
1.37483e+15
1.51845e+15
1.93592e+15
2.8941e+15
3.15331e+15
3.50174e+15
3.58377e+15
3.70378e+15
3.56786e+15
3.01008e+15
2.22863e+15
1.51019e+15
1.13417e+15
1.05633e+15
1.47683e+15
2.44876e+15
2.56933e+15
2.47075e+15
2.39539e+15
2.4833e+15
3.00952e+15
3.31151e+15
4.08574e+15
4.72828e+15
4.72382e+15
4.1823e+15
3.43253e+15
2.8584e+15
2.80627e+15
4.54754e+15
1.50753e+15
1.6129e+15
1.76599e+15
1.80167e+15
1.85541e+15
2.5198e+15
3.65798e+15
4.63968e+15
4.7488e+15
5.3157e+15
5.71321e+15
5.7377e+15
5.97483e+15
7.7248e+15
1.22633e+16
3.10304e+15
3.34095e+15
3.45894e+15
3.28637e+15
2.85085e+15
2.48818e+15
2.49939e+15
2.95886e+15
3.35652e+15
4.37463e+15
5.1132e+15
5.46473e+15
5.5878e+15
6.60135e+15
1.09581e+16
1.96056e+15
2.17063e+15
2.70419e+15
3.01024e+15
2.87764e+15
2.60995e+15
2.34315e+15
2.15154e+15
2.02048e+15
2.36388e+15
2.91015e+15
3.29285e+15
3.528e+15
4.72153e+15
7.37767e+15
3.62277e+15
3.90037e+15
4.00255e+15
3.57797e+15
3.32094e+15
3.26257e+15
3.02691e+15
2.46863e+15
1.61897e+15
1.04271e+15
1.5075e+15
2.183e+15
2.71352e+15
3.78309e+15
6.07843e+15
2.41971e+15
2.63239e+15
2.9891e+15
3.00279e+15
2.56756e+15
2.78139e+15
2.97929e+15
2.69817e+15
1.88911e+15
1.00084e+15
4.92115e+14
6.257e+14
9.34678e+14
1.44526e+15
2.63297e+15
4.83298e+15
5.24796e+15
5.36606e+15
4.81262e+15
4.15987e+15
3.89592e+15
3.88862e+15
3.61577e+15
2.92812e+15
1.71733e+15
7.80013e+14
4.97913e+14
4.13153e+14
3.64936e+14
3.58682e+14
3.47171e+15
3.7361e+15
3.77257e+15
3.31405e+15
2.65635e+15
2.54228e+15
2.67458e+15
2.88057e+15
2.769e+15
2.2859e+15
1.58888e+15
1.23556e+15
9.73556e+14
7.07439e+14
4.94418e+14
2.53709e+15
2.72472e+15
2.72172e+15
2.57554e+15
2.61797e+15
2.40186e+15
2.37512e+15
2.56398e+15
2.5785e+15
2.31016e+15
1.8842e+15
1.7766e+15
1.73548e+15
1.58984e+15
1.34914e+15
2.84753e+15
2.98019e+15
2.64818e+15
2.32345e+15
2.36336e+15
2.43859e+15
2.23884e+15
1.50667e+15
9.72506e+14
9.50883e+14
1.10194e+15
1.30724e+15
1.43285e+15
1.41706e+15
1.36736e+15
1.6567e+15
1.87545e+15
2.29416e+15
2.59512e+15
2.62577e+15
2.17021e+15
1.53785e+15
8.2211e+14
5.66042e+14
6.06229e+14
8.05445e+14
1.00303e+15
1.16655e+15
1.25765e+15
1.29804e+15
2.84525e+15
3.09527e+15
2.99189e+15
2.67876e+15
2.14334e+15
1.64705e+15
1.24383e+15
9.26454e+14
5.85703e+14
5.1192e+14
5.59237e+14
6.68425e+14
8.11962e+14
9.15903e+14
9.93876e+14
2.12702e+15
2.60386e+15
3.05062e+15
3.01531e+15
2.44591e+15
1.67362e+15
9.45242e+14
5.0876e+14
3.57414e+14
4.07838e+14
5.13526e+14
5.58573e+14
5.59072e+14
5.75387e+14
5.99442e+14
2.71519e+15
3.36981e+15
3.71571e+15
3.54139e+15
2.83346e+15
2.08122e+15
1.42425e+15
7.61725e+14
3.94943e+14
4.2897e+14
4.71279e+14
4.91064e+14
5.28913e+14
5.83789e+14
6.91047e+14
3.59679e+15
4.48424e+15
4.79466e+15
4.37737e+15
3.34562e+15
2.36547e+15
1.73067e+15
1.08689e+15
4.91047e+14
3.68064e+14
3.65278e+14
4.2553e+14
5.40813e+14
6.6611e+14
8.32317e+14
5.41009e+15
6.27009e+15
5.9312e+15
4.93534e+15
3.37364e+15
2.01714e+15
1.37494e+15
9.34039e+14
4.86751e+14
3.86741e+14
3.87678e+14
4.00318e+14
4.28658e+14
4.84898e+14
5.77681e+14
4.97928e+15
5.84798e+15
5.42862e+15
4.01977e+15
2.23446e+15
9.39817e+14
4.71488e+14
3.61382e+14
3.93921e+14
4.18785e+14
4.1831e+14
3.80509e+14
3.88367e+14
4.6769e+14
5.76189e+14
4.71898e+15
5.77789e+15
5.42649e+15
3.87936e+15
2.05099e+15
8.51258e+14
4.44181e+14
3.14695e+14
3.07555e+14
3.58685e+14
4.0708e+14
4.61259e+14
5.48217e+14
6.44595e+14
7.68848e+14
5.44385e+15
7.19878e+15
7.03406e+15
5.21832e+15
2.86451e+15
1.21768e+15
5.48688e+14
2.89332e+14
2.92412e+14
3.26221e+14
3.5376e+14
4.56533e+14
6.18601e+14
7.99193e+14
1.03082e+15
5.8233e+15
7.22974e+15
6.8911e+15
5.0048e+15
2.70878e+15
1.0319e+15
4.1106e+14
2.6818e+14
2.95369e+14
3.28432e+14
3.75253e+14
5.2905e+14
7.39e+14
9.79337e+14
1.23947e+15
5.24829e+15
6.20986e+15
5.65678e+15
3.90901e+15
1.96511e+15
6.56718e+14
2.30674e+14
2.27251e+14
2.39305e+14
2.62256e+14
3.26649e+14
4.53177e+14
5.66321e+14
6.66806e+14
7.80075e+14
5.1332e+15
6.50963e+15
6.21994e+15
4.53556e+15
2.49196e+15
9.10368e+14
2.11636e+14
1.72819e+14
1.82566e+14
2.07367e+14
2.71246e+14
4.24259e+14
5.62869e+14
6.94611e+14
8.42249e+14
2.81702e+15
3.47609e+15
3.32281e+15
2.41191e+15
1.27435e+15
4.47986e+14
1.903e+14
1.71527e+14
1.60324e+14
1.88966e+14
2.98889e+14
4.37716e+14
5.47395e+14
6.6271e+14
8.01246e+14
1.764e+15
2.24985e+15
2.22264e+15
1.69175e+15
9.77983e+14
4.03266e+14
2.13106e+14
2.13658e+14
2.21457e+14
2.68446e+14
3.81446e+14
5.02611e+14
6.01937e+14
7.05058e+14
8.29424e+14
6.76439e+14
7.13875e+14
6.65671e+14
5.29898e+14
3.11489e+14
2.27519e+14
2.43673e+14
2.59039e+14
2.63919e+14
2.92476e+14
3.81734e+14
4.80922e+14
5.78642e+14
6.82321e+14
8.01393e+14
4.33408e+14
4.53997e+14
4.02007e+14
3.66077e+14
3.29866e+14
2.63776e+14
2.17976e+14
2.22033e+14
3.0049e+14
3.32876e+14
4.76106e+14
5.69522e+14
6.37865e+14
6.98601e+14
7.82446e+14
2.37954e+14
2.45988e+14
2.18637e+14
1.95101e+14
1.97085e+14
1.97684e+14
1.88813e+14
1.93163e+14
2.73254e+14
3.99378e+14
5.2836e+14
6.18951e+14
6.68348e+14
7.2835e+14
8.1748e+14
1.90355e+14
1.96897e+14
1.76862e+14
1.62604e+14
1.94018e+14
2.21253e+14
2.43606e+14
2.70089e+14
3.33859e+14
4.56649e+14
5.95446e+14
6.84639e+14
7.33077e+14
7.73351e+14
8.2385e+14
1.56206e+14
1.70154e+14
1.77125e+14
1.84838e+14
2.13752e+14
2.43777e+14
2.72613e+14
2.91102e+14
3.53259e+14
4.58759e+14
5.63562e+14
6.449e+14
6.84511e+14
7.22061e+14
7.6319e+14
1.35076e+14
1.41646e+14
1.32786e+14
1.32267e+14
1.54835e+14
1.73664e+14
2.0052e+14
2.55293e+14
3.59605e+14
4.82643e+14
5.98694e+14
6.94208e+14
7.60409e+14
8.12405e+14
8.60333e+14
1.21931e+14
1.31799e+14
1.50117e+14
1.75697e+14
1.94348e+14
2.0313e+14
2.09266e+14
2.51387e+14
3.65101e+14
5.12445e+14
6.25842e+14
7.152e+14
7.81235e+14
8.39874e+14
9.00959e+14
1.42955e+14
1.61225e+14
1.72232e+14
1.86228e+14
1.93672e+14
1.95052e+14
1.87477e+14
2.02547e+14
3.66092e+14
5.16661e+14
6.12037e+14
6.80302e+14
7.35354e+14
7.81509e+14
8.2199e+14
1.16758e+14
1.27533e+14
1.42668e+14
1.58661e+14
1.76223e+14
1.94221e+14
2.03044e+14
2.3303e+14
4.34947e+14
5.64135e+14
6.35362e+14
6.85481e+14
7.15957e+14
7.39546e+14
7.60876e+14
9.96278e+13
1.06746e+14
1.11149e+14
1.16934e+14
1.2022e+14
1.25396e+14
1.45301e+14
2.42875e+14
4.26456e+14
5.96302e+14
6.74397e+14
7.13179e+14
7.27453e+14
7.38652e+14
7.64112e+14
8.52904e+13
9.0291e+13
9.5049e+13
1.08811e+14
1.27008e+14
1.43709e+14
1.7104e+14
3.02284e+14
5.13937e+14
6.52799e+14
7.06588e+14
7.29535e+14
7.39848e+14
7.6633e+14
8.29512e+14
7.93295e+13
8.51603e+13
8.3669e+13
1.00833e+14
1.23058e+14
1.40719e+14
1.79316e+14
3.40808e+14
5.45132e+14
6.82237e+14
7.32182e+14
7.4303e+14
7.30389e+14
7.34901e+14
7.72512e+14
7.08312e+13
7.92063e+13
8.38028e+13
9.299e+13
1.02964e+14
1.1697e+14
2.3912e+14
4.70562e+14
6.71112e+14
7.57771e+14
7.91576e+14
7.82893e+14
7.48582e+14
7.29436e+14
7.44687e+14
1.10762e+14
1.13984e+14
1.01542e+14
1.10551e+14
1.264e+14
1.49863e+14
2.2008e+14
4.15481e+14
5.94898e+14
6.9376e+14
7.54012e+14
7.61758e+14
7.38158e+14
7.09464e+14
7.05623e+14
1.09866e+14
1.08483e+14
8.66901e+13
9.3477e+13
1.08549e+14
1.33756e+14
2.78215e+14
4.3589e+14
5.85145e+14
6.8681e+14
7.65647e+14
7.77029e+14
7.49921e+14
7.15903e+14
7.03398e+14
9.64159e+13
1.0476e+14
9.15848e+13
8.74371e+13
9.49022e+13
1.61982e+14
3.14055e+14
4.68196e+14
5.49571e+14
6.34469e+14
6.78664e+14
6.90334e+14
6.79385e+14
6.65591e+14
6.63079e+14
1.79073e+13
2.36084e+13
4.21837e+13
6.776e+13
1.03585e+14
2.15397e+14
4.22007e+14
5.00575e+14
5.29424e+14
5.71064e+14
5.92345e+14
5.92902e+14
5.83807e+14
5.80138e+14
5.86477e+14
7.20933e+13
9.97535e+13
1.35457e+14
1.78792e+14
2.18296e+14
2.5826e+14
4.02978e+14
5.15309e+14
5.54183e+14
5.7326e+14
5.80062e+14
5.76748e+14
5.7225e+14
5.68154e+14
5.75166e+14
1.3052e+14
1.68148e+14
2.17481e+14
2.69824e+14
3.1104e+14
3.76807e+14
4.14856e+14
4.71891e+14
4.90688e+14
5.05548e+14
5.06224e+14
4.96452e+14
4.8915e+14
4.89529e+14
5.02205e+14
1.33704e+14
1.58223e+14
2.04487e+14
2.60955e+14
3.21869e+14
3.83218e+14
3.41925e+14
4.12565e+14
4.08169e+14
3.98419e+14
3.90191e+14
3.81045e+14
3.84243e+14
3.94286e+14
4.26452e+14
1.34976e+14
1.52543e+14
1.91305e+14
2.31512e+14
2.66516e+14
3.12968e+14
5.27097e+14
5.58033e+14
5.04982e+14
4.77732e+14
4.40096e+14
3.9736e+14
3.91999e+14
4.11933e+14
4.88806e+14
1.319e+14
1.46878e+14
1.83002e+14
2.2508e+14
2.73728e+14
3.6364e+14
5.06248e+14
6.04276e+14
6.05093e+14
5.77944e+14
5.46581e+14
5.28335e+14
5.26592e+14
5.47211e+14
7.14744e+14
1.20165e+14
1.33204e+14
1.65624e+14
2.04744e+14
2.42681e+14
3.14372e+14
4.99295e+14
6.16412e+14
6.42744e+14
6.3433e+14
6.23848e+14
6.30645e+14
6.39702e+14
7.11112e+14
9.98275e+14
1.08064e+14
1.19533e+14
1.5068e+14
1.95762e+14
2.53191e+14
3.34011e+14
4.46618e+14
5.65661e+14
6.37628e+14
6.59803e+14
6.57889e+14
6.83064e+14
7.1238e+14
8.26971e+14
1.2659e+15
9.58101e+13
1.04965e+14
1.29142e+14
1.61538e+14
2.02595e+14
2.67391e+14
4.37365e+14
6.19272e+14
7.25357e+14
7.6209e+14
7.84827e+14
8.04705e+14
8.28611e+14
9.65726e+14
1.43081e+15
8.38583e+13
9.15603e+13
1.12462e+14
1.42051e+14
1.81175e+14
2.45963e+14
3.56376e+14
5.06933e+14
6.25454e+14
6.93507e+14
7.63361e+14
8.17023e+14
8.84601e+14
1.05094e+15
1.41592e+15
7.08795e+13
7.73014e+13
9.44992e+13
1.18981e+14
1.51782e+14
2.04835e+14
3.14541e+14
4.57332e+14
5.85477e+14
6.62473e+14
7.40435e+14
7.7584e+14
8.6656e+14
1.02289e+15
1.33849e+15
5.58523e+13
6.09772e+13
7.47827e+13
9.5089e+13
1.26843e+14
1.8633e+14
2.86238e+14
4.1373e+14
5.32438e+14
6.49799e+14
7.39159e+14
7.71223e+14
8.2626e+14
9.51032e+14
1.20672e+15
4.18927e+13
4.55569e+13
5.54314e+13
6.94312e+13
9.24987e+13
1.39527e+14
2.25145e+14
3.43305e+14
4.90469e+14
6.14584e+14
7.01432e+14
7.43389e+14
7.70291e+14
8.53867e+14
1.04294e+15
3.24551e+13
3.51424e+13
4.22864e+13
5.18681e+13
6.73305e+13
1.02892e+14
1.75818e+14
2.90331e+14
4.35504e+14
5.69155e+14
6.49873e+14
6.68828e+14
7.27654e+14
7.56022e+14
8.84167e+14
2.54008e+13
2.74165e+13
3.29169e+13
4.1153e+13
5.61658e+13
8.74725e+13
1.47015e+14
2.39583e+14
3.69043e+14
5.08056e+14
6.02829e+14
6.28284e+14
6.47395e+14
6.60926e+14
7.39325e+14
2.0089e+13
2.15858e+13
2.57089e+13
3.19629e+13
4.47866e+13
7.36622e+13
1.30667e+14
2.10387e+14
2.99977e+14
3.97322e+14
5.01113e+14
5.54922e+14
5.72111e+14
5.9054e+14
6.5437e+14
1.67662e+13
1.82236e+13
2.27446e+13
3.02959e+13
4.35653e+13
6.98553e+13
1.1599e+14
1.77618e+14
2.45345e+14
3.4356e+14
4.15005e+14
4.55866e+14
4.83373e+14
5.22549e+14
5.83664e+14
1.36223e+13
1.48259e+13
1.89864e+13
2.62062e+13
3.8762e+13
6.18135e+13
9.98908e+13
1.52093e+14
2.07901e+14
2.73518e+14
2.97166e+14
3.41643e+14
3.7995e+14
4.52528e+14
5.13298e+14
1.27337e+13
1.40402e+13
1.81607e+13
2.51017e+13
3.65346e+13
5.56749e+13
8.58859e+13
1.28386e+14
1.851e+14
2.33673e+14
2.40623e+14
2.69685e+14
3.04562e+14
3.71364e+14
4.16083e+14
1.01595e+13
1.11666e+13
1.48017e+13
2.11597e+13
3.23244e+13
5.13286e+13
7.90844e+13
1.15333e+14
1.58205e+14
2.12158e+14
2.50733e+14
2.65785e+14
2.82935e+14
3.06094e+14
3.34638e+14
1.04715e+13
1.16761e+13
1.54988e+13
2.20113e+13
3.29274e+13
5.01399e+13
7.27406e+13
9.99983e+13
1.35124e+14
1.78412e+14
1.99208e+14
2.1371e+14
2.37854e+14
2.52765e+14
2.70672e+14
9.95606e+12
1.10456e+13
1.46851e+13
2.10276e+13
3.12836e+13
4.61391e+13
6.44219e+13
8.60446e+13
1.14866e+14
1.49478e+14
1.80569e+14
1.98471e+14
2.08334e+14
2.12322e+14
2.27749e+14
9.93607e+12
1.09989e+13
1.44564e+13
2.03812e+13
2.95041e+13
4.21254e+13
5.73273e+13
7.42903e+13
9.59748e+13
1.21954e+14
1.48015e+14
1.6533e+14
1.74193e+14
1.81393e+14
1.99147e+14
9.58217e+12
1.05824e+13
1.38272e+13
1.91815e+13
2.68516e+13
3.67985e+13
4.8501e+13
6.10732e+13
7.50021e+13
8.97252e+13
1.10016e+14
1.29104e+14
1.40868e+14
1.49267e+14
1.59918e+14
8.45312e+12
9.19705e+12
1.15909e+13
1.55461e+13
2.1414e+13
2.94366e+13
3.91281e+13
4.9232e+13
5.96545e+13
7.06982e+13
8.77183e+13
1.06499e+14
1.1541e+14
1.21954e+14
1.30691e+14
7.86902e+12
8.5338e+12
1.05353e+13
1.36616e+13
1.79807e+13
2.37689e+13
3.14438e+13
4.1361e+13
5.35703e+13
6.73866e+13
7.85439e+13
8.80508e+13
9.51225e+13
1.00113e+14
1.08406e+14
6.81558e+12
7.32322e+12
8.86904e+12
1.13788e+13
1.50675e+13
2.01696e+13
2.69186e+13
3.55043e+13
4.54344e+13
5.57999e+13
6.41727e+13
7.307e+13
7.85233e+13
8.31095e+13
8.93851e+13
5.97297e+12
6.39575e+12
7.6445e+12
9.62902e+12
1.24683e+13
1.65363e+13
2.23483e+13
3.00238e+13
3.90601e+13
4.8006e+13
5.51461e+13
6.03468e+13
6.48643e+13
6.78559e+13
7.28993e+13
5.24915e+12
5.61297e+12
6.69459e+12
8.48448e+12
1.11891e+13
1.50275e+13
2.00052e+13
2.58375e+13
3.20251e+13
3.77646e+13
4.28547e+13
4.81672e+13
5.18118e+13
5.49887e+13
5.8997e+13
4.66754e+12
4.98526e+12
5.9189e+12
7.45503e+12
9.7014e+12
1.27696e+13
1.67383e+13
2.15298e+13
2.69532e+13
3.26117e+13
3.688e+13
3.99473e+13
4.2194e+13
4.43591e+13
4.76858e+13