/*--------------------------------*- C++ -*----------------------------------*\
  =========                 |
  \\      /  F ield         | OpenFOAM: The Open Source CFD Toolbox
   \\    /   O peration     | Website:  https://openfoam.org
    \\  /    A nd           | Version:  7
     \\/     M anipulation  |
\*---------------------------------------------------------------------------*/
FoamFile
{
    version     2.0;
    format      ascii;
    class       surfaceScalarField;
    location    "500";
    object      phi;
}
// * * * * * * * * * * * * * * * * * * * * * * * * * * * * * * * * * * * * * //

dimensions      [0 3 -1 0 0 0 0];

internalField   nonuniform List<scalar> 
63695
(
-1.93783e-05
-0.000251754
-7.94357e-05
-0.000743138
-0.000175657
-0.00118886
-0.000302876
-0.00155475
-0.00044959
-0.00181083
-0.000606177
-0.00192682
-0.00075871
-0.00187334
-0.000891015
-0.00162254
-0.000983737
-0.00114527
-0.00100602
-0.00040816
-0.00089991
0.000625089
-0.000540565
0.00197729
0.000352533
0.00362009
0.00256034
0.00539061
0.00693338
-2.0145e-05
-0.000234889
-8.45774e-05
-0.000694008
-0.000187442
-0.00111044
-0.00032426
-0.00145616
-0.000486284
-0.00170233
-0.0006643
-0.00182097
-0.000846163
-0.00178459
-0.00101744
-0.00156599
-0.00116029
-0.00113636
-0.00124794
-0.000465054
-0.00123673
0.000480524
-0.00105531
0.00173424
-0.000603652
0.00335177
-0.000281799
0.00559617
0.00909935
-2.17548e-05
-0.00024062
-9.20178e-05
-0.000710974
-0.000204301
-0.00113957
-0.000354951
-0.00149835
-0.00053712
-0.00175831
-0.000742672
-0.00189143
-0.000961529
-0.00186975
-0.0011816
-0.00166499
-0.00138818
-0.00124761
-0.0015628
-0.000586052
-0.00168093
0.000355232
-0.00171929
0.0016222
-0.00169128
0.00329943
-0.00176928
0.00560952
0.00883055
-2.3934e-05
-0.000248122
-0.00010139
-0.000733563
-0.000225875
-0.00117798
-0.000394543
-0.00155365
-0.000601607
-0.00183092
-0.000840381
-0.00198204
-0.00110266
-0.00197865
-0.00137889
-0.0017917
-0.00165856
-0.00139076
-0.00193
-0.000743002
-0.00218524
0.000189625
-0.0024273
0.00145787
-0.0026931
0.00314391
-0.00306671
0.00539388
0.00823675
-2.65352e-05
-0.000258508
-0.000112572
-0.000764885
-0.000251345
-0.0012302
-0.000440951
-0.00162865
-0.00067669
-0.00192806
-0.000953006
-0.00210123
-0.00126344
-0.00211959
-0.00160087
-0.00195346
-0.0019578
-0.00157158
-0.00232979
-0.000939933
-0.00271818
-1.95478e-05
-0.00313163
0.00123812
-0.00360385
0.00290249
-0.00417643
0.00505506
0.00763144
-2.94262e-05
-0.000271527
-0.000124853
-0.000804416
-0.000279646
-0.00129664
-0.000492919
-0.0017224
-0.000760216
-0.0020478
-0.00107737
-0.00224705
-0.00143938
-0.00229099
-0.00184108
-0.00214927
-0.00227822
-0.0017899
-0.00275034
-0.00117867
-0.00326075
-0.000277576
-0.00381861
0.000958293
-0.00444925
0.00258476
-0.00517294
0.00464262
0.00704159
-3.26723e-05
-0.000286938
-0.000138738
-0.000851129
-0.000310943
-0.00137657
-0.000549218
-0.00183298
-0.000850361
-0.00218925
-0.00121076
-0.00241884
-0.00162678
-0.00249248
-0.00209478
-0.00237931
-0.0026128
-0.00204666
-0.00318171
-0.00146124
-0.00380453
-0.000586806
-0.0044888
0.000618644
-0.00525102
0.00220157
-0.00610201
0.0041792
0.00646079
-3.59958e-05
-0.000304677
-0.000153295
-0.000905531
-0.000344421
-0.00146873
-0.000609358
-0.00196027
-0.000945888
-0.00235189
-0.00135129
-0.00261612
-0.00182286
-0.00272388
-0.00235824
-0.00264366
-0.00295668
-0.00234236
-0.00361915
-0.00178822
-0.0043479
-0.000946851
-0.00514775
0.00022222
-0.00602709
0.00176012
-0.00699384
0.00367321
0.00587683
-3.93867e-05
-0.000324221
-0.000167989
-0.000967152
-0.000379107
-0.00157299
-0.000672348
-0.0021043
-0.0010456
-0.00253565
-0.0014973
-0.00283863
-0.00202564
-0.00298511
-0.00262901
-0.00294249
-0.00330707
-0.00267715
-0.00406065
-0.00215918
-0.00489106
-0.00135661
-0.00580118
-0.000226684
-0.006792
0.00126598
-0.00787065
0.0031253
0.00527275
-4.23631e-05
-0.000344827
-0.000182984
-0.00103366
-0.000415569
-0.0016866
-0.000738011
-0.00226258
-0.00114878
-0.00273928
-0.00164759
-0.0030862
-0.00223354
-0.00327713
-0.00290515
-0.00327641
-0.00366197
-0.00305116
-0.0045047
-0.00257442
-0.00543456
-0.00181489
-0.00645306
-0.000727153
-0.0075525
0.00071461
-0.00875135
0.00249966
0.00456461
-4.4918e-05
-0.00036662
-0.000196936
-0.00110125
-0.0004524
-0.00181695
-0.000805381
-0.00244338
-0.00125421
-0.00296316
-0.00180119
-0.00335783
-0.00244575
-0.00359886
-0.00318581
-0.00364359
-0.00402059
-0.00346203
-0.00495069
-0.00302848
-0.00597745
-0.0023082
-0.00709776
-0.0012687
-0.00830655
0.00012398
-0.00962806
0.00180858
0.00363183
-4.60647e-05
-0.000389605
-0.000203667
-0.00118139
-0.000479785
-0.00201547
-0.000870824
-0.00265841
-0.00136082
-0.00321378
-0.00195705
-0.00365479
-0.00266121
-0.00395013
-0.00347032
-0.00404151
-0.00438244
-0.00390704
-0.00539707
-0.00349856
-0.00651975
-0.00265051
-0.0077377
-0.00160482
-0.00902808
-0.000449997
-0.0103795
0.00128802
0.00276776
-4.79591e-05
-0.000425766
-0.000216016
-0.00144223
-0.000512394
-0.00257599
-0.00093385
-0.0033145
-0.00146273
-0.00383365
-0.00211444
-0.00402694
-0.00288066
-0.00439469
-0.00376069
-0.00448827
-0.00475918
-0.00439335
-0.00584829
-0.00394684
-0.00697573
-0.00260442
-0.00826219
-0.00120135
-0.00961762
-0.000896041
-0.010501
0.00236756
0.00419114
-5.25311e-05
-0.000590611
-0.000236259
-0.00195008
-0.000524412
-0.00333506
-0.000943286
-0.00435828
-0.00152331
-0.00495652
-0.00227613
-0.00508572
-0.00311955
-0.00532193
-0.00407693
-0.00526212
-0.00520617
-0.00493704
-0.00640892
-0.00424665
-0.00755726
-0.00240262
-0.00886543
-0.00024016
-0.0101874
0.000826235
-0.0107585
0.00444977
0.00751907
-9.00179e-05
-0.00079154
-0.000306095
-0.0024496
-0.000583425
-0.00400794
-0.00100558
-0.00526938
-0.00166613
-0.00607756
-0.00264121
-0.00638931
-0.00374526
-0.00645052
-0.00491619
-0.00621177
-0.00613739
-0.00555532
-0.00739546
-0.00455519
-0.00868546
-0.00253345
-0.00998419
0.000126322
-0.0113103
0.00303636
-0.0122765
0.00580628
0.0100655
-9.17955e-05
-0.00090126
-0.0003443
-0.00277306
-0.000693182
-0.00453494
-0.00122725
-0.00592083
-0.00202554
-0.00684518
-0.00308719
-0.00722262
-0.00430052
-0.00731142
-0.005628
-0.00702982
-0.00702793
-0.00625235
-0.00846951
-0.00509569
-0.00999736
-0.00303319
-0.0116012
-0.000236861
-0.0130428
0.00317033
-0.0142564
0.00647672
0.0114128
-9.00807e-05
-0.000996565
-0.000384102
-0.00300182
-0.000844792
-0.00488868
-0.00151935
-0.00639515
-0.00244485
-0.00742419
-0.00359772
-0.00795416
-0.00492338
-0.00810269
-0.00639515
-0.00783924
-0.00797388
-0.00703107
-0.00961587
-0.00579175
-0.0113777
-0.00371593
-0.0132616
-0.000839982
-0.0149185
0.00268139
-0.0164796
0.00656602
0.0118629
-9.99467e-05
-0.00108817
-0.000439266
-0.00323518
-0.00100003
-0.00526463
-0.0018095
-0.00689531
-0.00286383
-0.00806412
-0.00413083
-0.00871239
-0.00557813
-0.00892846
-0.00720537
-0.00868142
-0.00898336
-0.00788553
-0.0108303
-0.00659501
-0.0127988
-0.00450452
-0.0149547
-0.00155774
-0.0168608
0.00208641
-0.0186989
0.0064203
0.0119764
-0.000114246
-0.00117978
-0.000506294
-0.00349389
-0.00116379
-0.00570576
-0.00210076
-0.00749572
-0.00329785
-0.0087972
-0.00471185
-0.00955648
-0.00628991
-0.00985128
-0.00805599
-0.00962098
-0.0100267
-0.00880851
-0.0120862
-0.00747464
-0.0142642
-0.00535955
-0.0165971
-0.00224116
-0.0187937
0.00157569
-0.0210044
0.00616678
0.0119172
-0.000128603
-0.00128037
-0.000572899
-0.00379949
-0.00132968
-0.0062343
-0.00240903
-0.0082025
-0.00376484
-0.0096359
-0.0053432
-0.0105124
-0.00708383
-0.0108983
-0.00900934
-0.0106807
-0.0111635
-0.00979645
-0.013438
-0.00838526
-0.0158604
-0.00629288
-0.0185051
-0.00307368
-0.0209731
0.000942719
-0.0234273
0.00581505
0.0116756
-0.000142057
-0.00139957
-0.000642913
-0.00417269
-0.00151322
-0.00684722
-0.00274806
-0.00900276
-0.00427481
-0.0105977
-0.0060412
-0.0115894
-0.00797826
-0.0120937
-0.0100934
-0.0118414
-0.0124475
-0.0108346
-0.0149168
-0.00929427
-0.0175346
-0.00725403
-0.0204219
-0.00398079
-0.0231522
0.000320099
-0.0258481
0.00550435
0.0114871
-0.00015499
-0.0015424
-0.000718657
-0.00461511
-0.00171996
-0.00754024
-0.00312867
-0.00991166
-0.00483741
-0.0116921
-0.00680196
-0.0128045
-0.00898314
-0.0134492
-0.0113503
-0.0130994
-0.0139292
-0.0119175
-0.0165676
-0.0101841
-0.0193354
-0.00815178
-0.0223765
-0.00463771
-0.0253345
0.000192339
-0.0282659
0.0054189
0.0116673
-0.00017045
-0.0017126
-0.000805399
-0.00513184
-0.00195184
-0.00833068
-0.00355617
-0.0109564
-0.00546229
-0.0129473
-0.00762342
-0.0142341
-0.0100915
-0.0149568
-0.0127976
-0.0144602
-0.0156611
-0.0130608
-0.0184661
-0.0110915
-0.0213661
-0.00892487
-0.0245692
-0.00497358
-0.0276875
0.000590593
-0.0307368
0.00575877
0.0126053
-0.000189371
-0.0019114
-0.000905049
-0.00571501
-0.00221605
-0.00922064
-0.0040445
-0.01214
-0.00617411
-0.0143786
-0.00855481
-0.0159037
-0.0113453
-0.0166412
-0.0144476
-0.0159696
-0.0176489
-0.0142863
-0.0206599
-0.012094
-0.0237405
-0.00961504
-0.0271402
-0.00500632
-0.0303541
0.00135933
-0.0333997
0.00670703
0.0146734
-0.000213219
-0.00214199
-0.00101775
-0.00637454
-0.00250716
-0.0102441
-0.00458356
-0.0134856
-0.00696517
-0.0159943
-0.0096036
-0.0178019
-0.0127676
-0.0185409
-0.0163419
-0.0176883
-0.0199347
-0.0156329
-0.0231756
-0.0131802
-0.0265084
-0.0103234
-0.0301781
-0.00478715
-0.0334908
0.00234832
-0.0365132
0.00834544
0.0179158
-0.000243074
-0.00239987
-0.00114664
-0.00712635
-0.00283567
-0.0114207
-0.00519482
-0.0150077
-0.00786402
-0.01781
-0.0108015
-0.0199443
-0.0143824
-0.0206768
-0.0184805
-0.0196459
-0.0225624
-0.0171714
-0.0260978
-0.0143304
-0.0297264
-0.0111642
-0.0337856
-0.0046929
-0.0372916
0.0034431
-0.0403649
0.0106103
0.0219218
-0.000283236
-0.00267498
-0.0013077
-0.00794682
-0.00321365
-0.0127161
-0.00588385
-0.0166803
-0.00888075
-0.0198461
-0.0121686
-0.0223576
-0.0162168
-0.0230801
-0.0208622
-0.021873
-0.0255183
-0.0190078
-0.0294328
-0.0154224
-0.0333753
-0.0121809
-0.037979
-0.00493984
-0.041812
0.00457519
-0.0449406
0.0136323
0.0266172
-0.000329514
-0.00297056
-0.00149768
-0.00880715
-0.00363755
-0.0140941
-0.0066505
-0.0184926
-0.0100249
-0.02213
-0.0137319
-0.0250421
-0.0183229
-0.0257556
-0.0235495
-0.0243817
-0.0289468
-0.021153
-0.033305
-0.0167329
-0.0374316
-0.0132127
-0.0425731
-0.00510201
-0.0467957
0.00607042
-0.0499433
0.0179365
0.0327595
-0.000373329
-0.00330683
-0.0016872
-0.00975445
-0.0040787
-0.0156043
-0.00746055
-0.020504
-0.0112913
-0.0247025
-0.0155203
-0.0280112
-0.0207087
-0.0287316
-0.0265595
-0.027182
-0.0326087
-0.0235177
-0.037553
-0.0183748
-0.0421858
-0.0141561
-0.0479058
-0.00512553
-0.0524792
0.00802385
-0.0555553
0.0237504
0.0409198
-0.000406902
-0.00371848
-0.00184715
-0.0109465
-0.00451605
-0.0174519
-0.00830834
-0.0228272
-0.0126997
-0.0275728
-0.0175936
-0.0313086
-0.0234616
-0.0320556
-0.0300488
-0.030309
-0.0368713
-0.0261333
-0.0425567
-0.0202053
-0.0477771
-0.0149248
-0.0541484
-0.00526569
-0.0590693
0.0104196
-0.0619702
0.0311888
0.0519414
-0.000434345
-0.00422843
-0.00199291
-0.0125198
-0.00498396
-0.0198814
-0.00925093
-0.0255015
-0.0142695
-0.0307814
-0.0199438
-0.0349676
-0.0266396
-0.035789
-0.0340857
-0.0338663
-0.0417426
-0.0290991
-0.0483551
-0.0223096
-0.0542622
-0.0153793
-0.0610912
-0.00489489
-0.0664912
0.0146529
-0.0693567
0.0407609
0.0674323
-0.000472544
-0.00480649
-0.0021926
-0.0143378
-0.005574
-0.0225977
-0.0103551
-0.0286124
-0.016031
-0.0344845
-0.0225657
-0.0390423
-0.0302773
-0.040045
-0.03886
-0.0380541
-0.0475343
-0.0326535
-0.0551814
-0.024735
-0.061936
-0.0156844
-0.069193
-0.0026613
-0.0754912
0.0215154
-0.0791171
0.0520331
0.0869981
-0.000576202
-0.00539887
-0.00265421
-0.0160288
-0.00648575
-0.0251431
-0.011715
-0.0322846
-0.0180452
-0.0387263
-0.0254802
-0.0435499
-0.0342907
-0.0448999
-0.0441815
-0.0430437
-0.0541794
-0.0370404
-0.0632223
-0.0277463
-0.0715361
-0.0163507
-0.0801024
0.000729582
-0.0877228
0.0291144
-0.0928702
0.0634825
0.107844
-0.000709001
-0.00600507
-0.00319438
-0.0176122
-0.00752688
-0.0277049
-0.0133144
-0.0364262
-0.0203337
-0.0434242
-0.028683
-0.0484936
-0.0386663
-0.0505523
-0.0500885
-0.0490498
-0.0617967
-0.042455
-0.0727908
-0.0316484
-0.0833111
-0.0179552
-0.0940306
0.00280042
-0.1036
0.0350979
-0.111024
0.0736458
0.127222
-0.000796838
-0.00666116
-0.00361069
-0.0195135
-0.00856417
-0.0308585
-0.0150957
-0.0409078
-0.0229692
-0.0485379
-0.0322219
-0.0540664
-0.0434339
-0.0577
-0.0566246
-0.056191
-0.0704982
-0.0491221
-0.0839674
-0.0369997
-0.0970107
-0.0211821
-0.110436
0.00234475
-0.122787
0.038369
-0.133362
0.0813222
0.143207
-0.000893601
-0.00737328
-0.00403931
-0.0217506
-0.00965945
-0.0344997
-0.0171568
-0.0455633
-0.0259865
-0.0540822
-0.0362272
-0.0606199
-0.048782
-0.066315
-0.0637209
-0.0644476
-0.0799264
-0.0572219
-0.0962882
-0.0442676
-0.11236
-0.0268409
-0.128987
-0.00107736
-0.144861
0.0382823
-0.159434
0.0855552
0.154557
-0.00104064
-0.00812692
-0.0046104
-0.0240827
-0.0108495
-0.0382256
-0.0193885
-0.0503751
-0.0293186
-0.0601457
-0.0405625
-0.0685051
-0.0545687
-0.0758431
-0.0714628
-0.0738811
-0.0901284
-0.067053
-0.109468
-0.0535837
-0.128857
-0.0355162
-0.149221
-0.00777643
-0.169337
0.0343465
-0.188704
0.0856162
0.160504
-0.00120379
-0.00891136
-0.00525388
-0.0264277
-0.0121431
-0.0420401
-0.0216687
-0.0556385
-0.0327857
-0.0672785
-0.0451985
-0.0783903
-0.0607205
-0.0864026
-0.0798192
-0.0846574
-0.101264
-0.0792513
-0.123706
-0.0655963
-0.146536
-0.0475339
-0.170962
-0.0177724
-0.195866
0.0262515
-0.220744
0.0809
0.160356
-0.00137022
-0.00972262
-0.0059142
-0.0287519
-0.013489
-0.0459718
-0.0239895
-0.0615043
-0.036425
-0.0767586
-0.0504255
-0.0904519
-0.067492
-0.0988776
-0.0887608
-0.0973722
-0.113597
-0.0944002
-0.139616
-0.081502
-0.166014
-0.0632782
-0.194587
-0.031411
-0.224405
0.0129781
-0.255186
0.0708347
0.153591
-0.00149044
-0.0106269
-0.00647121
-0.0312905
-0.0147889
-0.050408
-0.0262166
-0.0687007
-0.0400983
-0.0886393
-0.0562426
-0.104574
-0.0749815
-0.11429
-0.0980109
-0.11405
-0.126251
-0.112284
-0.156245
-0.101502
-0.186969
-0.0834298
-0.22004
-0.0498619
-0.254596
-0.00755177
-0.291467
0.0550451
0.14093
-0.00154101
-0.0117551
-0.00684538
-0.0345056
-0.0159435
-0.0558663
-0.0282929
-0.0781142
-0.0437358
-0.101732
-0.0623033
-0.120627
-0.0831362
-0.13294
-0.107803
-0.134464
-0.138602
-0.131439
-0.172862
-0.124674
-0.209002
-0.109727
-0.246888
-0.0763995
-0.286092
-0.0375829
-0.329313
0.0335766
0.12363
-0.00155206
-0.0131548
-0.00705394
-0.0386838
-0.0167921
-0.0629887
-0.0300114
-0.0893513
-0.0469809
-0.115559
-0.0679645
-0.138293
-0.0909726
-0.154844
-0.117235
-0.161228
-0.150316
-0.150821
-0.188973
-0.150713
-0.231648
-0.145219
-0.274691
-0.117757
-0.319084
-0.0742267
-0.369451
0.00765421
0.103506
-0.00159242
-0.0147533
-0.00723561
-0.0436689
-0.0173925
-0.0717048
-0.0314279
-0.101128
-0.0496945
-0.130082
-0.0726125
-0.15726
-0.0988311
-0.178901
-0.127108
-0.192413
-0.160504
-0.186999
-0.202524
-0.179832
-0.25066
-0.180545
-0.302114
-0.166455
-0.355724
-0.117419
-0.412574
-0.0218278
0.0826449
-0.00165029
-0.016459
-0.00746628
-0.0490063
-0.0179578
-0.0807927
-0.0325613
-0.112828
-0.0517045
-0.145009
-0.0758878
-0.176792
-0.103772
-0.203995
-0.134369
-0.227134
-0.169371
-0.233305
-0.212168
-0.227375
-0.262013
-0.21079
-0.324678
-0.221615
-0.394735
-0.190269
-0.460361
-0.0554423
0.0480146
-0.00173322
-0.0181262
-0.00777948
-0.0542002
-0.0185384
-0.0896603
-0.0334029
-0.124626
-0.0529053
-0.159889
-0.0777455
-0.195847
-0.105996
-0.228318
-0.137437
-0.261816
-0.174924
-0.277416
-0.220624
-0.285156
-0.27868
-0.276852
-0.353392
-0.302475
-0.436625
-0.308652
-0.554371
-0.230195
-0.215596
-0.00183587
-0.0196774
-0.00814724
-0.0590592
-0.019111
-0.0978865
-0.0340419
-0.135955
-0.0534477
-0.17454
-0.0779536
-0.213625
-0.105561
-0.249742
-0.136532
-0.288379
-0.173557
-0.319201
-0.217996
-0.333373
-0.27705
-0.351547
-0.3557
-0.385055
-0.456079
-0.429366
-0.612971
-0.481378
-0.624487
-0.00188363
-0.0211921
-0.00837516
-0.0637378
-0.0196481
-0.105519
-0.0346517
-0.146693
-0.0539172
-0.189288
-0.0781534
-0.231106
-0.104743
-0.269392
-0.132434
-0.309795
-0.164719
-0.34608
-0.207997
-0.36778
-0.261995
-0.39039
-0.325023
-0.431618
-0.401949
-0.490586
-0.498679
-0.586354
-0.78096
-0.00196346
-0.022708
-0.00870678
-0.068442
-0.0201626
-0.113723
-0.0351651
-0.158145
-0.0545268
-0.205245
-0.0786585
-0.250423
-0.104529
-0.290936
-0.132953
-0.330552
-0.165497
-0.365596
-0.205367
-0.389122
-0.252313
-0.413967
-0.299973
-0.448263
-0.34509
-0.492924
-0.380075
-0.562787
-0.675244
-0.00201169
-0.0242306
-0.00899975
-0.0732341
-0.0208976
-0.122259
-0.0360224
-0.170477
-0.0556051
-0.22264
-0.0805263
-0.27116
-0.106591
-0.315321
-0.135304
-0.353859
-0.170345
-0.386551
-0.209906
-0.406868
-0.251676
-0.42904
-0.292375
-0.451883
-0.32516
-0.474641
-0.3378
-0.49304
-0.503098
-0.00205737
-0.02576
-0.0092476
-0.0778428
-0.0215101
-0.130008
-0.0369884
-0.182644
-0.0570854
-0.240229
-0.0831392
-0.290992
-0.110409
-0.337773
-0.14092
-0.377758
-0.177861
-0.4078
-0.218783
-0.426126
-0.261421
-0.4424
-0.302359
-0.455303
-0.338137
-0.462364
-0.359879
-0.443335
-0.392732
-0.00208534
-0.0273619
-0.00931945
-0.0824351
-0.0217919
-0.137167
-0.0380256
-0.196072
-0.0590763
-0.257514
-0.0864925
-0.309768
-0.116341
-0.35706
-0.150045
-0.398758
-0.190009
-0.428672
-0.234692
-0.448671
-0.28127
-0.462002
-0.326774
-0.469775
-0.372308
-0.46835
-0.415718
-0.436921
-0.373676
-0.00202888
-0.0291997
-0.00914084
-0.0879719
-0.0218753
-0.146266
-0.0393581
-0.211106
-0.0620967
-0.274661
-0.0909013
-0.327855
-0.123353
-0.376402
-0.16014
-0.418123
-0.202607
-0.449995
-0.249969
-0.472129
-0.301051
-0.48759
-0.353336
-0.493887
-0.408352
-0.488682
-0.468185
-0.459343
-0.406481
-0.00202108
-0.0312
-0.00923897
-0.094056
-0.0226566
-0.156959
-0.0416298
-0.226104
-0.0660197
-0.290169
-0.0961812
-0.34533
-0.130844
-0.396109
-0.170263
-0.43824
-0.215262
-0.472659
-0.265526
-0.497023
-0.320446
-0.514566
-0.378315
-0.521759
-0.440189
-0.515706
-0.506896
-0.487713
-0.439369
-0.00213761
-0.0331
-0.00959911
-0.0996937
-0.0233937
-0.166975
-0.0437356
-0.239195
-0.069853
-0.30462
-0.101796
-0.363317
-0.138605
-0.416613
-0.180416
-0.460062
-0.228079
-0.496907
-0.281429
-0.523588
-0.340163
-0.54338
-0.40327
-0.552029
-0.470858
-0.546313
-0.540354
-0.511406
-0.544981
-0.00226029
-0.0348795
-0.00994967
-0.105274
-0.024056
-0.176928
-0.0455234
-0.251392
-0.073559
-0.321231
-0.107511
-0.382605
-0.146624
-0.437758
-0.190888
-0.483995
-0.241088
-0.523153
-0.297485
-0.551537
-0.360896
-0.577634
-0.431072
-0.593749
-0.506981
-0.586068
-0.605985
-0.615899
-1.0165
-0.00237407
-0.0366457
-0.0104337
-0.110983
-0.0250761
-0.187142
-0.0477225
-0.265108
-0.0777421
-0.340419
-0.11387
-0.403541
-0.155496
-0.459008
-0.20162
-0.507131
-0.253927
-0.552113
-0.316216
-0.597797
-0.387423
-0.629476
-0.466269
-0.676258
-0.481422
-0.795948
-0.5143
-0.732784
-1.63187
-0.00245307
-0.0383651
-0.0108743
-0.11658
-0.0261212
-0.197578
-0.0499436
-0.280294
-0.0821925
-0.362662
-0.120785
-0.427421
-0.163493
-0.484218
-0.208865
-0.531013
-0.261712
-0.58117
-0.323452
-0.65159
-0.391853
-0.677858
-0.481887
-0.802048
-0.291894
-1.02292
-0.010701
-0.574051
-1.55951
-0.00246029
-0.0399379
-0.0111845
-0.121948
-0.0272137
-0.208106
-0.0525218
-0.29733
-0.0877703
-0.38923
-0.130121
-0.455505
-0.173423
-0.515577
-0.211925
-0.564936
-0.257473
-0.604257
-0.285285
-0.654125
-0.266977
-0.621548
-0.154076
-0.692446
0.189802
-0.984227
0.621176
0.0411324
-0.342339
-0.00245439
-0.0409507
-0.0113313
-0.126494
-0.0282448
-0.218245
-0.0559107
-0.315804
-0.0951487
-0.419399
-0.142112
-0.487884
-0.186801
-0.5537
-0.21645
-0.620174
-0.249027
-0.612483
-0.22118
-0.424093
-0.0728175
-0.304437
0.182797
-0.115174
0.512725
-0.0850662
1.02242
1.14684
1.96264
-0.0024736
-0.0403911
-0.0114371
-0.128364
-0.0293438
-0.226813
-0.0603655
-0.333875
-0.104861
-0.450425
-0.157481
-0.523975
-0.208826
-0.601391
-0.249382
-0.709294
-0.237719
-0.642725
-0.175747
-0.186022
-0.0310147
0.228755
0.301154
0.651676
0.467529
1.50038
0.753368
2.23307
4.20598
-0.00229343
-0.037324
-0.0109797
-0.12343
-0.029691
-0.231394
-0.0653312
-0.348567
-0.11615
-0.478179
-0.175292
-0.56251
-0.248025
-0.660244
-0.34349
-0.831108
-0.415518
-0.781957
-0.467975
-0.199114
-0.417907
0.544273
-0.20315
1.34626
-0.298071
2.62379
-0.448957
2.51452
4.64497
-0.00127889
-0.0316746
-0.00819025
-0.109044
-0.0276312
-0.227018
-0.0690866
-0.355618
-0.12623
-0.499242
-0.191628
-0.602058
-0.304028
-0.728895
-0.494912
-0.940236
-0.691501
-0.912265
-0.853786
-0.280142
-1.0244
0.48243
-1.10658
1.53623
-1.2783
2.54434
-1.70876
1.93301
3.21403
0.00115844
-0.0238146
-0.000768097
-0.0865091
-0.0200386
-0.205248
-0.0679028
-0.352628
-0.131026
-0.511886
-0.200233
-0.641239
-0.345919
-0.805851
-0.615098
-1.04135
-0.943641
-1.01841
-1.24527
-0.583435
-1.52477
0.313904
-1.76693
1.2102
-1.91381
1.47463
-2.37694
0.920556
1.00365
0.00526319
-0.0137775
0.0133725
-0.0570174
-0.00114207
-0.159208
-0.0554872
-0.341062
-0.125978
-0.516924
-0.195189
-0.678225
-0.360389
-0.888815
-0.701009
-1.18078
-1.06283
-1.19545
-1.46436
-1.08849
-1.85726
0.0892143
-1.84975
0.665756
-1.83764
0.489418
-2.40572
-0.197043
-1.3072
0.0106584
-0.00125478
0.0369375
-0.0200153
0.0405899
-0.0930054
-0.0172478
-0.31042
-0.100208
-0.499262
-0.1674
-0.712601
-0.343038
-0.980745
-0.750147
-1.35621
-1.16516
-1.41344
-1.61415
-1.51425
-1.69884
-0.202724
-1.28107
0.155151
-1.3081
-0.113628
-1.84441
-1.17867
-3.31935
0.0170857
0.0139499
0.0688414
0.0253644
0.11231
-0.0191795
0.0834533
-0.211987
-0.0185619
-0.427546
-0.119125
-0.74103
-0.30796
-1.08001
-0.731384
-1.5532
-1.08777
-1.67991
-0.990608
-1.11028
-0.581
-0.0508495
-0.344656
0.0834384
-0.451751
-0.419096
-0.802128
-1.84817
-4.78598
0.0235636
0.031998
0.0983127
0.0792
0.206238
0.0627034
0.266414
-0.0659078
0.193163
-0.290266
0.111433
-0.657102
-0.125547
-1.07343
-0.599997
-1.60188
-0.46056
-1.58745
0.153059
0.0437698
0.472544
0.633403
0.636282
0.468862
0.649642
-0.305748
0.579678
-2.10083
-5.67691
0.0307013
0.0538509
0.129669
0.145375
0.281643
0.175245
0.414422
0.10796
0.486378
-0.082619
0.550985
-0.423296
0.482816
-0.872193
0.522549
-1.18179
0.800284
-0.249325
1.04428
1.18455
1.34442
1.55247
1.65427
1.29478
1.93455
0.346519
2.28475
-1.73564
-5.69414
0.0375547
0.0798598
0.160476
0.225933
0.356002
0.324266
0.553868
0.344219
0.725867
0.201346
0.896604
-0.0995572
0.984409
-0.376969
1.08284
0.250169
1.29012
1.52099
1.60054
2.35822
2.04463
2.73618
2.63088
2.58906
3.3497
1.76299
4.38145
-0.240661
-3.75735
0.0426194
0.108779
0.183478
0.316777
0.414359
0.494264
0.671784
0.633041
0.924211
0.555821
1.16101
0.39888
1.17656
0.851682
1.17212
1.95255
1.42492
2.78758
1.84565
3.55768
2.48846
4.10583
3.4043
4.32533
4.67431
4.08484
6.59602
2.95576
1.16404
0.0449252
0.139254
0.194233
0.414922
0.443038
0.679893
0.746931
0.947199
1.05018
1.03836
1.06926
1.41463
0.896007
2.26369
1.00962
3.08509
1.291
3.89972
1.78572
4.71884
2.55756
5.53854
3.70018
6.30075
5.37223
6.93376
7.92843
7.50465
8.19881
0.043151
0.16948
0.187927
0.516836
0.432764
0.891
0.740144
1.30066
0.79058
1.70651
0.571858
2.45302
0.526886
3.13353
0.64928
3.91416
0.937142
4.78384
1.42813
5.74057
2.18998
6.87392
3.33162
8.21856
5.01346
9.69344
7.51338
11.7117
15.0175
0.0345757
0.195075
0.151219
0.60416
0.346115
1.08213
0.427274
1.65085
0.285764
2.27175
0.165699
2.94361
0.120877
3.63447
0.197385
4.42422
0.410035
5.36107
0.790118
6.47667
1.39651
7.89042
2.33787
9.73542
3.75727
12.013
5.78102
14.7931
19.854
0.0205918
0.21173
0.0846644
0.656967
0.162349
1.18251
0.131361
1.82313
-0.036736
2.46034
-0.179301
3.10435
-0.260329
3.80928
-0.271047
4.62116
-0.200466
5.59871
-0.0252856
6.80645
0.292786
8.37297
0.830864
10.4948
1.7955
13.3095
3.47865
16.8492
22.7157
0.00887793
0.220814
0.032304
0.681592
0.0368234
1.20842
-0.0445242
1.81977
-0.196997
2.43514
-0.339036
3.07728
-0.46707
3.78565
-0.575857
4.60587
-0.654922
5.58985
-0.68303
6.81247
-0.654349
8.40792
-0.557794
10.5887
-0.329524
13.5421
0.27251
17.5396
23.2076
-0.000493709
0.22438
-0.0076608
0.688554
-0.0445009
1.20161
-0.140267
1.77336
-0.28317
2.37017
-0.441773
3.00141
-0.610605
3.70264
-0.788885
4.5122
-0.973782
5.47862
-1.15764
6.6796
-1.34624
8.25269
-1.56178
10.4149
-1.80048
13.3646
-2.03314
17.4034
22.7418
-0.00684596
0.223177
-0.0331685
0.681717
-0.0919067
1.17747
-0.198965
1.71876
-0.349645
2.29275
-0.529883
2.90796
-0.736449
3.59301
-0.97214
4.38138
-1.24268
5.31841
-1.55799
6.48279
-1.95015
8.01303
-2.47022
10.1335
-3.14464
13.0566
-3.77525
17.0916
22.9832
-0.0112786
0.219104
-0.0506666
0.66692
-0.12489
1.14409
-0.244228
1.65891
-0.408176
2.20828
-0.610921
2.80163
-0.852551
3.4629
-1.14063
4.22127
-1.49171
5.11788
-1.93561
6.22966
-2.54337
7.69218
-3.4432
9.71319
-4.7574
12.4904
-5.9997
16.3833
23.0993
-0.0145811
0.213137
-0.0638553
0.64708
-0.150868
1.10468
-0.283005
1.59399
-0.462032
2.11682
-0.68715
2.68305
-0.961636
3.31339
-1.29909
4.03258
-1.73058
4.87561
-2.31088
5.91327
-3.15642
7.27121
-4.48975
9.10432
-6.61515
11.4963
-8.75446
14.7816
20.8705
-0.0171556
0.205683
-0.0743663
0.623341
-0.172523
1.06021
-0.317526
1.52376
-0.512351
2.01764
-0.759057
2.55148
-1.06358
3.14319
-1.44661
3.81299
-1.95782
4.58999
-2.67803
5.53105
-3.75693
6.73975
-5.51781
8.28746
-8.57992
10.0477
-12.7695
12.2458
16.2114
-0.114403
0.15527
-0.491768
0.471306
-1.12127
0.784801
-2.02324
1.09662
-3.21563
1.40646
-4.72709
1.71905
-6.61571
2.0452
-9.09474
2.40186
-12.7626
2.83371
-18.4469
3.45951
-27.0222
3.8858
-41.0016
3.92261
-60.9941
3.10993
-83.3246
0.54981
-3.48912
-121.227
-0.12886
0.0959779
-0.567174
0.291693
-1.29467
0.473719
-2.29585
0.636874
-3.55337
0.775396
-5.04006
0.888295
-6.69485
0.980884
-8.40452
1.07093
-10.917
1.21797
-16.7768
1.58436
-26.4044
1.80423
-39.7231
1.87134
-55.214
-0.387487
-67.1065
-4.79077
-11.8382
-72.1037
-0.10965
0.0445894
-0.468162
0.132106
-1.05659
0.206857
-1.87872
0.26149
-2.93511
0.289356
-4.23539
0.285624
-5.80566
0.246682
-7.70983
0.174041
-10.1387
0.0880997
-13.6944
0.0332072
-20.0626
0.0438889
-33.4005
0.166339
-49.5629
-1.83143
-59.58
-6.09902
-12.8987
-61.6325
-0.0817854
0.00579456
-0.348884
0.0140108
-0.788253
0.0100639
-1.40687
-0.0140804
-2.20994
-0.0663084
-3.2099
-0.154191
-4.43129
-0.286136
-5.92973
-0.471849
-7.85801
-0.723402
-10.5824
-1.06007
-14.6845
-1.53243
-21.4528
-2.27468
-36.2101
-3.58651
-47.4394
-7.26229
-12.2636
-42.9012
-0.0552702
-0.0213651
-0.235161
-0.0676851
-0.5296
-0.125916
-0.94158
-0.204254
-1.47252
-0.311318
-2.12681
-0.456208
-2.91402
-0.650065
-3.85325
-0.907125
-4.9858
-1.24837
-6.40857
-1.71534
-8.3263
-2.41452
-11.0995
-3.6107
-14.9173
-5.48465
-17.3695
-8.35012
-11.7512
-15.9986
-0.0271579
-0.0371729
-0.115534
-0.115194
-0.259677
-0.204882
-0.459804
-0.314376
-0.714101
-0.452376
-1.0197
-0.628097
-1.37283
-0.852907
-1.76702
-1.14125
-2.18519
-1.51617
-2.57157
-2.02352
-2.77551
-2.7866
-2.80176
-4.19994
-2.78702
-6.37801
-2.49076
-8.76321
-11.339
-1.66633
0.000174496
-0.0401062
0.00154519
-0.123046
0.00795047
-0.214042
0.027434
-0.318851
0.0739356
-0.444026
0.169408
-0.597547
0.335957
-0.791148
0.59681
-1.03452
1.00189
-1.33854
1.67679
-1.73086
2.99098
-2.31499
5.01171
-3.64786
6.768
-5.72587
7.66838
-7.94551
-10.239
7.7927
0.0202069
-0.0325455
0.0878362
-0.0986467
0.205648
-0.167124
0.387253
-0.239474
0.652621
-0.317489
1.03338
-0.404046
1.56465
-0.504595
2.27659
-0.620916
3.2215
-0.752192
4.52259
-0.920199
6.35349
-1.25204
8.3767
-2.24787
9.28137
-3.68981
8.30606
-5.12399
-6.56889
5.01651
0.0209028
-0.0216979
0.0903851
-0.0648422
0.207627
-0.10662
0.379727
-0.145692
0.615727
-0.180426
0.931018
-0.208422
1.3494
-0.225908
1.90565
-0.22728
2.64475
-0.199391
3.2709
-0.0923611
2.63296
0.00697064
0.172478
-0.0991023
-3.39054
-0.395629
-7.48648
-0.541153
-0.598111
-13.9037
0.0150404
-0.0135077
0.0644815
-0.0398405
0.14528
-0.0637452
0.259487
-0.083317
0.40762
-0.0959531
0.591208
-0.0983884
0.810447
-0.0862051
1.04979
-0.0530737
1.0176
0.0187353
0.310741
0.215905
-1.43569
0.754545
-3.63727
1.36415
-6.09418
1.8605
-8.90204
2.39517
3.11046
-12.85
0.00614571
-0.00934417
0.0265808
-0.027541
0.0595905
-0.043913
0.104088
-0.0572124
0.156669
-0.0649267
0.213609
-0.0654775
0.270433
-0.0569796
0.32161
-0.0365434
0.355529
0.00346488
0.289442
0.0932086
0.0874996
0.470531
-0.224377
0.924213
-0.584622
1.34201
-0.988355
1.77499
2.32834
-1.25539
0.00148689
-0.00705052
0.00732441
-0.0209387
0.0164814
-0.0338879
0.020292
-0.0451248
0.0100091
-0.0536456
-0.00894941
-0.0596227
-0.0376788
-0.062677
-0.0672441
-0.0619361
-0.00305853
-0.0550062
0.238737
-0.0275389
0.657076
0.03715
1.13393
0.135654
1.76094
0.237356
2.67695
0.332572
0.434518
4.35651
0.000394259
-0.00562509
0.0018131
-0.0168293
0.00412658
-0.0276592
0.00670477
-0.0376548
0.00769411
-0.0469021
0.00777946
-0.055648
0.0102005
-0.0639127
0.0272561
-0.0715957
0.0858732
-0.078724
0.225737
-0.0843465
0.500253
-0.0874628
0.956193
-0.0922891
1.71693
-0.112366
2.86071
-0.162795
-0.250826
4.57967
0.000403198
-0.00484889
0.00168251
-0.0145196
0.00351063
-0.0240203
0.00561136
-0.0332441
0.00779431
-0.0421373
0.0100917
-0.0507232
0.0125032
-0.0590344
0.0155605
-0.0671324
0.0220479
-0.0750971
0.0398136
-0.083136
0.0934538
-0.0922625
0.218286
-0.106236
0.472191
-0.132665
0.860457
-0.181866
-0.263632
1.41937
7.95087e-05
-0.00457363
0.000328084
-0.0137003
0.00067085
-0.0227312
0.000968573
-0.0316194
0.00110409
-0.0403529
0.00103289
-0.0489281
0.000629567
-0.057358
-0.00030629
-0.0656782
-0.00204772
-0.0739784
-0.0050185
-0.0824198
-0.00943734
-0.0912541
-0.0151943
-0.100967
-0.0195955
-0.113022
-0.0218905
-0.131783
-0.165625
-0.00917327
-0.000100937
-0.00444165
-0.000409213
-0.0133141
-0.000883336
-0.0221427
-0.00157927
-0.0308994
-0.00259713
-0.0395793
-0.00398275
-0.0481858
-0.00577744
-0.0567384
-0.00818469
-0.065255
-0.0116992
-0.0737952
-0.0169488
-0.0824997
-0.0242742
-0.0915991
-0.0342995
-0.101371
-0.0486308
-0.112397
-0.0688167
-0.12586
-0.143412
-0.0887398
-0.000181652
-0.0043428
-0.000750537
-0.0130254
-0.00159441
-0.0217009
-0.00266741
-0.0303592
-0.00401462
-0.0389841
-0.00567801
-0.0475743
-0.00769518
-0.0561472
-0.0101207
-0.0647297
-0.0130746
-0.0733633
-0.0167831
-0.0821092
-0.0216203
-0.0910834