/*--------------------------------*- C++ -*----------------------------------*\
  =========                 |
  \\      /  F ield         | OpenFOAM: The Open Source CFD Toolbox
   \\    /   O peration     | Website:  https://openfoam.org
    \\  /    A nd           | Version:  7
     \\/     M anipulation  |
\*---------------------------------------------------------------------------*/
FoamFile
{
    version     2.0;
    format      ascii;
    class       volScalarField;
    location    "4.1";
    object      T;
}
// * * * * * * * * * * * * * * * * * * * * * * * * * * * * * * * * * * * * * //

dimensions      [0 0 0 1 0 0 0];

internalField   nonuniform List<scalar> 
32100
(
1.37689e+120
-7.39538e+117
-2.14438e+118
8.88574e+116
6.53104e+115
-3.07075e+115
1.58736e+114
4.55865e+113
-2.00808e+112
-2.46003e+111
4.13558e+110
-9.42416e+108
-5.96349e+106
-1.12087e+107
-3.32978e+106
2.60154e+117
-2.32891e+118
9.1895e+116
7.29605e+115
-3.18932e+115
1.58188e+114
4.68103e+113
-2.01204e+112
-2.21703e+111
8.57666e+110
1.53139e+110
-6.70406e+108
-9.07754e+107
-1.10779e+107
-3.01014e+106
-2.55091e+118
9.64808e+116
8.2783e+115
-3.36502e+115
1.56832e+114
4.82809e+113
-2.09266e+112
-2.40583e+111
7.62288e+110
7.33489e+108
2.11986e+109
-5.50548e+108
-1.45726e+108
-6.93227e+106
-2.47339e+106
1.03398e+117
1.04066e+116
-3.67697e+115
1.3011e+114
4.94814e+113
-2.13731e+112
-3.03051e+111
7.44916e+110
-2.20079e+109
-1.69925e+109
-4.30893e+107
-4.7453e+108
-1.36023e+108
-2.51639e+106
-1.83952e+106
1.71008e+116
-3.5316e+115
2.54731e+113
2.63689e+113
-2.93647e+112
-3.24561e+111
3.0274e+110
-2.52759e+109
-4.52577e+108
-1.54802e+108
-3.73437e+108
-3.14862e+108
-8.88465e+107
4.87556e+105
-1.17019e+106
-5.78607e+113
4.71567e+114
-6.53369e+113
-2.83207e+113
-1.25049e+112
3.32996e+110
-4.71103e+110
-1.33429e+109
1.53883e+109
-6.00592e+107
-1.81492e+108
-1.54646e+108
-4.2685e+107
1.63827e+106
-6.29865e+105
3.98936e+115
3.92998e+114
-1.15086e+114
-2.63124e+113
-1.01829e+112
-4.06951e+110
-4.40517e+110
-4.88365e+107
1.47332e+109
7.79822e+107
-6.42046e+107
-5.44539e+107
-1.45629e+107
1.51205e+106
-2.86761e+105
3.62643e+115
3.38255e+114
-1.04366e+114
-2.55994e+113
-1.24679e+112
-3.37007e+110
-4.02285e+110
-7.94425e+108
1.42744e+109
1.36096e+108
-1.30445e+107
-1.10573e+107
-2.92268e+106
9.19188e+105
-1.13237e+105
3.26294e+115
3.4574e+114
-9.47044e+113
-2.5259e+113
-1.3938e+112
-2.77064e+110
-3.8154e+110
-1.40783e+109
1.33634e+109
1.53446e+108
2.24635e+105
1.4787e+105
5.48976e+104
3.93761e+105
-4.19458e+104
2.98274e+115
3.49953e+114
-8.54528e+113
-2.47297e+113
-1.54117e+112
-2.58407e+110
-3.57449e+110
-1.97244e+109
1.22616e+109
1.58305e+108
1.88085e+106
8.78471e+105
2.89263e+105
1.00727e+105
-1.69023e+104
2.72352e+115
3.52511e+114
-7.63714e+113
-2.41462e+113
-1.69089e+112
-2.61252e+110
-3.31904e+110
-2.46968e+109
1.10781e+109
1.59706e+108
2.51253e+106
5.49724e+105
1.29993e+105
-1.06488e+104
-8.59706e+103
2.48483e+115
3.54794e+114
-6.7831e+113
-2.34429e+113
-1.83611e+112
-2.88211e+110
-3.05847e+110
-2.88919e+109
9.85651e+108
1.58179e+108
3.17189e+106
3.44729e+105
6.47835e+104
-3.1645e+104
-5.66372e+103
2.26642e+115
3.42523e+114
-6.00545e+113
-2.26326e+113
-1.97189e+112
-3.4137e+110
-2.81085e+110
-3.22658e+109
8.63868e+108
1.54025e+108
3.76241e+106
2.38222e+105
5.72262e+104
-2.23166e+104
-3.52975e+103
1.96142e+115
2.80141e+114
-4.61449e+113
-1.91514e+113
-1.91741e+112
-4.30161e+110
-2.56337e+110
-3.42312e+109
7.44433e+108
1.48203e+108
4.48648e+106
1.70822e+105
4.77846e+104
-1.42522e+104
-2.22784e+103
1.31423e+115
2.12507e+114
-3.2756e+113
-1.51694e+113
-1.68677e+112
-4.67037e+110
-2.12898e+110
-3.34289e+109
6.19092e+108
1.45211e+108
5.64069e+106
1.59873e+105
5.309e+104
-1.4015e+104
-2.27168e+103
9.50998e+114
1.87873e+114
-2.39531e+113
-1.2847e+113
-1.52551e+112
-4.55169e+110
-1.73712e+110
-3.32667e+109
5.00494e+108
1.46288e+108
7.10306e+106
1.65281e+105
7.12968e+104
-1.55139e+104
-2.92399e+103
8.34286e+114
1.80335e+114
-1.84686e+113
-1.16536e+113
-1.49151e+112
-4.86734e+110
-1.52157e+110
-3.46255e+109
3.98415e+108
1.47198e+108
8.58216e+106
1.58507e+105
8.17634e+104
-1.55632e+104
-3.72273e+103
7.37459e+114
1.7479e+114
-1.47902e+113
-1.10207e+113
-1.52462e+112
-5.6477e+110
-1.37304e+110
-3.59476e+109
3.01279e+108
1.46974e+108
1.0114e+107
1.56335e+105
8.32265e+104
-1.39526e+104
-4.31856e+103
6.53663e+114
1.67925e+114
-1.16477e+113
-1.04608e+113
-1.56792e+112
-6.73252e+110
-1.24619e+110
-3.70658e+109
2.03407e+108
1.45358e+108
1.17006e+107
1.7097e+105
7.98269e+104
-1.11838e+104
-4.60402e+103
5.80199e+114
1.60483e+114
-8.58696e+112
-9.84425e+112
-1.6116e+112
-8.05939e+110
-1.1351e+110
-3.77705e+109
1.03959e+108
1.4209e+108
1.33369e+107
2.14284e+105
7.64015e+104
-7.9456e+103
-4.68946e+103
5.11545e+114
1.51875e+114
-5.6165e+112
-9.17298e+112
-1.65242e+112
-9.62636e+110
-1.0451e+110
-3.79902e+109
3.25161e+106
1.37373e+108
1.49827e+107
2.83236e+105
7.05812e+104
-4.38896e+103
-4.54677e+103
4.45847e+114
1.41901e+114
-2.79349e+112
-8.48162e+112
-1.68819e+112
-1.14489e+111
-9.84318e+109
-3.77889e+109
-9.83225e+107
1.31478e+108
1.6651e+107
3.753e+105
6.13838e+104
-9.70087e+102
-4.14189e+103
3.8443e+114
1.31255e+114
-1.91163e+111
-7.77503e+112
-1.71826e+112
-1.35416e+111
-9.62032e+109
-3.72128e+109
-2.00907e+108
1.24525e+108
1.84239e+107
5.00311e+105
5.27358e+104
1.93464e+103
-3.62203e+103
3.28229e+114
1.20425e+114
2.16363e+112
-7.04605e+112
-1.73957e+112
-1.5853e+111
-9.88704e+109
-3.6318e+109
-3.04697e+108
1.16128e+108
2.03828e+107
6.68192e+105
4.54416e+104
4.33816e+103
-3.11564e+103
2.78068e+114
1.10015e+114
4.25404e+112
-6.30786e+112
-1.75175e+112
-1.83603e+111
-1.07566e+110
-3.51183e+109
-4.09614e+108
1.05394e+108
2.25167e+107
8.91208e+105
3.9292e+104
6.34948e+103
-2.68097e+103
2.33815e+114
1.00009e+114
6.05497e+112
-5.56125e+112
-1.75427e+112
-2.10653e+111
-1.23532e+110
-3.36325e+109
-5.14976e+108
9.17808e+107
2.47844e+107
1.19539e+106
3.47204e+104
8.1618e+103
-2.31932e+103
1.95908e+114
9.04651e+113
7.59765e+112
-4.80922e+112
-1.7467e+112
-2.396e+111
-1.48311e+110
-3.19851e+109
-6.18914e+108
7.45462e+107
2.70495e+107
1.59357e+106
3.20395e+104
9.76832e+103
-1.94445e+103
1.63974e+114
8.1917e+113
8.96431e+112
-4.06639e+112
-1.72806e+112
-2.70165e+111
-1.83605e+110
-3.03631e+109
-7.16818e+108
5.32875e+107
2.91565e+107
2.06957e+106
3.20077e+104
1.07943e+104
-1.4955e+103
1.36521e+114
7.43881e+113
1.01812e+113
-3.3388e+112
-1.69604e+112
-3.02233e+111
-2.31653e+110
-2.91011e+109
-8.05576e+108
2.68281e+107
3.09549e+107
2.64986e+106
3.76272e+104
1.12763e+104
-1.01356e+103
1.123e+114
6.71045e+113
1.11456e+113
-2.6216e+112
-1.64588e+112
-3.35378e+111
-2.95086e+110
-2.86811e+109
-8.8453e+108
-5.43786e+106
3.22517e+107
3.36462e+106
5.2318e+104
1.13157e+104
-5.0531e+102
9.08586e+113
5.91883e+113
1.16525e+113
-1.91022e+112
-1.57534e+112
-3.68755e+111
-3.7704e+110
-2.97769e+109
-9.51131e+108
-4.41951e+107
3.2862e+107
4.17423e+106
7.78933e+104
1.05775e+104
-1.96358e+100
7.26646e+113
5.09266e+113
1.16624e+113
-1.21816e+112
-1.48382e+112
-4.01441e+111
-4.80826e+110
-3.33525e+109
-1.00147e+109
-8.99104e+107
3.25341e+107
5.04874e+106
1.17614e+105
9.2955e+103
4.33388e+102
5.82397e+113
4.37696e+113
1.15765e+113
-5.60075e+111
-1.36667e+112
-4.32085e+111
-6.08926e+110
-4.06749e+109
-1.03057e+109
-1.42897e+108
3.09164e+107
6.21652e+106
1.86915e+105
8.14265e+103
8.69614e+102
4.66207e+113
3.84381e+113
1.1718e+113
7.04358e+110
-1.22469e+112
-4.59745e+111
-7.63533e+110
-5.33903e+109
-1.0377e+109
-2.02141e+108
2.70521e+107
7.96103e+106
3.18077e+105
7.28888e+103
1.45593e+103
3.68196e+113
3.39199e+113
1.18366e+113
6.76056e+111
-1.06126e+112
-4.83359e+111
-9.43639e+110
-7.33036e+109
-1.03225e+109
-2.65394e+108
1.91947e+107
1.00866e+107
5.46498e+105
6.95013e+103
2.27305e+103
2.86808e+113
2.92293e+113
1.16231e+113
1.25643e+112
-8.75386e+111
-5.00012e+111
-1.13495e+111
-1.02159e+110
-1.03787e+109
-3.27044e+108
5.36257e+106
1.2522e+107
9.38608e+105
9.02769e+103
3.29472e+103
2.20193e+113
2.47955e+113
1.12299e+113
1.80963e+112
-6.64666e+111
-5.05632e+111
-1.32788e+111
-1.42009e+110
-1.10212e+109
-3.78364e+108
-1.60495e+107
1.49252e+107
1.5998e+106
1.96929e+104
4.26486e+103
1.65254e+113
2.09665e+113
1.08357e+113
2.32548e+112
-4.28719e+111
-4.96525e+111
-1.52044e+111
-1.94742e+110
-1.2972e+109
-4.10996e+108
-4.51901e+107
1.59885e+107
2.56017e+106
5.19606e+104
4.54508e+103
1.20324e+113
1.76113e+113
1.03986e+113
2.78684e+112
-1.72378e+111
-4.66719e+111
-1.70122e+111
-2.61335e+110
-1.70883e+109
-4.16819e+108
-7.90105e+107
1.47263e+107
3.8153e+106
1.2822e+105
3.47355e+103
8.40548e+112
1.46116e+113
9.88467e+112
3.17715e+112
9.26101e+110
-4.14858e+111
-1.84843e+111
-3.40849e+110
-2.42071e+109
-3.93626e+108
-1.12233e+108
1.02951e+107
5.40525e+106
2.90136e+105
9.87262e+102
5.56365e+112
1.18009e+113
9.18577e+112
3.44538e+112
3.51148e+111
-3.4447e+111
-1.93627e+111
-4.25294e+110
-3.5011e+109
-3.53622e+108
-1.39026e+108
2.10087e+106
7.11327e+106
6.01578e+105
-8.05818e+102
3.47513e+112
9.15643e+112
8.25093e+112
3.54957e+112
5.93453e+111
-2.61096e+111
-1.95279e+111
-5.10396e+110
-5.04198e+109
-3.21459e+108
-1.53047e+108
-9.32895e+106
7.72039e+106
9.90487e+105
3.93949e+103
2.07825e+112
6.85556e+112
7.13098e+112
3.52473e+112
8.08327e+111
-1.70059e+111
-1.89264e+111
-5.8036e+110
-7.17172e+109
-3.24258e+108
-1.46865e+108
-2.03487e+107
7.12971e+106
1.3873e+106
2.11792e+104
1.19516e+112
5.05195e+112
6.01191e+112
3.43501e+112
9.898e+111
-7.60056e+110
-1.76936e+111
-6.3318e+110
-9.21529e+109
-3.8792e+108
-1.27909e+108
-2.91986e+107
5.9705e+106
1.76701e+106
5.29702e+104
6.4985e+111
3.7241e+112
5.05681e+112
3.30816e+112
1.13983e+112
1.75343e+110
-1.60035e+111
-6.66084e+110
-1.09539e+110
-4.94055e+108
-1.05438e+108
-3.44697e+107
4.35898e+106
2.29632e+106
1.64298e+105
3.10447e+111
2.75378e+112
4.26356e+112
3.15085e+112
1.26362e+112
1.08842e+111
-1.40482e+111
-6.85459e+110
-1.26336e+110
-6.19255e+108
-7.4335e+107
-3.34396e+107
2.17124e+106
1.71074e+106
1.35276e+105
9.43248e+110
2.02409e+112
3.60738e+112
2.98743e+112
1.36428e+112
1.97215e+111
-1.19894e+111
-7.09036e+110
-1.41899e+110
-7.73497e+108
-4.75395e+107
-3.05578e+107
6.92099e+105
1.10354e+106
7.62578e+104
-3.77708e+110
1.46158e+112
3.03822e+112
2.81762e+112
1.4406e+112
2.81449e+111
-9.77697e+110
-7.34402e+110
-1.60824e+110
-9.61953e+108
-2.94213e+107
-2.9358e+107
-1.69028e+105
8.70999e+105
6.04181e+104
-1.14062e+111
1.01891e+112
2.51315e+112
2.62098e+112
1.48637e+112
3.59367e+111
-7.27698e+110
-7.51459e+110
-1.8252e+110
-1.20796e+109
-1.60305e+107
-2.89279e+107
-7.76299e+105
8.16513e+105
6.34211e+104
-1.48765e+111
6.80005e+111
2.04436e+112
2.41019e+112
1.50727e+112
4.32661e+111
-4.4089e+110
-7.53298e+110
-2.0394e+110
-1.50603e+109
-4.97065e+106
-2.85308e+107
-1.2749e+106
8.32621e+105
7.60783e+104
-1.56914e+111
4.29174e+111
1.64782e+112
2.20069e+112
1.51381e+112
5.04646e+111
-1.21516e+110
-7.4232e+110
-2.25864e+110
-1.84895e+109
3.7998e+106
-2.75782e+107
-1.67786e+106
8.33137e+105
8.80154e+104
-1.47997e+111
2.45848e+111
1.30252e+112
1.9702e+112
1.50707e+112
5.75366e+111
2.31814e+110
-7.23118e+110
-2.49231e+110
-2.23398e+109
9.81351e+106
-2.54473e+107
-1.93944e+106
7.54948e+105
8.57011e+104
-1.28768e+111
1.16997e+111
9.86742e+111
1.72426e+112
1.48584e+112
6.45953e+111
6.27618e+110
-6.91434e+110
-2.73528e+110
-2.66016e+109
1.23231e+107
-2.23446e+107
-2.02137e+106
6.1161e+105
6.88104e+104
-1.06429e+111
3.32696e+110
7.16515e+111
1.4857e+112
1.45965e+112
7.1704e+111
1.07609e+111
-6.40388e+110
-2.9759e+110
-3.10914e+109
1.08742e+107
-1.87829e+107
-1.9066e+106
4.43681e+105
4.29254e+104
-8.46272e+110
-1.7857e+110
5.02849e+111
1.2618e+112
1.41861e+112
7.84539e+111
1.58245e+111
-5.64388e+110
-3.20418e+110
-3.55178e+109
5.3499e+106
-1.50853e+107
-1.60009e+106
2.82577e+105
8.70931e+103
-6.43047e+110
-4.68975e+110
3.30297e+111
1.04197e+112
1.3456e+112
8.44809e+111
2.15301e+111
-4.56619e+110
-3.40938e+110
-3.94718e+109
-3.97405e+106
-1.12769e+107
-1.13185e+106
1.34686e+105
-1.70259e+104
-4.59357e+110
-5.90524e+110
1.93052e+111
8.21837e+111
1.24289e+112
8.94486e+111
2.79172e+111
-3.13352e+110
-3.57837e+110
-4.11567e+109
-1.47513e+107
-6.97471e+106
-5.31559e+105
2.51358e+104
-2.12938e+104
-3.03187e+110
-5.8333e+110
9.05252e+110
6.12742e+111
1.11109e+112
9.26633e+111
3.47428e+111
-1.3152e+110
-3.70996e+110
-4.01855e+109
-2.24406e+107
-2.63522e+106
-4.48421e+105
-2.58492e+104
-2.3088e+104
-1.82094e+110
-4.91799e+110
1.99125e+110
4.21261e+111
9.51478e+111
9.35583e+111
4.19211e+111
8.99844e+109
-3.81893e+110
-3.87827e+109
-2.51516e+107
1.28574e+105
-8.02247e+105
-7.99218e+104
-3.50049e+104
-9.63283e+109
-3.58629e+110
-2.22496e+110
2.5427e+111
7.73896e+111
9.18889e+111
4.94067e+111
3.41489e+110
-3.98137e+110
-5.04331e+109
-1.94454e+107
-8.59576e+104
-1.0005e+106
-4.50531e+105
-2.35657e+105
-4.00636e+109
-2.1773e+110
-4.07205e+110
1.16761e+111
5.88386e+111
8.73992e+111
5.69485e+111
6.16148e+110
-4.0578e+110
-9.67445e+109
-1.47385e+108
-5.8643e+106
-2.97486e+103
-6.71246e+105
-5.45533e+105
-8.03901e+108
-9.2144e+109
-4.00867e+110
1.14849e+110
4.01795e+111
7.96945e+111
6.41141e+111
9.49161e+110
-3.3987e+110
-1.20507e+110
-6.44855e+108
-8.15995e+107
-6.0561e+107
-3.61046e+107
-1.24157e+107
2.05119e+108
-5.9622e+108
-2.55881e+110
-5.80019e+110
2.19726e+111
6.82826e+111
7.00095e+111
1.40039e+111
-2.53719e+110
-1.54652e+110
-3.63953e+109
-1.55734e+109
-1.42748e+109
-1.09166e+109
-4.31042e+108
3.03286e+108
8.50405e+108
-5.72221e+109
-8.53118e+110
5.25303e+110
5.32661e+111
7.33832e+111
1.93599e+111
-1.47981e+110
-1.30335e+110
-7.46001e+109
-3.5738e+109
-2.4501e+109
-3.30382e+109
-2.98058e+109
7.63116e+108
1.45215e+109
-2.08919e+109
-6.51453e+110
-7.78216e+110
3.58862e+111
7.30316e+111
2.4327e+111
-2.6246e+109
-8.30639e+109
-2.11565e+109
-1.3554e+109
-2.7097e+109
-6.62035e+109
-3.72661e+109
4.10318e+109
1.28075e+109
-4.9731e+109
-4.55915e+110
-1.26652e+111
1.8411e+111
6.76767e+111
2.79814e+111
1.46189e+110
-7.4097e+109
-1.63886e+109
-2.44949e+109
-7.49846e+109
-6.40347e+109
-3.2333e+109
-8.64466e+110
-4.07124e+110
-1.9768e+110
-6.05967e+110
-1.08126e+111
7.57341e+110
5.74161e+111
2.961e+111
3.56201e+110
9.54462e+108
-1.40141e+109
-6.68207e+108
-1.62102e+109
-3.08466e+109
-3.22075e+109
-9.07338e+111
-3.07102e+111
-2.00793e+111
-1.3992e+111
-5.21257e+110
1.67599e+111
5.19511e+111
2.80511e+111
6.54441e+110
1.32386e+110
2.34241e+109
-6.56658e+108
-8.64845e+108
-1.57925e+109
-2.61924e+109
1.33551e+113
4.25776e+112
1.23631e+112
4.72188e+111
2.38639e+111
5.85368e+111
8.41904e+111
3.45063e+111
9.45084e+110
2.80172e+110
7.44684e+109
1.25133e+109
-1.5364e+108
-9.47553e+108
-2.16942e+109
9.62689e+113
2.72326e+113
1.70287e+113
1.04949e+113
6.54364e+112
4.06793e+112
2.07287e+112
8.39539e+111
2.63165e+111
7.07594e+110
1.73578e+110
3.35046e+109
8.49613e+107
-9.39795e+108
-1.94795e+109
-2.28995e+115
-3.97849e+114
-5.69865e+113
-1.86062e+112
8.77632e+112
8.97765e+112
5.246e+112
1.99548e+112
6.64251e+111
2.02825e+111
6.11949e+110
1.96906e+110
7.15487e+109
2.44701e+109
4.10915e+109
2.15849e+116
1.35105e+115
-4.41091e+114
-2.11461e+114
-7.1343e+113
-1.23153e+113
2.63097e+112
2.14991e+112
8.7311e+111
3.08037e+111
1.07722e+111
4.04291e+110
1.71797e+110
8.68013e+109
1.35247e+110
2.08089e+117
3.60454e+116
6.91025e+115
1.12197e+115
8.43101e+113
-1.85476e+113
9.74957e+111
2.89235e+112
1.75974e+112
1.108e+112
7.44994e+111
5.0407e+111
3.16182e+111
1.7621e+111
1.45462e+111
-2.32178e+118
1.3569e+117
5.79181e+116
5.85167e+115
8.04377e+114
3.94452e+113
1.19273e+113
1.65296e+113
1.28794e+113
9.49615e+112
6.84128e+112
4.74218e+112
2.96877e+112
1.60146e+112
9.83038e+111
-2.88162e+119
-2.57179e+118
1.81031e+117
3.99087e+116
-2.76543e+115
3.58565e+114
-2.71729e+112
-5.75727e+113
-6.04317e+113
-5.9382e+113
-5.18395e+113
-3.91169e+113
-2.41668e+113
-1.10527e+113
-3.5347e+112
2.92236e+120
-2.95396e+119
-2.09161e+118
2.89311e+117
1.90157e+116
-5.38603e+115
-1.59356e+115
-1.62226e+115
-1.362e+115
-1.06788e+115
-8.04938e+114
-5.68021e+114
-3.54553e+114
-1.82215e+114
-6.51206e+113
-1.93391e+121
2.54731e+120
-2.82174e+119
-1.85853e+118
2.47394e+117
5.0392e+115
-1.38579e+116
-7.36451e+115
-5.36513e+115
-3.64497e+115
-2.37298e+115
-1.52908e+115
-9.68119e+114
-5.81235e+114
-2.32862e+114
-7.83967e+121
-1.6628e+121
2.29193e+120
-2.7398e+119
-1.86111e+118
1.96881e+117
-3.37727e+116
-4.92506e+116
-4.01353e+116
-3.43814e+116
-2.76926e+116
-2.0507e+116
-1.33069e+116
-7.15062e+115
-2.80161e+115
1.4433e+123
-8.0917e+121
-1.47724e+121
2.11865e+120
-2.74762e+119
-2.41294e+118
-2.87738e+117
-4.27792e+117
-3.65832e+117
-2.83736e+117
-2.13831e+117
-1.53958e+117
-1.0134e+117
-5.80691e+116
-2.47802e+116
4.70896e+123
1.29808e+123
-8.08515e+121
-1.36957e+121
1.98787e+120
-2.57578e+119
-2.18536e+117
2.53835e+118
2.70258e+118
2.74687e+118
2.55349e+118
2.13986e+118
1.5701e+118
9.7077e+117
4.74746e+117
-2.77804e+125
1.23399e+124
3.69463e+123
-2.08711e+122
-4.01631e+121
8.12197e+120
9.36833e+119
1.34699e+120
1.18063e+120
9.36111e+119
7.11603e+119
5.34423e+119
3.83062e+119
2.69223e+119
2.0248e+119
2.00108e+126
-2.6145e+125
1.06251e+124
3.72036e+123
-1.66415e+122
-3.63264e+121
1.29429e+121
4.22266e+120
3.76197e+120
3.06541e+120
2.12765e+120
1.37369e+120
9.07492e+119
6.26778e+119
3.79034e+119
1.227e+127
1.71425e+126
-2.43804e+125
1.08722e+124
3.87209e+123
-1.09445e+122
-3.68106e+121
1.29552e+121
4.33527e+120
3.48767e+120
2.74977e+120
2.04689e+120
1.37898e+120
8.22897e+119
4.71392e+119
-2.80411e+128
1.23331e+127
1.53746e+126
-2.27483e+125
-6.05667e+122
5.23358e+123
2.37677e+122
-1.72839e+122
-4.73335e+121
-2.4047e+121
-1.39555e+121
-6.275e+120
-2.18669e+120
-3.52693e+119
-1.03662e+119
-8.77434e+128
-2.55881e+128
1.20195e+127
1.35605e+126
-2.07955e+125
7.54633e+123
2.04702e+123
-3.07102e+122
-1.31618e+122
-6.09821e+121
-3.95956e+121
-2.51136e+121
-1.48868e+121
-7.03791e+120
-3.23158e+120
-2.82796e+128
1.2968e+127
1.50067e+126
-2.58529e+125
5.60957e+123
2.20389e+123
-7.47445e+122
-3.67788e+122
-1.6366e+122
-8.51675e+121
-4.26814e+121
-2.53661e+121
-2.05028e+121
-1.34874e+121
-7.33389e+120
1.20414e+127
1.9844e+126
-2.34735e+125
-1.25992e+124
-1.09965e+123
-1.3339e+123
-7.96349e+122
-4.29373e+122
-2.33572e+122
-1.23701e+122
-6.02557e+121
-2.99318e+121
-2.16766e+121
-1.41687e+121
-7.25478e+120
1.46859e+126
1.78022e+124
-2.29052e+124
-9.4064e+123
-4.00281e+123
-1.86229e+123
-9.00743e+122
-4.53103e+122
-2.34901e+122
-1.22056e+122
-6.2097e+121
-3.38702e+121
-1.65272e+121
-5.4139e+120
2.97397e+119
-1.19638e+125
-2.21908e+124
-6.36529e+123
-2.42849e+123
-9.42649e+122
-3.77267e+122
-1.5261e+122
-5.89871e+121
-1.73414e+121
1.82212e+120
1.42532e+121
2.49352e+121
1.14368e+121
4.64764e+120
1.74335e+120
8.23492e+121
6.77261e+121
4.20516e+122
3.28145e+122
2.24103e+122
1.54315e+122
1.08455e+122
7.97415e+121
8.01007e+121
1.34122e+122
2.16677e+121
-8.1929e+120
-7.32664e+119
-1.05318e+119
-7.91078e+118
7.63749e+122
2.52079e+122
1.15786e+122
6.64e+121
4.06459e+121
2.62558e+121
1.85326e+121
1.35331e+121
2.33736e+121
1.02851e+122
9.07737e+121
3.04164e+121
3.80847e+120
1.45525e+120
6.39031e+119
3.38688e+120
4.43522e+120
-2.06534e+120
-4.11134e+120
-4.59491e+120
-3.7356e+120
-1.05692e+119
2.91206e+120
4.52928e+120
4.81433e+121
7.85756e+121
5.3876e+121
3.19845e+121
1.87999e+121
1.08463e+121
-1.22505e+121
-4.81911e+120
-1.91398e+120
-9.21514e+119
-5.11829e+119
-2.6583e+119
-2.03261e+119
-1.61936e+119
3.09326e+116
2.3973e+119
7.46196e+120
1.14938e+121
1.03644e+121
7.94096e+120
5.86068e+120
1.40231e+120
5.38312e+119
2.48359e+119
1.48852e+119
1.03115e+119
6.70907e+118
2.38293e+118
-1.10299e+118
-2.23887e+118
-1.21319e+119
3.80585e+118
2.21489e+119
2.56456e+119
2.31308e+119
2.0201e+119
-7.10414e+118
-2.37611e+118
-1.71062e+118
-1.38663e+118
-1.20614e+118
-9.76655e+117
-4.94496e+117
-8.52397e+116
1.75537e+117
2.62903e+117
-4.57777e+118
-6.40735e+118
-5.56017e+118
-4.4789e+118
-3.66267e+118
-1.23209e+118
-4.70288e+117
-2.17579e+117
-1.34232e+117
-9.60895e+116
-7.1467e+116
-6.46884e+116
-5.52795e+116
-1.63211e+116
4.36059e+116
1.83787e+117
1.52135e+117
9.30881e+116
5.94867e+116
4.13773e+116
5.69262e+116
1.70064e+116
1.55783e+116
1.46153e+116
1.33562e+116
9.79065e+115
1.50769e+115
-7.28218e+115
-1.77357e+116
-2.81363e+116
-1.41805e+114
2.47691e+116
2.85562e+116
2.4668e+116
1.92391e+116
1.88378e+116
7.55296e+115
3.09936e+115
1.56054e+115
9.34805e+114
6.45261e+114
5.90705e+114
1.65557e+114
-1.75287e+115
-6.65388e+115
-1.46654e+116
-1.49856e+116
-1.20772e+116
-9.28545e+115
-7.04307e+115
-2.19075e+115
-8.22144e+114
-3.9207e+114
-2.46612e+114
-1.705e+114
-9.05174e+113
1.774e+113
1.36848e+114
2.56038e+114
2.7018e+114
-1.91814e+113
-2.29222e+114
-2.55993e+114
-2.19163e+114
-1.73216e+114
7.13394e+113
2.26817e+113
2.30285e+113
2.1411e+113
1.86084e+113
1.28689e+113
5.49379e+112
6.62678e+112
2.93953e+113
8.76485e+113
1.60361e+114
1.60637e+114
1.29539e+114
9.78639e+113
6.95662e+113
2.82531e+113
1.05829e+113
4.50929e+112
2.62571e+112
1.81999e+112
1.33628e+112
9.21854e+111
2.50709e+110
-1.49559e+112
-2.58901e+112
-2.35278e+112
-1.19226e+112
-7.47369e+111
-1.4603e+112
-4.43067e+112
-2.12435e+112
-7.32878e+111
-5.56497e+111
-4.72939e+111
-3.91754e+111
-2.38563e+111
4.44008e+109
2.46644e+111
3.66123e+111
8.86788e+110
-4.2979e+111
-5.67957e+111
-5.63891e+111
-1.02902e+112
-3.05637e+112
-4.44832e+111
-1.75862e+111
-7.01224e+110
-3.51827e+110
-2.22439e+110
-1.83756e+110
-1.76756e+110
-2.35353e+108
6.11786e+110
1.75561e+111
3.01949e+111
3.18665e+111
2.93022e+111
1.32368e+110
-1.30727e+112
5.15838e+110
1.94944e+110
9.59072e+109
6.2352e+109
4.35665e+109
2.18336e+109
-9.78134e+108
-5.04853e+109
-9.59575e+109
-1.1854e+110
-6.02423e+109
1.15169e+110
8.56011e+110
1.80027e+111
-1.87644e+111
-9.35639e+108
-2.09127e+108
-4.46794e+108
-5.00659e+108
-4.6595e+108
-3.44597e+108
-1.76647e+108
-1.95841e+108
-8.64577e+108
-3.44462e+109
-7.08978e+109
-8.28614e+109
3.29018e+109
6.26731e+110
2.15065e+111
-8.24989e+108
-3.3426e+108
-1.4002e+108
-7.43343e+107
-4.66474e+107
-3.20766e+107
-1.98684e+107
7.75403e+106
-5.37832e+107
-1.42358e+109
-3.60763e+109
-6.06197e+109
-7.97071e+109
-4.82187e+109
1.38176e+110
8.36094e+107
3.22284e+107
2.06089e+107
1.56477e+107
1.24882e+107
9.08299e+106
6.11484e+106
1.09524e+107
-1.12422e+108
-1.90157e+109
-4.53342e+109
-7.39228e+109
-1.06646e+110
-1.4138e+110
-1.66167e+110
7.52742e+106
3.21076e+106
1.33322e+106
6.72299e+105
4.59052e+105
7.59867e+105
3.33483e+106
1.59493e+107
-1.25765e+108
-2.28163e+109
-5.38198e+109
-8.78606e+109
-1.27249e+110
-1.72385e+110
-2.20394e+110
-9.17227e+105
-3.66143e+105
-2.04027e+105
-1.44044e+105
-8.42086e+104
3.04866e+105
3.1385e+106
1.83438e+107
-1.45505e+108
-2.44582e+109
-5.7604e+109
-9.74222e+109
-1.44873e+110
-2.00086e+110
-2.60522e+110
-1.99168e+104
-1.33324e+104
-3.61437e+102
4.30624e+103
2.98571e+104
4.01261e+105
3.50591e+106
2.15333e+107
-1.69082e+108
-2.17973e+109
-5.21879e+109
-9.21296e+109
-1.42876e+110
-2.04555e+110
-2.75525e+110
1.78636e+104
7.19396e+103
2.67012e+103
1.08395e+103
2.31107e+104
4.03932e+105
3.88257e+106
2.56571e+107
-5.84522e+107
-1.52714e+109
-4.05822e+109
-7.46964e+109
-1.18672e+110
-1.7403e+110
-2.41107e+110
-1.51968e+103
-1.16828e+103
-1.60029e+103
-1.71327e+103
1.88527e+104
3.91674e+105
4.16042e+106
3.08983e+107
-1.41031e+107
-8.45171e+108
-2.54915e+109
-4.89958e+109
-7.91159e+109
-1.17486e+110
-1.6545e+110
-6.82087e+102
-1.01748e+103
-1.48803e+103
-1.56026e+103
1.72691e+104
3.69769e+105
4.23452e+106
3.60122e+107
4.24468e+106
-3.26056e+108
-1.09179e+109
-2.30705e+109
-3.96372e+109
-6.09685e+109
-8.80022e+109
-3.62897e+102
-9.69495e+102
-1.59147e+103
-1.61123e+103
1.61796e+104
3.51301e+105
4.21722e+106
4.31186e+107
3.89538e+107
-6.24205e+107
-3.14434e+108
-7.71454e+108
-1.45983e+109
-2.40025e+109
-3.65389e+109
-4.79537e+102
-1.16529e+103
-1.84536e+103
-1.66865e+103
1.52482e+104
3.41424e+105
4.54098e+106
4.51319e+107
6.88524e+107
5.58564e+107
7.05427e+105
-1.12957e+108
-3.0463e+108
-5.95398e+108
-1.01263e+109
-5.64988e+102
-1.39073e+103
-2.1661e+103
-1.68228e+103
1.42104e+104
3.16306e+105
4.9474e+106
3.80195e+107
6.49727e+107
8.0456e+107
8.75776e+107
8.3348e+107
6.35943e+107
2.19584e+107
-5.12985e+107
-6.5546e+102
-1.63174e+103
-2.5117e+103
-1.63791e+103
1.37835e+104
2.63765e+105
5.61201e+106
2.92156e+107
4.40331e+107
5.68421e+107
6.97576e+107
8.25549e+107
9.51559e+107
1.06814e+108
1.15363e+108
-7.4799e+102
-1.87759e+103
-2.85375e+103
-1.51713e+103
1.48549e+104
2.05963e+105
5.0789e+106
1.84675e+107
2.47029e+107
3.02141e+107
3.61403e+107
4.30428e+107
5.12885e+107
6.08911e+107
7.15061e+107
-8.5326e+102
-2.1563e+103
-3.22817e+103
-1.28342e+103
1.77415e+104
1.67139e+105
2.58754e+106
9.86119e+106
1.2513e+107
1.43395e+107
1.61582e+107
1.83667e+107
2.1175e+107
2.45781e+107
2.84714e+107
-9.69498e+102
-2.47105e+103
-3.65368e+103
-9.33696e+102
2.28477e+104
1.62551e+105
1.60995e+106
4.13764e+106
5.34576e+106
6.01775e+106
6.54511e+106
7.18048e+106
7.95687e+106
8.84187e+106
9.8042e+106
-1.09372e+103
-2.81144e+103
-4.12242e+103
-6.16908e+102
2.80944e+104
1.8684e+105
6.99902e+105
1.34526e+106
1.74897e+106
2.00584e+106
2.20122e+106
2.39942e+106
2.60959e+106
2.82368e+106
3.03474e+106
-1.20141e+103
-3.23312e+103
-5.07193e+103
-2.38413e+103
1.7406e+104
7.3713e+104
1.70393e+105
2.82195e+105
3.79615e+105
4.56834e+105
5.20231e+105
5.78751e+105
6.3458e+105
6.87023e+105
7.35304e+105
-9.51614e+102
-2.98977e+103
-5.79722e+103
-8.37583e+103
-8.76456e+103
-4.5766e+103
5.27807e+103
1.8983e+104
3.35187e+104
4.74191e+104
6.03855e+104
7.26893e+104
8.43599e+104
9.52037e+104
1.05129e+105
-3.20539e+102
-1.63724e+103
-3.63983e+103
-6.01623e+103
-8.26833e+103
-9.92153e+103
-1.05226e+104
-1.00057e+104
-8.83713e+103
-7.45821e+103
-6.00905e+103
-4.51774e+103
-3.00051e+103
-1.4827e+103
1.09054e+101
2.5585e+102
-1.70396e+102
-8.55976e+102
-1.62451e+103
-2.32207e+103
-2.87922e+103
-3.25706e+103
-3.45153e+103
-3.51364e+103
-3.50901e+103
-3.47076e+103
-3.40404e+103
-3.30713e+103
-3.18225e+103
-3.03286e+103
3.6797e+102
3.37815e+102
2.20316e+102
8.18373e+101
-5.16272e+101
-1.66323e+102
-2.58211e+102
-3.27302e+102
-3.77065e+102
-4.13075e+102
-4.39298e+102
-4.57322e+102
-4.67866e+102
-4.7178e+102
-4.69249e+102
2.02072e+102
2.31378e+102
2.22643e+102
1.99302e+102
1.6911e+102
1.38991e+102
1.1168e+102
8.81762e+101
6.87978e+101
5.31772e+101
4.05734e+101
3.02948e+101
2.18449e+101
1.48657e+101
9.30637e+100
6.38826e+101
7.49938e+101
7.48007e+101
7.02108e+101
6.32865e+101
5.57881e+101
4.84797e+101
4.18075e+101
3.61367e+101
3.14863e+101
2.75946e+101
2.42333e+101
2.12786e+101
1.86633e+101
1.63766e+101
1.23169e+101
1.40405e+101
1.38662e+101
1.3145e+101
1.20603e+101
1.08514e+101
9.62912e+100
8.45689e+100
7.4424e+100
6.61809e+100
5.91451e+100
5.28353e+100
4.70891e+100
4.18521e+100
3.71219e+100
1.15514e+100
1.50698e+100
1.43532e+100
1.33773e+100
1.22231e+100
1.10368e+100
9.87338e+99
8.77427e+99
7.83761e+99
7.07779e+99
6.41108e+99
5.79367e+99
5.21658e+99
4.67873e+99
4.18107e+99
-2.55921e+99
-3.4991e+98
3.05734e+98
4.40409e+98
4.41539e+98
4.08629e+98
3.66761e+98
3.27556e+98
2.95878e+98
2.69787e+98
2.46071e+98
2.23586e+98
2.02219e+98
1.82037e+98
1.62972e+98
-1.02279e+99
-6.2584e+98
-2.68753e+98
-1.29287e+98
-6.91784e+97
-4.15849e+97
-2.78274e+97
-2.02538e+97
-1.58139e+97
-1.30313e+97
-1.10734e+97
-9.53659e+96
-8.25895e+96
-7.17443e+96
-6.27339e+96
1.84761e+98
-2.57296e+97
-4.28748e+97
-3.23397e+97
-2.1417e+97
-1.40819e+97
-9.46065e+96
-6.6187e+96
-4.86196e+96
-3.71364e+96
-2.91121e+96
-2.32644e+96
-1.88914e+96
-1.55457e+96
-1.29283e+96
1.47968e+98
6.37743e+97
1.90449e+97
4.60704e+96
2.76892e+94
-1.25202e+96
-1.44088e+96
-1.3104e+96
-1.09711e+96
-8.80475e+95
-6.93208e+95
-5.43196e+95
-4.26624e+95
-3.36418e+95
-2.65596e+95
3.81448e+96
1.06684e+97
6.42301e+96
3.45713e+96
1.75534e+96
8.5506e+95
3.89467e+95
1.52136e+95
3.25408e+94
-2.60352e+94
-5.20806e+94
-6.02677e+94
-5.89679e+94
-5.29777e+94
-4.53988e+94
-1.21498e+97
-4.64031e+96
-1.28158e+96
-2.23371e+95
8.08542e+94
1.46998e+95
1.4178e+95
1.18261e+95
9.14875e+94
6.72261e+94
4.77327e+94
3.31194e+94
2.2589e+94
1.5212e+94
9.96103e+93
-2.35187e+96
-1.60671e+96
-8.15617e+95
-4.13229e+95
-2.10025e+95
-1.07509e+95
-5.49257e+94
-2.7209e+94
-1.22669e+94
-4.16914e+93
1.02999e+92
2.1766e+93
2.99979e+93
3.13357e+93
2.89407e+93
2.11763e+95
1.15602e+91
-4.82759e+94
-4.81414e+94
-3.79344e+94
-2.84023e+94
-2.12575e+94
-1.59308e+94
-1.18231e+94
-8.66598e+93
-6.28922e+93
-4.53075e+93
-3.24492e+93
-2.31591e+93
-1.64333e+93
1.23177e+95
6.64742e+94
3.04622e+94
1.44072e+94
6.92079e+93
3.27908e+93
1.44625e+93
5.06293e+92
2.68576e+91
-2.07722e+92
-3.08696e+92
-3.36114e+92
-3.24431e+92
-2.94076e+92
-2.54665e+92
1.3076e+94
9.49138e+93
5.69157e+93
3.5168e+93
2.25248e+93
1.50631e+93
1.0492e+93
7.51152e+92
5.44725e+92
3.96853e+92
2.89628e+92
2.11575e+92
1.54673e+92
1.13223e+92
8.31701e+91
-6.00675e+91
1.39154e+92
1.63829e+92
1.41098e+92
1.1293e+92
8.98577e+91
7.19616e+91
5.7598e+91
4.58919e+91
3.63519e+91
2.86236e+91
2.2426e+91
1.74996e+91
1.3622e+91
1.05864e+91
-9.10007e+91
-5.6483e+91
-3.01779e+91
-1.69964e+91
-1.00519e+91
-6.20954e+90
-3.97076e+90
-2.59322e+90
-1.70162e+90
-1.10814e+90
-7.11007e+89
-4.468e+89
-2.73006e+89
-1.60579e+89
-9.01687e+88
-4.92857e+90
-3.66323e+90
-2.32505e+90
-1.53773e+90
-1.06226e+90
-7.64879e+89
-5.692e+89
-4.32489e+89
-3.31246e+89
-2.53737e+89
-1.93839e+89
-1.47536e+89
-1.11883e+89
-8.46632e+88
-6.41676e+88
-4.04873e+88
-3.32034e+88
-2.30002e+88
-1.64298e+88
-1.21601e+88
-9.29888e+87
-7.29851e+87
-5.82537e+87
-4.67221e+87
-3.7375e+87
-2.97346e+87
-2.35106e+87
-1.84872e+87
-1.44884e+87
-1.13739e+87
2.43108e+86
1.28768e+86
5.81516e+85
2.98312e+85
1.67178e+85
1.00195e+85
6.33365e+84
4.15773e+84
2.78801e+84
1.89024e+84
1.29095e+84
8.87798e+83
6.15227e+83
4.30422e+83
3.05218e+83
-1.4773e+85
-1.33469e+84
1.18419e+84
1.47661e+84
1.2542e+84
9.78192e+83
7.41627e+83
5.54331e+83
4.09045e+83
2.98595e+83
2.16294e+83
1.55961e+83
1.12321e+83
8.11967e+82
5.9072e+82
-8.27689e+84
-3.88835e+84
-1.65442e+84
-7.86241e+83
-4.0885e+83
-2.28076e+83
-1.34681e+83
-8.30709e+82
-5.2729e+82
-3.40558e+82
-2.22633e+82
-1.47139e+82
-9.82878e+81
-6.63287e+81
-4.56233e+81
-6.74914e+83
-4.20689e+83
-2.1849e+83