/*--------------------------------*- C++ -*----------------------------------*\
  =========                 |
  \\      /  F ield         | OpenFOAM: The Open Source CFD Toolbox
   \\    /   O peration     | Website:  https://openfoam.org
    \\  /    A nd           | Version:  8
     \\/     M anipulation  |
\*---------------------------------------------------------------------------*/
FoamFile
{
    version     2.0;
    format      ascii;
    class       volScalarField;
    location    "200";
    object      epsilon;
}
// * * * * * * * * * * * * * * * * * * * * * * * * * * * * * * * * * * * * * //

dimensions      [0 2 -3 0 0 0 0];

internalField   nonuniform List<scalar> 
7320
(
11606.3
10154
9294.16
8790.65
8707.62
8765.27
8909.3
9060.01
9210.24
9369.17
9537.69
9714.22
9896.56
10083.4
10274.5
10469.5
10667.8
10869.2
11073.7
11281.5
11491.6
11703.3
11915.9
12129
12340.9
12550.1
12755.8
12957.2
13152
13338.8
13516.6
13684.9
13842.4
13988.2
14123.1
14247.6
14360.9
14463.1
14555.2
14638.5
14712.8
14778.2
14836.8
14889.8
14936.6
14977
15012.6
15044.5
15072.3
15095.4
15116.1
15135.3
15151.9
15165.3
15176.9
15187.6
15196.6
15203.1
15209.2
15215.7
15221.1
15224.6
15227.7
15230.9
15233.4
15234.3
15235.8
15238.1
15239.8
15240.1
15240.5
15241.4
15241.9
15241.3
15241.4
15242.5
15243.1
15242.7
15242.4
15242.7
15242.6
15241.6
15241.4
15242.1
15242.3
15241.7
15241.4
15241.5
15241.3
15240.4
15240.1
15240.6
15240.7
15240.1
15239.8
15239.9
15239.7
15238.9
15238.7
15239
15239
15238.5
15238.2
15238.2
15237.9
15237.4
15237.1
15237.1
15237
15236.6
15236.3
15236
15235.8
15235.4
15235
15234.6
15234.3
15234
15233.6
15233
15232.9
15231.9
3748.98
3918.02
3591.22
3367.6
3189.18
2951.75
2901.48
2933.11
2980.64
3033.96
3091.17
3151.19
3213.12
3276.46
3341.08
3406.9
3473.74
3541.51
3610.37
3680.32
3751.07
3822.38
3894.12
3966.03
4037.63
4108.36
4178.08
4246.36
4312.47
4375.83
4436.24
4493.41
4546.94
4596.42
4642.32
4684.66
4723.2
4757.84
4789.14
4817.38
4842.56
4864.64
4884.57
4902.56
4918.41
4932.03
4944.12
4954.88
4964.22
4971.93
4979.01
4985.54
4991.15
4995.59
4999.55
5003.14
5006.12
5008.2
5010.36
5012.59
5014.41
5015.5
5016.57
5017.62
5018.42
5018.63
5019.2
5020.02
5020.6
5020.62
5020.77
5021.04
5021.16
5020.85
5020.99
5021.4
5021.62
5021.38
5021.32
5021.38
5021.3
5020.88
5020.89
5021.14
5021.22
5020.94
5020.87
5020.88
5020.76
5020.38
5020.37
5020.55
5020.57
5020.32
5020.24
5020.24
5020.13
5019.83
5019.8
5019.92
5019.9
5019.69
5019.58
5019.55
5019.44
5019.22
5019.13
5019.14
5019.09
5018.93
5018.8
5018.7
5018.59
5018.45
5018.28
5018.12
5018.01
5017.88
5017.74
5017.51
5017.52
5017.06
1528.88
1988.52
1881.73
1763.91
1653.4
1575.64
1609.79
1660.46
1704.9
1746.43
1787.41
1828.46
1869.65
1910.98
1952.61
1994.59
2036.94
2079.67
2123
2166.93
2211.31
2256.01
2301.01
2346.11
2391.03
2435.38
2479.17
2522.03
2563.51
2603.22
2641.09
2676.87
2710.35
2741.22
2769.94
2796.38
2820.41
2841.94
2861.43
2878.97
2894.59
2908.21
2920.62
2931.81
2941.63
2949.99
2957.48
2964.12
2969.85
2974.5
2978.92
2982.99
2986.45
2989.11
2991.55
2993.75
2995.55
2996.71
2998.1
2999.52
3000.65
3001.24
3001.9
3002.53
3002.99
3003.02
3003.44
3003.99
3004.35
3004.28
3004.38
3004.53
3004.57
3004.3
3004.45
3004.75
3004.89
3004.67
3004.65
3004.66
3004.58
3004.24
3004.31
3004.51
3004.55
3004.32
3004.29
3004.28
3004.17
3003.87
3003.92
3004.07
3004.07
3003.86
3003.83
3003.82
3003.72
3003.48
3003.51
3003.59
3003.57
3003.4
3003.34
3003.31
3003.22
3003.04
3003.01
3003.01
3002.97
3002.84
3002.75
3002.68
3002.59
3002.48
3002.36
3002.24
3002.16
3002.07
3001.96
3001.79
3001.84
3001.44
720.911
1167.98
1164.29
1098.3
1045.11
1066.74
1135.6
1188.49
1227.56
1261.64
1294.3
1326.51
1358.51
1390.42
1422.41
1454.56
1486.9
1519.47
1552.5
1585.96
1619.75
1653.77
1688.03
1722.36
1756.53
1790.26
1823.59
1856.18
1887.69
1917.81
1946.53
1973.64
1998.97
2022.28
2044
2063.98
2082.1
2098.29
2112.97
2126.16
2137.88
2148.07
2157.41
2165.82
2173.18
2179.41
2185.01
2189.97
2194.23
2197.65
2200.98
2204.04
2206.62
2208.55
2210.38
2212.01
2213.33
2214.14
2215.2
2216.29
2217.13
2217.52
2218.02
2218.49
2218.81
2218.78
2219.13
2219.56
2219.84
2219.74
2219.81
2219.92
2219.94
2219.68
2219.84
2220.09
2220.2
2219.99
2219.98
2219.99
2219.9
2219.61
2219.7
2219.87
2219.9
2219.69
2219.68
2219.67
2219.57
2219.31
2219.38
2219.51
2219.51
2219.32
2219.3
2219.29
2219.2
2218.99
2219.04
2219.12
2219.1
2218.94
2218.9
2218.87
2218.79
2218.64
2218.63
2218.64
2218.6
2218.49
2218.42
2218.35
2218.28
2218.19
2218.08
2217.99
2217.93
2217.85
2217.76
2217.61
2217.68
2217.32
358.823
725.643
779.358
748.169
743.093
821.697
902.804
951.91
984.828
1012.71
1039.34
1065.64
1091.81
1117.93
1144.14
1170.49
1197.01
1223.73
1250.86
1278.34
1306.12
1334.09
1362.28
1390.52
1418.64
1446.38
1473.81
1500.62
1526.53
1551.26
1574.86
1597.12
1617.89
1636.99
1654.82
1671.2
1686.05
1699.3
1711.32
1722.11
1731.69
1739.98
1747.64
1754.52
1760.54
1765.59
1770.17
1774.21
1777.67
1780.42
1783.16
1785.67
1787.77
1789.32
1790.82
1792.14
1793.2
1793.82
1794.72
1795.62
1796.31
1796.6
1797.01
1797.39
1797.64
1797.58
1797.89
1798.27
1798.49
1798.38
1798.45
1798.53
1798.54
1798.3
1798.46
1798.68
1798.77
1798.57
1798.57
1798.57
1798.49
1798.23
1798.33
1798.48
1798.51
1798.31
1798.31
1798.3
1798.21
1797.97
1798.06
1798.17
1798.17
1797.99
1797.99
1797.97
1797.89
1797.71
1797.77
1797.83
1797.81
1797.67
1797.64
1797.61
1797.55
1797.41
1797.4
1797.41
1797.38
1797.28
1797.22
1797.17
1797.1
1797.02
1796.93
1796.85
1796.8
1796.73
1796.65
1796.52
1796.59
1796.27
180.965
454.718
539.425
535.29
568.922
681.972
767.411
811.425
838.451
860.946
882.651
904.343
926.122
947.986
970.033
992.263
1014.7
1037.34
1060.39
1083.77
1107.43
1131.27
1155.33
1179.45
1203.47
1227.18
1250.65
1273.59
1295.76
1316.93
1337.13
1356.19
1373.98
1390.33
1405.63
1419.68
1432.42
1443.77
1454.09
1463.34
1471.56
1478.66
1485.25
1491.17
1496.33
1500.66
1504.59
1508.06
1511.02
1513.37
1515.73
1517.9
1519.71
1521.02
1522.32
1523.45
1524.36
1524.88
1525.67
1526.46
1527.05
1527.29
1527.65
1527.97
1528.19
1528.12
1528.4
1528.74
1528.94
1528.82
1528.89
1528.96
1528.96
1528.74
1528.89
1529.1
1529.17
1528.99
1528.99
1528.99
1528.92
1528.67
1528.78
1528.92
1528.94
1528.75
1528.76
1528.75
1528.66
1528.45
1528.54
1528.64
1528.64
1528.48
1528.48
1528.46
1528.39
1528.22
1528.28
1528.34
1528.32
1528.19
1528.17
1528.14
1528.08
1527.95
1527.96
1527.97
1527.93
1527.84
1527.79
1527.74
1527.69
1527.61
1527.53
1527.46
1527.41
1527.35
1527.28
1527.17
1527.23
1526.94
91.0778
278.33
374.665
392.173
455.723
591.645
679.284
718.544
740.225
757.914
775.337
793.123
811.255
829.653
848.351
867.307
886.522
905.984
925.856
946.07
966.564
987.248
1008.16
1029.15
1050.08
1070.76
1091.26
1111.32
1130.72
1149.26
1166.98
1183.7
1199.34
1213.72
1227.2
1239.6
1250.85
1260.87
1270
1278.19
1285.47
1291.75
1297.61
1302.86
1307.45
1311.29
1314.79
1317.87
1320.51
1322.58
1324.71
1326.64
1328.26
1329.43
1330.59
1331.61
1332.42
1332.87
1333.59
1334.31
1334.84
1335.05
1335.38
1335.67
1335.87
1335.8
1336.07
1336.38
1336.55
1336.44
1336.51
1336.57
1336.57
1336.37
1336.52
1336.71
1336.78
1336.6
1336.61
1336.61
1336.54
1336.31
1336.42
1336.55
1336.57
1336.39
1336.41
1336.39
1336.31
1336.11
1336.2
1336.3
1336.29
1336.14
1336.15
1336.13
1336.06
1335.91
1335.97
1336.03
1336.01
1335.88
1335.87
1335.84
1335.78
1335.67
1335.67
1335.68
1335.65
1335.57
1335.52
1335.48
1335.43
1335.36
1335.28
1335.22
1335.18
1335.12
1335.06
1334.95
1335.02
1334.75
46.1094
162.342
254.73
288.381
373.712
526.273
616.527
652.135
669.158
682.522
696.091
710.397
725.323
740.707
756.522
772.685
789.171
805.952
823.168
840.741
858.61
876.69
895.018
913.452
931.87
950.091
968.205
985.953
1003.15
1019.61
1035.38
1050.29
1064.26
1077.13
1089.23
1100.38
1110.5
1119.54
1127.79
1135.2
1141.79
1147.49
1152.81
1157.59
1161.77
1165.26
1168.46
1171.27
1173.68
1175.58
1177.53
1179.32
1180.8
1181.88
1182.95
1183.89
1184.64
1185.06
1185.73
1186.4
1186.9
1187.09
1187.4
1187.68
1187.86
1187.8
1188.06
1188.35
1188.51
1188.41
1188.48
1188.54
1188.53
1188.35
1188.49
1188.67
1188.74
1188.58
1188.59
1188.58
1188.52
1188.31
1188.41
1188.53
1188.55
1188.39
1188.4
1188.39
1188.31
1188.13
1188.21
1188.3
1188.3
1188.16
1188.16
1188.15
1188.08
1187.94
1188
1188.05
1188.03
1187.92
1187.9
1187.88
1187.82
1187.71
1187.72
1187.73
1187.7
1187.62
1187.58
1187.54
1187.49
1187.43
1187.36
1187.3
1187.26
1187.21
1187.15
1187.05
1187.11
1186.87
24.1472
88.7753
165.477
208.743
307.959
473.174
567.73
601.339
614.564
624.082
634.14
645.27
657.283
669.946
683.175
696.848
710.916
725.331
740.212
755.475
771.058
786.88
802.975
819.21
835.475
851.608
867.695
883.496
898.845
913.574
927.731
941.155
953.764
965.417
976.411
986.564
995.811
1004.08
1011.65
1018.46
1024.53
1029.79
1034.72
1039.15
1043.02
1046.26
1049.24
1051.86
1054.11
1055.89
1057.72
1059.39
1060.79
1061.81
1062.82
1063.71
1064.42
1064.83
1065.47
1066.11
1066.58
1066.77
1067.07
1067.34
1067.51
1067.47
1067.72
1067.99
1068.15
1068.06
1068.13
1068.19
1068.19
1068.02
1068.16
1068.33
1068.39
1068.24
1068.25
1068.25
1068.19
1068
1068.09
1068.21
1068.22
1068.07
1068.08
1068.07
1068
1067.83
1067.91
1067.99
1067.99
1067.86
1067.86
1067.85
1067.79
1067.65
1067.71
1067.76
1067.74
1067.63
1067.62
1067.59
1067.54
1067.44
1067.45
1067.46
1067.43
1067.36
1067.32
1067.28
1067.23
1067.17
1067.11
1067.05
1067.01
1066.97
1066.91
1066.82
1066.88
1066.65
13.5132
45.6506
100.259
145.574
250.528
424.794
525.941
559.739
570.288
576.525
583.416
591.632
600.96
611.121
621.978
633.377
645.242
657.512
670.281
683.46
696.99
710.79
724.892
739.171
753.528
767.818
782.121
796.219
809.961
823.194
835.961
848.113
859.57
870.198
880.266
889.595
898.12
905.77
912.793
919.127
924.785
929.704
934.32
938.475
942.12
945.18
947.991
950.473
952.606
954.306
956.051
957.645
958.983
959.961
960.937
961.793
962.482
962.89
963.515
964.127
964.59
964.786
965.083
965.341
965.516
965.487
965.732
965.999
966.155
966.081
966.146
966.206
966.21
966.058
966.194
966.354
966.412
966.279
966.289
966.287
966.23
966.054
966.145
966.252
966.265
966.127
966.139
966.125
966.057
965.9
965.976
966.053
966.047
965.925
965.93
965.914
965.856
965.729
965.783
965.828
965.809
965.71
965.696
965.673
965.623
965.528
965.536
965.542
965.516
965.447
965.41
965.371
965.329
965.271
965.211
965.158
965.124
965.079
965.026
964.945
964.998
964.786
8.23568
22.9292
55.6421
95.4387
197.467
376.252
486.289
522.993
532.352
536.048
540.184
545.76
552.622
560.473
569.138
578.437
588.271
598.566
609.393
620.663
632.313
644.268
656.553
669.055
681.684
694.308
707.002
719.568
731.871
743.768
755.3
766.326
776.77
786.504
795.765
804.383
812.293
819.419
825.982
831.92
837.242
841.888
846.25
850.188
853.651
856.573
859.257
861.632
863.681
865.327
867.006
868.542
869.839
870.799
871.75
872.586
873.265
873.682
874.293
874.889
875.346
875.556
875.851
876.11
876.289
876.279
876.518
876.777
876.933
876.877
876.943
877.004
877.014
876.88
877.008
877.16
877.218
877.099
877.109
877.108
877.056
876.895
876.979
877.078
877.092
876.966
876.975
876.962
876.898
876.754
876.821
876.892
876.887
876.775
876.777
876.761
876.706
876.589
876.637
876.677
876.66
876.568
876.553
876.53
876.482
876.394
876.4
876.404
876.379
876.315
876.279
876.242
876.202
876.147
876.09
876.04
876.008
875.965
875.916
875.84
875.887
875.692
5.4809
12.0197
28.4749
57.38
147.638
324.529
445.002
487.752
497.866
500.025
501.948
505.222
509.862
515.601
522.248
529.61
537.568
546.037
555.069
564.575
574.491
584.745
595.357
606.223
617.263
628.358
639.575
650.738
661.723
672.401
682.806
692.807
702.332
711.26
719.793
727.776
735.138
741.803
747.963
753.558
758.591
763.006
767.153
770.906
774.22
777.032
779.613
781.903
783.887
785.497
787.124
788.614
789.882
790.836
791.77
792.594
793.269
793.703
794.302
794.888
795.344
795.571
795.868
796.129
796.315
796.328
796.56
796.813
796.971
796.934
797.002
797.065
797.081
796.967
797.086
797.229
797.288
797.186
797.195
797.194
797.148
797.003
797.077
797.169
797.184
797.071
797.076
797.063
797.005
796.872
796.931
796.995
796.991
796.89
796.888
796.873
796.821
796.713
796.754
796.79
796.774
796.689
796.673
796.65
796.605
796.523
796.526
796.528
796.505
796.445
796.41
796.375
796.336
796.284
796.23
796.183
796.152
796.111
796.064
795.994
796.036
795.858
3.95929
6.94164
14.1862
31.2282
102.167
268.42
399.098
451.15
464.46
466.438
466.891
468.31
471.03
474.886
479.707
485.3
491.538
498.329
505.706
513.583
521.897
530.579
539.642
548.996
558.565
568.244
578.091
587.951
597.712
607.259
616.614
625.663
634.333
642.512
650.368
657.76
664.615
670.859
676.648
681.931
686.703
690.912
694.864
698.453
701.636
704.354
706.846
709.063
710.993
712.576
714.158
715.611
716.855
717.809
718.731
719.547
720.223
720.676
721.267
721.843
722.301
722.549
722.849
723.113
723.308
723.346
723.571
723.817
723.978
723.963
724.034
724.099
724.121
724.027
724.136
724.272
724.332
724.247
724.255
724.256
724.215
724.087
724.15
724.233
724.25
724.151
724.153
724.14
724.086
723.967
724.014
724.072
724.07
723.979
723.974
723.958
723.91
723.812
723.844
723.876
723.862
723.785
723.767
723.744
723.702
723.626
723.625
723.626
723.604
723.548
723.515
723.48
723.444
723.395
723.344
723.298
723.268
723.229
723.186
723.121
723.156
722.993
3.07775
4.48913
7.50225
15.763
63.7252
208.86
346.53
410.609
429.981
433.555
433.553
433.721
434.917
437.179
440.399
444.417
449.104
454.37
460.236
466.62
473.461
480.695
488.329
496.282
504.488
512.852
521.422
530.065
538.68
547.163
555.529
563.676
571.534
579
586.21
593.036
599.407
605.247
610.682
615.666
620.189
624.204
627.97
631.403
634.46
637.091
639.499
641.648
643.528
645.088
646.627
648.043
649.266
650.223
651.134
651.943
652.621
653.096
653.677
654.244
654.705
654.975
655.278
655.547
655.75
655.813
656.032
656.271
656.436
656.443
656.516
656.585
656.614
656.541
656.639
656.766
656.828
656.76
656.768
656.77
656.736
656.624
656.676
656.751
656.769
656.684
656.683
656.67
656.622
656.515
656.552
656.603
656.602
656.522
656.514
656.498
656.454
656.365
656.389
656.416
656.403
656.335
656.315
656.293
656.253
656.184
656.179
656.178
656.157
656.106
656.074
656.041
656.005
655.96
655.912
655.869
655.839
655.802
655.761
655.702
655.73
655.584
2.55099
3.22112
4.47403
7.97595
35.0774
149.211
286.695
363.935
392.354
399.735
400.624
400.361
400.564
401.601
403.504
406.172
409.506
413.42
417.93
422.964
428.468
434.38
440.702
447.367
454.312
461.458
468.837
476.34
483.877
491.355
498.78
506.064
513.141
519.917
526.496
532.768
538.662
544.102
549.186
553.872
558.146
561.966
565.544
568.818
571.75
574.291
576.613
578.693
580.521
582.056
583.549
584.926
586.125
587.083
587.982
588.783
589.461
589.956
590.527
591.084
591.546
591.837
592.144
592.416
592.629
592.717
592.928
593.16
593.329
593.358
593.434
593.506
593.543
593.49
593.578
593.695
593.759
593.709
593.717
593.721
593.693
593.597
593.638
593.704
593.724
593.653
593.649
593.637
593.594
593.5
593.527
593.57
593.571
593.502
593.491
593.475
593.435
593.356
593.371
593.393
593.382
593.322
593.301
593.279
593.242
593.18
593.171
593.167
593.148
593.102
593.071
593.039
593.006
592.963
592.918
592.877
592.848
592.813
592.776
592.721
592.741
592.611
2.23317
2.52307
3.03785
4.43757
17.1221
94.9329
221.197
309.71
349.622
363.319
366.814
367.207
367.123
367.424
368.367
369.967
372.179
374.942
378.272
382.115
386.425
391.148
396.284
401.773
407.564
413.585
419.861
426.3
432.824
439.35
445.878
452.332
458.651
464.751
470.707
476.427
481.841
486.875
491.601
495.98
499.996
503.61
506.992
510.098
512.894
515.337
517.566
519.568
521.337
522.839
524.281
525.613
526.784
527.736
528.62
529.409
530.084
530.595
531.154
531.698
532.158
532.467
532.777
533.053
533.273
533.384
533.589
533.812
533.983
534.033
534.113
534.188
534.232
534.199
534.277
534.385
534.45
534.418
534.426
534.431
534.41
534.331
534.362
534.418
534.439
534.383
534.376
534.364
534.327
534.246
534.263
534.298
534.3
534.243
534.23
534.213
534.177
534.108
534.115
534.132
534.123
534.071
534.05
534.028
533.994
533.938
533.926
533.92
533.902
533.862
533.831
533.801
533.77
533.73
533.688
533.65
533.622
533.589
533.554
533.505
533.518
533.403
2.04426
2.12384
2.30661
2.84371
7.90688
52.0048
154.527
248.05
300.219
322.65
330.772
333.207
333.764
333.967
334.413
335.296
336.669
338.519
340.873
343.705
346.981
350.661
354.742
359.178
363.924
368.921
374.182
379.635
385.213
390.842
396.516
402.172
407.755
413.191
418.528
423.693
428.617
433.234
437.587
441.643
445.385
448.776
451.947
454.869
457.513
459.843
461.966
463.878
465.577
467.036
468.418
469.696
470.828
471.767
472.629
473.4
474.066
474.587
475.131
475.658
476.112
476.436
476.747
477.023
477.249
477.381
477.579
477.793
477.964
478.033
478.117
478.194
478.244
478.231
478.301
478.398
478.463
478.448
478.458
478.465
478.449
478.387
478.408
478.455
478.476
478.433
478.425
478.414
478.383
478.315
478.322
478.349
478.353
478.307
478.292
478.275
478.244
478.184
478.184
478.196
478.188
478.145
478.123
478.101
478.07
478.022
478.007
477.999
477.982
477.946
477.918
477.889
477.86
477.823
477.785
477.749
477.722
477.691
477.659
477.614
477.621
477.519
1.93667
1.89428
1.91375
2.08788
3.9208
24.0183
93.9273
181.644
243.603
276.28
291.097
297.224
299.592
300.521
301.065
301.68
302.562
303.786
305.408
307.436
309.862
312.66
315.833
319.348
323.168
327.247
331.59
336.142
340.844
345.636
350.505
355.399
360.269
365.053
369.778
374.383
378.808
382.991
386.954
390.668
394.113
397.258
400.198
402.916
405.389
407.586
409.587
411.393
413.006
414.406
415.718
416.93
418.012
418.927
419.758
420.503
421.153
421.676
422.201
422.705
423.148
423.481
423.789
424.064
424.292
424.441
424.632
424.834
425.003
425.089
425.177
425.256
425.312
425.315
425.378
425.464
425.529
425.528
425.54
425.549
425.54
425.493
425.506
425.544
425.565
425.535
425.527
425.516
425.49
425.434
425.435
425.454
425.457
425.422
425.406
425.39
425.362
425.313
425.307
425.313
425.306
425.271
425.25
425.229
425.201
425.159
425.142
425.132
425.116
425.085
425.059
425.032
425.005
424.972
424.937
424.904
424.877
424.849
424.819
424.78
424.781
424.693
1.87973
1.76643
1.69923
1.70978
2.32585
9.70783
47.357
116.593
181.32
223.509
246.522
258.05
263.61
266.289
267.687
268.601
269.431
270.377
271.563
273.035
274.822
276.924
279.354
282.094
285.121
288.399
291.93
295.673
299.58
303.602
307.721
311.896
316.085
320.235
324.357
328.403
332.322
336.055
339.609
342.959
346.084
348.957
351.644
354.134
356.412
358.453
360.311
361.993
363.502
364.824
366.052
367.186
368.205
369.081
369.872
370.582
371.206
371.721
372.221
372.698
373.123
373.457
373.759
374.028
374.255
374.416
374.599
374.789
374.953
375.051
375.142
375.222
375.282
375.3
375.357
375.433
375.495
375.506
375.522
375.533
375.529
375.495
375.504
375.533
375.552
375.533
375.525
375.516
375.495
375.451
375.446
375.458
375.46
375.434
375.419
375.404
375.38
375.339
375.329
375.33
375.324
375.296
375.276
375.256
375.231
375.196
375.177
375.166
375.151
375.125
375.1
375.076
375.051
375.021
374.99
374.96
374.935
374.908
374.882
374.847
374.842
374.766
1.85262
1.70024
1.58552
1.51726
1.67956
3.99281
19.2173
61.8511
118.266
165.416
196.426
214.606
224.758
230.366
233.536
235.453
236.78
237.882
238.983
240.201
241.601
243.224
245.101
247.234
249.615
252.225
255.063
258.102
261.306
264.636
268.072
271.582
275.131
278.674
282.213
285.708
289.116
292.388
295.519
298.484
301.267
303.841
306.25
308.489
310.547
312.404
314.097
315.634
317.018
318.243
319.372
320.412
321.353
322.174
322.913
323.577
324.165
324.661
325.13
325.573
325.973
326.299
326.591
326.849
327.07
327.238
327.411
327.587
327.743
327.849
327.941
328.021
328.083
328.113
328.166
328.232
328.29
328.311
328.329
328.342
328.343
328.322
328.327
328.348
328.365
328.354
328.349
328.341
328.324
328.29
328.282
328.288
328.289
328.27
328.256
328.242
328.222
328.189
328.177
328.174
328.168
328.146
328.128
328.109
328.088
328.058
328.039
328.027
328.013
327.991
327.969
327.947
327.924
327.898
327.871
327.843
327.82
327.796
327.772
327.742
327.733
327.669
1.84139
1.66974
1.52992
1.42262
1.40935
2.05283
6.7284
25.4891
63.0959
106.309
141.883
166.485
182.15
191.811
197.762
201.514
204.001
205.79
207.24
208.563
209.885
211.289
212.836
214.557
216.465
218.557
220.838
223.294
225.902
228.631
231.465
234.377
237.339
240.317
243.302
246.266
249.171
251.979
254.676
257.242
259.66
261.911
264.019
265.982
267.794
269.442
270.946
272.315
273.553
274.658
275.671
276.604
277.451
278.2
278.875
279.481
280.021
280.486
280.917
281.321
281.687
281.997
282.271
282.514
282.724
282.892
283.055
283.215
283.359
283.467
283.559
283.637
283.7
283.738
283.787
283.844
283.896
283.924
283.945
283.959
283.964
283.953
283.956
283.971
283.985
283.981
283.977
283.971
283.958
283.933
283.924
283.925
283.925
283.911
283.899
283.887
283.87
283.844
283.831
283.825
283.818
283.801
283.785
283.769
283.75
283.726
283.708
283.695
283.682
283.663
283.644
283.624
283.604
283.582
283.558
283.534
283.512
283.49
283.469
283.444
283.432
283.376
1.83747
1.65774
1.50612
1.38031
1.29815
1.4217
2.60597
8.30625
25.3335
54.6178
87.2406
115.097
135.724
149.975
159.557
165.988
170.378
173.478
175.793
177.65
179.262
180.762
182.249
183.791
185.427
187.179
189.062
191.076
193.211
195.45
197.778
200.176
202.622
205.091
207.569
210.034
212.457
214.809
217.072
219.231
221.271
223.179
224.965
226.631
228.174
229.586
230.878
232.057
233.127
234.09
234.971
235.781
236.52
237.181
237.777
238.314
238.795
239.216
239.602
239.96
240.286
240.569
240.821
241.043
241.237
241.397
241.547
241.69
241.82
241.925
242.013
242.088
242.149
242.192
242.237
242.286
242.332
242.362
242.385
242.401
242.409
242.405
242.408
242.418
242.429
242.429
242.428
242.423
242.414
242.396
242.387
242.384
242.383
242.373
242.363
242.353
242.339
242.319
242.306
242.298
242.291
242.278
242.265
242.25
242.234
242.215
242.199
242.185
242.173
242.157
242.141
242.124
242.107
242.087
242.067
242.046
242.027
242.008
241.989
241.968
241.954
241.908
1.83635
1.65389
1.49766
1.36413
1.25628
1.21724
1.45137
2.75309
7.65468
20.2572
41.1816
65.4074
87.5745
105.333
118.618
128.258
135.203
140.25
144.001
146.886
149.208
151.175
152.928
154.57
156.178
157.801
159.473
161.212
163.023
164.901
166.84
168.826
170.847
172.88
174.915
176.932
178.911
180.829
182.673
184.428
186.086
187.638
189.09
190.442
191.698
192.851
193.911
194.88
195.764
196.565
197.298
197.972
198.589
199.147
199.653
200.111
200.523
200.888
201.222
201.528
201.81
202.058
202.28
202.476
202.649
202.796
202.93
203.055
203.169
203.265
203.347
203.416
203.474
203.518
203.56
203.601
203.641
203.67
203.693
203.709
203.719
203.721
203.725
203.732
203.74
203.742
203.742
203.739
203.733
203.721
203.713
203.708
203.705
203.699
203.691
203.682
203.671
203.656
203.645
203.636
203.629
203.618
203.607
203.595
203.582
203.566
203.552
203.54
203.528
203.515
203.502
203.487
203.472
203.456
203.439
203.422
203.405
203.389
203.372
203.355
203.341
203.301
1.83609
1.6529
1.49526
1.35913
1.24286
1.15519
1.14224
1.3631
2.346
5.54428
13.3253
26.7761
43.8452
61.1083
76.2708
88.5866
98.1996
105.581
111.248
115.646
119.126
121.959
124.342
126.418
128.286
130.032
131.717
133.378
135.041
136.715
138.405
140.106
141.81
143.505
145.179
146.819
148.409
149.936
151.39
152.761
154.047
155.245
156.359
157.393
158.351
159.234
160.047
160.793
161.478
162.102
162.676
163.205
163.693
164.138
164.545
164.915
165.251
165.553
165.829
166.082
166.314
166.523
166.71
166.877
167.026
167.155
167.271
167.377
167.474
167.558
167.631
167.692
167.745
167.787
167.825
167.86
167.893
167.92
167.942
167.958
167.969
167.974
167.979
167.984
167.99
167.992
167.994
167.992
167.988
167.98
167.974
167.969
167.965
167.96
167.954
167.947
167.938
167.927
167.918
167.91
167.902
167.894
167.885
167.875
167.864
167.852
167.841
167.83
167.82
167.809
167.798
167.786
167.773
167.76
167.746
167.732
167.718
167.704
167.69
167.676
167.663
167.631
1.83604
1.65269
1.49473
1.35793
1.23943
1.13907
1.06452
1.04532
1.17161
1.70585
3.31614
7.21217
14.5222
25.1177
37.4508
49.6701
60.6
69.8331
77.4079
83.5433
88.5097
92.5642
95.9247
98.763
101.217
103.377
105.334
107.151
108.873
110.529
112.137
113.701
115.224
116.698
118.117
119.47
120.749
121.947
123.06
124.087
125.03
125.894
126.686
127.412
128.081
128.696
129.264
129.787
130.271
130.717
131.131
131.515
131.872
132.204
132.51
132.792
133.052
133.288
133.506
133.706
133.89
134.058
134.211
134.348
134.471
134.58
134.678
134.766
134.847
134.918
134.981
135.034
135.08
135.119
135.153
135.183
135.211
135.234
135.254
135.269
135.28
135.288
135.293
135.298
135.302
135.305
135.307
135.306
135.304
135.3
135.296
135.291
135.287
135.283
135.279
135.273
135.266
135.258
135.251
135.244
135.237
135.23
135.223
135.215
135.207
135.198
135.189
135.18
135.171
135.162
135.153
135.144
135.134
135.123
135.112
135.101
135.09
135.078
135.067
135.056
135.044
135.017
1.83603
1.65264
1.49462
1.3577
1.23875
1.13571
1.04786
0.978486
0.940963
0.973203
1.17476
1.78626
3.29088
6.37532
11.5644
18.761
27.2014
35.8827
44.0327
51.2703
57.5143
62.8301
67.3375
71.1682
74.4508
77.3014
79.8033
82.0275
84.0404
85.8884
87.6038
89.2048
90.701
92.0939
93.3811
94.5582
95.6233
96.5771
97.4239
98.1704
98.8273
99.4061
99.9194
100.378
100.793
101.172
101.522
101.847
102.152
102.439
102.711
102.967
103.211
103.442
103.661
103.866
104.059
104.238
104.406
104.561
104.706
104.839
104.962
105.075
105.176
105.268
105.351
105.426
105.494
105.555
105.609
105.657
105.698
105.733
105.765
105.792
105.816
105.837
105.855
105.869
105.881
105.889
105.896
105.901
105.905
105.908
105.91
105.911
105.91
105.908
105.906
105.903
105.9
105.896
105.893
105.889
105.884
105.879
105.873
105.868
105.862
105.857
105.851
105.845
105.839
105.832
105.825
105.818
105.811
105.804
105.797
105.789
105.782
105.774
105.766
105.757
105.748
105.739
105.731
105.722
105.712
105.692
1.83602
1.65261
1.49458
1.35764
1.23862
1.13514
1.04501
0.966765
0.900767
0.85097
0.829031
0.863622
1.02111
1.44126
2.37442
4.16415
7.12131
11.3405
16.6056
22.464
28.4166
34.0806
39.2507
43.8659
47.9487
51.5542
54.7429
57.5717
60.077
62.3143
64.3262
66.1402
67.7731
69.2332
70.5248
71.6507
72.6179
73.4368
74.1218
74.6892
75.1581
75.547
75.8739
76.1533
76.3987
76.6204
76.8263
77.0212
77.2088
77.3915
77.5708
77.7462
77.9181
78.0863
78.2503
78.4085
78.5605
78.7057
78.8441
78.9745
79.0973
79.2124
79.3201
79.4194
79.5109
79.5947
79.6716
79.7411
79.8041
79.8611
79.9126
79.9582
79.9985
80.0341
80.0656
80.0929
80.1167
80.1376
80.156
80.1712
80.1839
80.1943
80.203
80.2096
80.2148
80.219
80.2223
80.2242
80.2251
80.2251
80.2247
80.2233
80.2215
80.2194
80.2172
80.2144
80.2113
80.2078
80.2043
80.2003
80.1962
80.192
80.188
80.1835
80.1789
80.174
80.1692
80.164
80.1587
80.1535
80.1482
80.1427
80.1371
80.1312
80.1252
80.119
80.1127
80.1061
80.0996
80.093
80.0857
80.0697
1.83602
1.65259
1.49455
1.35761
1.23858
1.13503
1.04459
0.965128
0.895127
0.833779
0.781335
0.739974
0.71566
0.721915
0.787491
0.968991
1.3658
2.12536
3.42018
5.39167
8.08834
11.4317
15.2341
19.2543
23.2658
27.102
30.67
33.9355
36.9071
39.5849
41.9832
44.1201
46.0079
47.656
49.0753
50.2793
51.2864
52.1188
52.801
53.3572
53.8116
54.1863
54.5003
54.7692
55.006
55.2207
55.421
55.6116
55.7961
55.9767
56.1546
56.3296
56.5017
56.6707
56.836
56.9965
57.1517
57.3009
57.4439
57.5795
57.7077
57.8284
57.9417
58.0472
58.1449
58.2353
58.3186
58.3945
58.4635
58.5263
58.5832
58.6343
58.6799
58.7207
58.7571
58.789
58.817
58.8416
58.8633
58.8819
58.8978
58.9115
58.9232
58.9327
58.9405
58.9469
58.9522
58.9562
58.9592
58.9613
58.9628
58.9634
58.9633
58.9628
58.962
58.9607
58.9591
58.9572
58.9552
58.9528
58.9502
58.9474
58.9446
58.9416
58.9385
58.9352
58.9319
58.9284
58.9247
58.921
58.9173
58.9134
58.9095
58.9054
58.9012
58.8969
58.8925
58.888
58.8834
58.8788
58.8737
58.862
1.83601
1.65256
1.49452
1.35758
1.23855
1.13499
1.04449
0.964892
0.89446
0.831865
0.776093
0.726468
0.682763
0.645461
0.616302
0.599281
0.602577
0.642026
0.746147
0.961252
1.3536
2.00333
2.98897
4.36588
6.14807
8.29932
10.7383
13.354
16.0286
18.6592
21.1562
23.4535
25.5252
27.3679
28.9928
30.4182
31.6651
32.7551
33.7082
34.5426
35.2749
35.9202
36.4917
37.001
37.4581
37.8719
38.2497
38.5975
38.9199
39.2211
39.504
39.7705
40.0224
40.2608
40.4868
40.7008
40.9032
41.0944
41.2747
41.4441
41.6027
41.751
41.8892
42.0174
42.1361
42.2456
42.3463
42.4383
42.5223
42.5986
42.6678
42.7302
42.7863
42.8366
42.8816
42.9215
42.9568
42.9879
43.0153
43.0392
43.06
43.0781
43.0938
43.1071
43.1183
43.1278
43.1358
43.1423
43.1477
43.152
43.1554
43.1579
43.1597
43.1608
43.1615
43.1617
43.1614
43.1609
43.1601
43.159
43.1576
43.1561
43.1544
43.1525
43.1505
43.1485
43.1463
43.144
43.1416
43.1391
43.1366
43.134
43.1313
43.1285
43.1257
43.1228
43.1198
43.1167
43.1137
43.1105
43.107
43.0987
1.83601
1.65255
1.49451
1.35756
1.23853
1.13496
1.04445
0.964833
0.89436
0.83166
0.775622
0.725336
0.680067
0.639237
0.602439
0.569479
0.540474
0.516044
0.49765
0.488176
0.493001
0.521621
0.589657
0.72058
0.946313
1.30537
1.83812
2.57951
3.55197
4.75991
6.18964
7.80812
9.56043
11.3858
13.2255
15.0284
16.7544
18.3751
19.8731
21.2404
22.4766
23.5862
24.5777
25.4614
26.2485
26.9503
27.5778
28.1407
28.6481
29.1076
29.5257
29.9081
30.2591
30.5828
30.882
31.1592
31.4165
31.6556
31.8777
32.084
32.2753
32.4527
32.6168
32.7683
32.9079
33.0362
33.1539
33.2614
33.3593
33.4484
33.529
33.6019
33.6675
33.7263
33.779
33.8259
33.8676
33.9044
33.9369
33.9655
33.9905
34.0123
34.0313
34.0476
34.0616
34.0736
34.0837
34.0923
34.0995
34.1054
34.1102
34.1141
34.1172
34.1195
34.1212
34.1224
34.1231
34.1234
34.1234
34.1231
34.1225
34.1217
34.1207
34.1196
34.1183
34.1169
34.1154
34.1138
34.1121
34.1103
34.1084
34.1065
34.1046
34.1025
34.1005
34.0984
34.0962
34.094
34.0917
34.0894
34.0869
34.0803
1.83601
1.65255
1.4945
1.35756
1.23853
1.13496
1.04445
0.964833
0.89436
0.831661
0.775623
0.725339
0.680071
0.639244
0.602451
0.569498
0.540503
0.516081
0.497676
0.488144
0.492791
0.520964
0.587992
0.716895
0.938936
1.29179
1.81501
2.54327
3.49922
4.68816
6.09865
7.69765
9.43197
11.242
13.0696
14.8638
16.5841
18.2016
19.6985
21.0662
22.3039
23.4157
24.4098
25.2964
26.0866