/*--------------------------------*- C++ -*----------------------------------*\
  =========                 |
  \\      /  F ield         | OpenFOAM: The Open Source CFD Toolbox
   \\    /   O peration     | Website:  https://openfoam.org
    \\  /    A nd           | Version:  8
     \\/     M anipulation  |
\*---------------------------------------------------------------------------*/
FoamFile
{
    version     2.0;
    format      ascii;
    class       volScalarField;
    location    "200";
    object      k;
}
// * * * * * * * * * * * * * * * * * * * * * * * * * * * * * * * * * * * * * //

dimensions      [0 2 -2 0 0 0 0];

internalField   nonuniform List<scalar> 
7320
(
6.07617
5.55819
5.24025
5.04679
5.01175
5.03008
5.0799
5.13321
5.18651
5.24307
5.3031
5.36592
5.43062
5.49668
5.56392
5.63223
5.70138
5.77122
5.8418
5.91318
5.98501
6.05704
6.12905
6.20089
6.27205
6.34203
6.4106
6.4775
6.54204
6.60373
6.66232
6.71767
6.7694
6.8172
6.86136
6.90209
6.93914
6.97251
7.00259
7.02976
7.05402
7.07536
7.09449
7.11178
7.12705
7.14027
7.15192
7.16235
7.17143
7.17903
7.18583
7.19214
7.19758
7.202
7.20585
7.20937
7.21233
7.21451
7.21656
7.2187
7.22047
7.22166
7.2227
7.22377
7.2246
7.22496
7.22544
7.22619
7.22676
7.2269
7.22704
7.22733
7.2275
7.22732
7.22737
7.22772
7.22792
7.2278
7.22773
7.2278
7.22777
7.22748
7.22741
7.22761
7.22769
7.2275
7.2274
7.22743
7.22736
7.22708
7.227
7.22714
7.22717
7.22699
7.22689
7.22691
7.22683
7.22661
7.22653
7.22662
7.22661
7.22647
7.22636
7.22634
7.22627
7.2261
7.22599
7.226
7.22596
7.22584
7.22572
7.22565
7.22556
7.22546
7.22532
7.22519
7.22509
7.22499
7.22487
7.22469
7.22464
7.22434
4.84178
5.67808
5.53358
5.36053
5.37532
5.74453
6.27809
6.66835
6.93586
7.14158
7.3164
7.4737
7.61963
7.75762
7.8905
8.01989
8.14689
8.27232
8.39762
8.52316
8.64892
8.77473
8.90091
9.02703
9.1524
9.27605
9.3983
9.518
9.63392
9.74491
9.851
9.9514
10.0455
10.1323
10.2134
10.2883
10.3564
10.4175
10.4731
10.5231
10.5678
10.6068
10.6426
10.675
10.7034
10.7276
10.7495
10.7688
10.7856
10.7992
10.8123
10.8244
10.8347
10.8426
10.8499
10.8565
10.8619
10.8653
10.8696
10.874
10.8774
10.8792
10.8812
10.8832
10.8846
10.8846
10.8859
10.8877
10.8888
10.8886
10.8889
10.8893
10.8894
10.8885
10.889
10.89
10.8904
10.8897
10.8896
10.8897
10.8893
10.8882
10.8885
10.8891
10.8892
10.8884
10.8884
10.8883
10.8879
10.8869
10.8871
10.8875
10.8875
10.8868
10.8867
10.8866
10.8862
10.8854
10.8855
10.8858
10.8857
10.8851
10.8849
10.8847
10.8844
10.8838
10.8837
10.8837
10.8835
10.883
10.8827
10.8824
10.8821
10.8818
10.8813
10.8809
10.8806
10.8803
10.8799
10.8793
10.8796
10.8781
3.59558
5.05082
5.15603
5.06705
5.32615
6.32962
7.3327
7.96341
8.36595
8.66201
8.90585
9.12016
9.31555
9.49787
9.67166
9.83952
10.0033
10.1644
10.3249
10.4855
10.6461
10.8068
10.968
11.1292
11.2895
11.4476
11.6043
11.7577
11.9063
12.0487
12.1849
12.3139
12.4347
12.5463
12.6507
12.7471
12.8349
12.9136
12.9852
13.0497
13.1073
13.1575
13.2038
13.2456
13.2825
13.3137
13.3419
13.367
13.3886
13.406
13.4231
13.4389
13.4523
13.4624
13.4719
13.4804
13.4874
13.4917
13.4974
13.5031
13.5076
13.5098
13.5125
13.515
13.5168
13.5167
13.5186
13.5209
13.5224
13.522
13.5224
13.523
13.5231
13.5218
13.5226
13.5239
13.5245
13.5234
13.5234
13.5233
13.5229
13.5213
13.5218
13.5226
13.5228
13.5216
13.5216
13.5214
13.5209
13.5195
13.5198
13.5204
13.5204
13.5194
13.5193
13.5191
13.5186
13.5175
13.5177
13.518
13.5179
13.517
13.5168
13.5165
13.5161
13.5152
13.5151
13.5151
13.5148
13.5142
13.5138
13.5134
13.513
13.5125
13.5118
13.5113
13.5109
13.5105
13.51
13.5091
13.5096
13.5075
2.74714
4.48338
4.83139
4.84316
5.39376
6.96031
8.30425
9.09602
9.58674
9.94187
10.2315
10.4842
10.7134
10.9265
11.1291
11.3243
11.5145
11.7013
11.8875
12.0736
12.2598
12.4461
12.6331
12.8201
13.0062
13.1899
13.372
13.5504
13.7234
13.8891
14.0479
14.1982
14.3392
14.4694
14.5915
14.7042
14.8069
14.8989
14.9828
15.0584
15.126
15.1848
15.2392
15.2883
15.3316
15.3682
15.4015
15.4309
15.4564
15.4769
15.4971
15.5157
15.5315
15.5433
15.5547
15.5647
15.5729
15.578
15.5848
15.5916
15.5969
15.5995
15.6027
15.6057
15.6078
15.6077
15.61
15.6127
15.6145
15.6139
15.6145
15.6152
15.6153
15.6137
15.6147
15.6163
15.617
15.6157
15.6157
15.6156
15.6151
15.6132
15.6138
15.6148
15.615
15.6136
15.6135
15.6134
15.6127
15.611
15.6115
15.6122
15.6121
15.6109
15.6108
15.6106
15.61
15.6086
15.6089
15.6093
15.6091
15.6081
15.6078
15.6075
15.607
15.606
15.6058
15.6058
15.6055
15.6048
15.6043
15.6038
15.6033
15.6026
15.6019
15.6013
15.6008
15.6003
15.5997
15.5987
15.5992
15.5967
2.10345
3.90656
4.49011
4.626
5.50126
7.57177
9.19711
10.1183
10.678
11.0786
11.4033
11.6855
11.9409
12.1779
12.4028
12.6195
12.8304
13.0375
13.244
13.4504
13.657
13.8638
14.0716
14.2795
14.4866
14.6912
14.8942
15.0933
15.2865
15.4717
15.6494
15.8179
15.976
16.1222
16.2595
16.3863
16.502
16.6058
16.7005
16.7859
16.8622
16.9287
16.9904
17.0461
17.0951
17.1367
17.1745
17.2079
17.2369
17.2602
17.2833
17.3045
17.3225
17.336
17.349
17.3605
17.3699
17.3758
17.3836
17.3914
17.3975
17.4005
17.4043
17.4077
17.4101
17.41
17.4127
17.4159
17.4179
17.4173
17.418
17.4187
17.4188
17.4171
17.4183
17.4201
17.4208
17.4194
17.4194
17.4193
17.4187
17.4166
17.4173
17.4184
17.4186
17.4171
17.417
17.4168
17.416
17.4142
17.4147
17.4155
17.4154
17.414
17.4139
17.4137
17.413
17.4114
17.4118
17.4122
17.412
17.4108
17.4105
17.4102
17.4095
17.4084
17.4083
17.4082
17.4079
17.407
17.4065
17.4059
17.4054
17.4046
17.4038
17.4031
17.4026
17.4019
17.4013
17.4002
17.4007
17.3979
1.6163
3.30998
4.10435
4.38703
5.60077
8.13611
10.0217
11.0617
11.6823
12.1214
12.475
12.7813
13.0578
13.314
13.5569
13.7907
14.0183
14.2418
14.4647
14.6876
14.911
15.1347
15.3597
15.5851
15.8098
16.0321
16.253
16.4699
16.6807
16.8832
17.0777
17.2623
17.4359
17.5967
17.748
17.888
18.0158
18.1306
18.2355
18.3302
18.415
18.489
18.5577
18.6197
18.6744
18.7208
18.763
18.8005
18.8329
18.8592
18.8851
18.9089
18.9291
18.9444
18.9591
18.9721
18.9827
18.9895
18.9984
19.0071
19.0141
19.0176
19.0219
19.0258
19.0285
19.0286
19.0316
19.0352
19.0375
19.0369
19.0377
19.0386
19.0387
19.0369
19.0383
19.0402
19.0411
19.0395
19.0395
19.0395
19.0388
19.0365
19.0372
19.0385
19.0387
19.037
19.0369
19.0367
19.0358
19.0338
19.0343
19.0352
19.0351
19.0336
19.0335
19.0332
19.0324
19.0307
19.0311
19.0316
19.0313
19.03
19.0297
19.0293
19.0286
19.0273
19.0272
19.0271
19.0267
19.0258
19.0252
19.0246
19.0239
19.0231
19.0222
19.0214
19.0208
19.0201
19.0194
19.0181
19.0188
19.0156
1.2682
2.70781
3.66174
4.10722
5.65536
8.6319
10.7794
11.94
12.6198
13.0939
13.4726
13.7989
14.0927
14.3645
14.6219
14.8694
15.1102
15.3468
15.5828
15.819
16.0559
16.2934
16.5327
16.7727
17.0123
17.2497
17.4861
17.7187
17.9451
18.163
18.3728
18.5724
18.7605
18.935
19.0996
19.2521
19.3917
19.5173
19.6323
19.7363
19.8295
19.911
19.9867
20.0551
20.1156
20.167
20.2139
20.2554
20.2915
20.3208
20.3498
20.3762
20.3989
20.4161
20.4326
20.4472
20.4592
20.4669
20.4769
20.4868
20.4946
20.4987
20.5036
20.508
20.5112
20.5114
20.5149
20.5189
20.5215
20.5209
20.5219
20.5229
20.5232
20.5212
20.5227
20.5249
20.5258
20.5242
20.5242
20.5242
20.5234
20.5209
20.5218
20.5231
20.5233
20.5215
20.5215
20.5212
20.5202
20.518
20.5186
20.5195
20.5195
20.5178
20.5176
20.5173
20.5165
20.5146
20.5151
20.5155
20.5152
20.5138
20.5135
20.513
20.5123
20.5108
20.5107
20.5106
20.5102
20.5092
20.5085
20.5078
20.5071
20.5062
20.5052
20.5043
20.5037
20.5029
20.5021
20.5008
20.5015
20.498
1.04451
2.13209
3.1619
3.77163
5.63172
9.03349
11.4608
12.7543
13.4969
14.0057
14.4072
14.751
15.0592
15.3434
15.6122
15.8703
16.1214
16.3679
16.6141
16.8607
17.1082
17.3567
17.6075
17.8595
18.1115
18.3618
18.6115
18.8577
19.098
19.3299
19.5537
19.7672
19.9689
20.1567
20.3341
20.4989
20.6501
20.7866
20.9117
21.025
21.1268
21.2161
21.2991
21.3742
21.4406
21.4973
21.549
21.595
21.6349
21.6676
21.6997
21.7291
21.7543
21.7737
21.7922
21.8085
21.822
21.8309
21.8422
21.8532
21.862
21.8668
21.8724
21.8774
21.8811
21.8816
21.8855
21.89
21.8929
21.8925
21.8937
21.8948
21.8951
21.8931
21.8948
21.8972
21.8982
21.8965
21.8966
21.8965
21.8957
21.8931
21.894
21.8955
21.8957
21.8937
21.8937
21.8934
21.8924
21.89
21.8906
21.8916
21.8915
21.8897
21.8895
21.8892
21.8883
21.8863
21.8867
21.8872
21.8869
21.8854
21.885
21.8845
21.8836
21.8821
21.8819
21.8818
21.8814
21.8802
21.8795
21.8788
21.878
21.877
21.8759
21.875
21.8743
21.8734
21.8726
21.8711
21.8719
21.8682
0.919815
1.62747
2.61945
3.37016
5.49785
9.30748
12.0454
13.4955
14.3109
14.8573
15.2816
15.6412
15.9616
16.256
16.5335
16.7995
17.0581
17.3119
17.5654
17.8195
18.075
18.3318
18.5915
18.8529
19.1151
19.3759
19.6369
19.8949
20.1475
20.3919
20.6285
20.855
21.0696
21.27
21.46
21.6369
21.7997
21.947
22.0824
22.2054
22.316
22.4134
22.5039
22.5859
22.6587
22.7211
22.778
22.8286
22.8727
22.9091
22.9446
22.9772
23.0052
23.0269
23.0476
23.0659
23.0811
23.0914
23.1041
23.1164
23.1263
23.1319
23.1384
23.144
23.1483
23.1492
23.1536
23.1585
23.1618
23.1616
23.163
23.1643
23.1648
23.1628
23.1647
23.1672
23.1684
23.1667
23.1667
23.1667
23.1659
23.1632
23.1641
23.1656
23.1659
23.1639
23.1638
23.1635
23.1624
23.1598
23.1605
23.1615
23.1614
23.1595
23.1593
23.1589
23.1579
23.1558
23.1562
23.1567
23.1564
23.1548
23.1543
23.1538
23.1528
23.1512
23.151
23.1509
23.1504
23.1492
23.1484
23.1476
23.1467
23.1457
23.1445
23.1435
23.1427
23.1418
23.1409
23.1393
23.1401
23.1362
0.860394
1.23904
2.06895
2.90195
5.22446
9.41201
12.5012
14.144
15.0505
15.6419
16.0915
16.4672
16.7988
17.1016
17.3859
17.6576
17.9212
18.1798
18.4381
18.6972
18.958
19.2206
19.4866
19.7551
20.0249
20.2942
20.5644
20.8324
21.0955
21.351
21.5993
21.8376
22.0644
22.277
22.4791
22.6679
22.8422
23.0005
23.1464
23.2791
23.3989
23.5047
23.6032
23.6925
23.7719
23.8403
23.9027
23.9583
24.007
24.0474
24.0866
24.1226
24.1537
24.1782
24.2012
24.2217
24.2388
24.2508
24.2649
24.2787
24.2899
24.2965
24.3038
24.3103
24.3153
24.3167
24.3216
24.3271
24.3308
24.3309
24.3326
24.3341
24.3348
24.3328
24.3349
24.3376
24.3389
24.3372
24.3373
24.3373
24.3365
24.3337
24.3347
24.3362
24.3365
24.3344
24.3343
24.334
24.3328
24.3302
24.3308
24.3318
24.3317
24.3298
24.3295
24.3291
24.328
24.3258
24.3262
24.3267
24.3263
24.3246
24.3241
24.3235
24.3225
24.3208
24.3205
24.3204
24.3198
24.3185
24.3176
24.3168
24.3159
24.3147
24.3135
24.3124
24.3116
24.3106
24.3096
24.3079
24.3087
24.3046
0.836794
0.989026
1.56623
2.38317
4.7902
9.29873
12.7836
14.6694
15.6956
16.3459
16.827
17.2211
17.5645
17.8753
18.1652
18.441
18.7078
18.9691
19.2299
19.4916
19.7553
20.0213
20.2913
20.5644
20.8398
21.1153
21.3926
21.6686
21.9406
22.2057
22.4643
22.7135
22.9515
23.1757
23.3893
23.5898
23.7755
23.9448
24.1012
24.2439
24.3731
24.4877
24.5943
24.6912
24.7777
24.8525
24.9207
24.9817
25.0352
25.08
25.1232
25.1629
25.1973
25.2248
25.2505
25.2734
25.2926
25.3065
25.3223
25.3377
25.3503
25.3581
25.3665
25.3739
25.3796
25.3817
25.3872
25.3932
25.3975
25.398
25.3999
25.4017
25.4026
25.4008
25.403
25.4059
25.4074
25.4058
25.406
25.406
25.4052
25.4023
25.4033
25.4049
25.4052
25.4031
25.403
25.4026
25.4014
25.3987
25.3993
25.4003
25.4002
25.3982
25.3979
25.3974
25.3963
25.394
25.3943
25.3948
25.3943
25.3926
25.392
25.3914
25.3903
25.3885
25.3882
25.388
25.3873
25.386
25.3851
25.3841
25.3832
25.3819
25.3806
25.3794
25.3786
25.3775
25.3764
25.3747
25.3754
25.3711
0.83041
0.857992
1.17455
1.85554
4.19141
8.91817
12.8352
15.0283
16.2163
16.9479
17.4718
17.8903
18.2482
18.568
18.8635
19.1428
19.4116
19.6741
19.9357
20.1981
20.4627
20.7299
21.0017
21.2772
21.5558
21.8355
22.1179
22.3999
22.6789
22.952
23.2194
23.4782
23.7265
23.9614
24.186
24.3976
24.5944
24.7746
24.9415
25.0943
25.233
25.3566
25.4715
25.5763
25.6701
25.7517
25.826
25.8927
25.9514
26.0009
26.0484
26.092
26.1301
26.1608
26.1895
26.2149
26.2366
26.2526
26.2703
26.2873
26.3015
26.3107
26.3203
26.3287
26.3354
26.3382
26.3444
26.351
26.3559
26.3569
26.3592
26.3614
26.3625
26.3609
26.3633
26.3664
26.3681
26.3666
26.3668
26.3669
26.3661
26.3633
26.3642
26.3659
26.3663
26.3642
26.364
26.3636
26.3624
26.3596
26.3601
26.3611
26.361
26.359
26.3586
26.358
26.3568
26.3545
26.3547
26.3552
26.3547
26.353
26.3523
26.3516
26.3504
26.3486
26.3482
26.3479
26.3472
26.3458
26.3448
26.3438
26.3428
26.3415
26.3401
26.3388
26.3379
26.3367
26.3356
26.3338
26.3345
26.3301
0.831625
0.801695
0.928157
1.38612
3.45574
8.23044
12.5885
15.1631
16.5704
17.417
18.0026
18.4559
18.8344
19.1666
19.4694
19.7527
20.0235
20.2866
20.5479
20.8096
21.0734
21.3401
21.6117
21.8877
22.1675
22.4493
22.7347
23.0208
23.305
23.5844
23.8589
24.1259
24.3832
24.6278
24.8625
25.0845
25.2919
25.4827
25.6599
25.8227
25.9709
26.1036
26.227
26.3398
26.441
26.5296
26.6104
26.6829
26.7471
26.8016
26.8537
26.9014
26.9434
26.9777
27.0095
27.0378
27.0621
27.0804
27.1001
27.1191
27.135
27.1458
27.1567
27.1663
27.174
27.1778
27.1847
27.192
27.1976
27.1992
27.2019
27.2044
27.2059
27.2047
27.2071
27.2104
27.2123
27.2111
27.2114
27.2116
27.2108
27.2081
27.209
27.2106
27.2111
27.2091
27.2088
27.2084
27.2071
27.2044
27.2048
27.2057
27.2056
27.2036
27.2031
27.2025
27.2013
27.1989
27.199
27.1994
27.199
27.1972
27.1964
27.1956
27.1945
27.1925
27.192
27.1917
27.191
27.1895
27.1885
27.1874
27.1863
27.1849
27.1834
27.1821
27.1811
27.1799
27.1786
27.1768
27.1774
27.1729
0.835907
0.782771
0.805299
1.04166
2.65465
7.22286
11.9727
15.0014
16.7014
17.7112
18.3871
18.8924
19.3019
19.653
19.9673
20.2572
20.5312
20.7954
21.0563
21.3167
21.5788
21.8437
22.1136
22.3885
22.6677
22.9498
23.2363
23.5245
23.812
24.0958
24.3759
24.6495
24.9143
25.1673
25.411
25.6425
25.8598
26.0606
26.2476
26.42
26.5776
26.7193
26.8511
26.9718
27.0806
27.1763
27.2636
27.3422
27.412
27.4718
27.5285
27.5806
27.6266
27.6648
27.6999
27.7313
27.7583
27.7793
27.8012
27.8221
27.8399
27.8526
27.8649
27.8758
27.8847
27.8897
27.8973
27.9054
27.9117
27.9141
27.9173
27.9202
27.9221
27.9213
27.9239
27.9273
27.9295
27.9286
27.929
27.9292
27.9286
27.926
27.9268
27.9284
27.9289
27.9271
27.9268
27.9263
27.9251
27.9223
27.9226
27.9235
27.9234
27.9214
27.9208
27.9202
27.919
27.9166
27.9165
27.9168
27.9164
27.9146
27.9138
27.9129
27.9117
27.9097
27.9091
27.9087
27.9079
27.9065
27.9053
27.9042
27.903
27.9016
27.9001
27.8986
27.8975
27.8962
27.895
27.8931
27.8935
27.889
0.841156
0.780323
0.755928
0.842213
1.90069
5.9344
10.9282
14.4588
16.5365
17.7739
18.5817
19.165
19.6223
20.0034
20.3366
20.6381
20.9189
21.1863
21.448
21.7076
21.968
22.2306
22.498
22.7705
23.0478
23.3287
23.6145
23.9031
24.1921
24.4786
24.7623
25.0408
25.3115
25.5716
25.8228
26.0626
26.2885
26.4985
26.6946
26.876
27.0425
27.1929
27.3327
27.4611
27.5774
27.6803
27.774
27.8586
27.9341
27.9994
28.0608
28.1173
28.1675
28.2097
28.2483
28.2829
28.3129
28.3368
28.3609
28.3839
28.4038
28.4185
28.4323
28.4447
28.4549
28.4612
28.4696
28.4785
28.4856
28.4889
28.4927
28.4961
28.4985
28.4982
28.5009
28.5046
28.507
28.5065
28.507
28.5074
28.5069
28.5045
28.5052
28.5068
28.5074
28.5057
28.5053
28.5049
28.5037
28.501
28.5011
28.5019
28.5018
28.4999
28.4993
28.4986
28.4973
28.495
28.4947
28.495
28.4945
28.4927
28.4918
28.4909
28.4896
28.4877
28.4869
28.4864
28.4856
28.4842
28.4829
28.4817
28.4805
28.479
28.4774
28.4759
28.4748
28.4734
28.4721
28.4701
28.4705
28.4659
0.846364
0.784581
0.741294
0.750674
1.31216
4.4805
9.43351
13.4491
15.9871
17.532
18.5286
19.2279
19.7583
20.1866
20.5506
20.8724
21.166
21.4412
21.7067
21.9675
22.2273
22.4882
22.7532
23.0229
23.2975
23.5761
23.8601
24.1475
24.4363
24.7238
25.0094
25.2909
25.5659
25.8312
26.0884
26.3349
26.5682
26.7861
26.9902
27.1797
27.3543
27.5128
27.6601
27.7958
27.919
28.0287
28.1288
28.2193
28.3004
28.3711
28.4371
28.498
28.5524
28.5987
28.6409
28.6788
28.7119
28.7388
28.7653
28.7905
28.8125
28.8293
28.8449
28.8588
28.8704
28.8782
28.8876
28.8973
28.9053
28.9096
28.914
28.918
28.9209
28.9213
28.9242
28.928
28.9308
28.9307
28.9314
28.9319
28.9316
28.9295
28.93
28.9316
28.9323
28.9308
28.9304
28.93
28.9288
28.9263
28.9261
28.9268
28.9267
28.925
28.9243
28.9235
28.9223
28.92
28.9196
28.9197
28.9192
28.9175
28.9165
28.9155
28.9142
28.9123
28.9114
28.9108
28.91
28.9085
28.9072
28.906
28.9047
28.9032
28.9015
28.9
28.8987
28.8973
28.8959
28.894
28.8941
28.8896
0.851004
0.791139
0.741308
0.716968
0.949831
3.05908
7.54512
11.9063
14.9546
16.8945
18.1528
19.0203
19.6602
20.1613
20.5746
20.93
21.2465
21.5369
21.8118
22.0779
22.34
22.6013
22.865
23.1326
23.4046
23.6806
23.9619
24.2472
24.5345
24.8215
25.1075
25.3903
25.6676
25.9365
26.1978
26.4492
26.6883
26.9126
27.1233
27.3196
27.5011
27.6668
27.8207
27.9627
28.0922
28.2083
28.3142
28.4102
28.4966
28.5725
28.6431
28.7081
28.7665
28.817
28.8627
28.9039
28.9401
28.9702
28.9992
29.0265
29.0507
29.0698
29.0872
29.1027
29.1159
29.1253
29.1357
29.1462
29.1552
29.1606
29.1658
29.1704
29.1739
29.175
29.1781
29.1821
29.1852
29.1857
29.1866
29.1873
29.1872
29.1855
29.1859
29.1873
29.1881
29.1869
29.1865
29.1861
29.185
29.1826
29.1823
29.1828
29.1828
29.1812
29.1804
29.1796
29.1783
29.1762
29.1756
29.1755
29.175
29.1735
29.1724
29.1714
29.17
29.1681
29.1671
29.1665
29.1656
29.1641
29.1628
29.1615
29.1602
29.1586
29.1569
29.1553
29.154
29.1525
29.1511
29.1492
29.1491
29.1446
0.854793
0.797908
0.746923
0.709024
0.77785
1.90439
5.44229
9.82718
13.3491
15.7569
17.3605
18.4639
19.2632
19.8736
20.3628
20.7717
21.1264
21.4437
21.737
22.0154
22.2851
22.5506
22.816
23.0834
23.3541
23.6282
23.9071
24.1899
24.4751
24.7606
25.0457
25.3283
25.6064
25.877
26.1406
26.395
26.6379
26.8668
27.0823
27.2838
27.4707
27.642
27.8013
27.9485
28.0834
28.2049
28.3158
28.4167
28.5078
28.5886
28.6632
28.7321
28.7943
28.8486
28.8978
28.9422
28.9815
29.0148
29.0461
29.0756
29.1019
29.1234
29.1427
29.1599
29.1746
29.1858
29.1972
29.2087
29.2186
29.2253
29.2313
29.2366
29.2407
29.2427
29.246
29.2502
29.2536
29.2547
29.2559
29.2568
29.257
29.2556
29.256
29.2573
29.2582
29.2573
29.2569
29.2565
29.2555
29.2534
29.2529
29.2533
29.2532
29.2518
29.251
29.2501
29.2489
29.2469
29.2461
29.2459
29.2454
29.2439
29.2428
29.2417
29.2404
29.2386
29.2375
29.2367
29.2357
29.2343
29.233
29.2316
29.2303
29.2287
29.227
29.2254
29.224
29.2225
29.221
29.2191
29.2188
29.2144
0.857609
0.803826
0.754025
0.711469
0.712377
1.17257
3.44368
7.33675
11.1306
14.0172
16.0424
17.4602
18.4835
19.2525
19.8553
20.3464
20.7612
21.1228
21.4483
21.7497
22.0355
22.312
22.5843
22.8556
23.1279
23.4022
23.68
23.9611
24.2444
24.5282
24.8116
25.0931
25.3705
25.6414
25.9055
26.161
26.4056
26.637
26.8554
27.06
27.2504
27.4257
27.5886
27.7396
27.8782
28.004
28.1189
28.2237
28.3187
28.4035
28.4817
28.5538
28.6193
28.6772
28.7295
28.7768
28.819
28.8553
28.889
28.9206
28.9489
28.9727
28.9939
29.0128
29.0292
29.0421
29.0548
29.0671
29.078
29.0859
29.0928
29.0989
29.1038
29.1066
29.1103
29.1147
29.1184
29.1201
29.1216
29.1228
29.1233
29.1224
29.1227
29.124
29.1249
29.1243
29.124
29.1237
29.1228
29.1209
29.1203
29.1204
29.1204
29.1192
29.1183
29.1175
29.1163
29.1144
29.1135
29.1132
29.1126
29.1113
29.1101
29.109
29.1077
29.1059
29.1047
29.1038
29.1029
29.1015
29.1001
29.0988
29.0974
29.0958
29.0942
29.0925
29.091
29.0895
29.0881
29.0861
29.0856
29.0813
0.859479
0.808367
0.760604
0.717373
0.692375
0.830671
1.92422
4.75753
8.3849
11.6186
14.0915
15.896
17.217
18.2074
18.9738
19.5866
20.0926
20.5232
20.9009
21.2414
21.5563
21.8541
22.1416
22.4234
22.7027
22.9813
23.2612
23.5428
23.8257
24.1086
24.3908
24.6709
24.9471
25.2171
25.4803
25.7351
25.9795
26.2113
26.4302
26.6357
26.8274
27.0044
27.169
27.3217
27.4624
27.5907
27.7081
27.8155
27.9133
28.0012
28.0821
28.1567
28.2248
28.2855
28.3406
28.3904
28.4352
28.4742
28.5102
28.5436
28.5738
28.5998
28.6229
28.6434
28.6614
28.6761
28.6899
28.7032
28.715
28.7242
28.7321
28.7389
28.7446
28.7484
28.7525
28.7571
28.7611
28.7635
28.7654
28.7669
28.7677
28.7673
28.7677
28.7688
28.7698
28.7696
28.7694
28.7691
28.7683
28.7668
28.7661
28.766
28.7659
28.7649
28.7641
28.7632
28.7621
28.7604
28.7594
28.7589
28.7583
28.7571
28.7559
28.7548
28.7535
28.7519
28.7506
28.7496
28.7486
28.7473
28.7459
28.7446
28.7432
28.7416
28.74
28.7383
28.7369
28.7353
28.7338
28.732
28.7313
28.727
0.860563
0.811402
0.765685
0.723455
0.689403
0.709612
1.08144
2.59914
5.43087
8.63673
11.45
13.6638
15.3468
16.6275
17.6191
18.405
19.0442
19.5778
20.0355
20.4382
20.8011
21.1357
21.4511
21.7538
22.0485
22.3382
22.6257
22.9122
23.1981
23.4826
23.7653
24.0451
24.3205
24.5894
24.851
25.104
25.3464
25.5766
25.7939
25.998
26.1884
26.3648
26.5287
26.6808
26.8213
26.9501
27.0682
27.1765
27.2755
27.3652
27.4477
27.5237
27.5935
27.6564
27.7135
27.7654
27.8122
27.8536
27.8915
27.9265
27.9584
27.9862
28.0111
28.0332
28.0527
28.0692
28.0842
28.0984
28.1111
28.1215
28.1304
28.1381
28.1445
28.1493
28.1539
28.1587
28.1631
28.166
28.1684
28.1702
28.1714
28.1716
28.1721
28.1731
28.1741
28.1742
28.1742
28.174
28.1734
28.1722
28.1714
28.1712
28.1711
28.1703
28.1695
28.1686
28.1676
28.1661
28.165
28.1644
28.1637
28.1626
28.1615
28.1604
28.1592
28.1576
28.1563
28.1553
28.1542
28.153
28.1516
28.1503
28.1489
28.1474
28.1458
28.1442
28.1427
28.1412
28.1397
28.1379
28.137
28.1328
0.861098
0.813127
0.768989
0.728186
0.691837
0.674052
0.758763
1.29774
2.87434
5.4206
8.21649
10.7225
12.7725
14.3951
15.6742
16.6929
17.5178
18.1991
18.7742
19.2704
19.7079
20.1016
20.4635
20.8024
21.1253
21.4368
21.7408
22.0396
22.3343
22.6253
22.9123
23.1946
23.4711
23.7402
24.0007
24.2516
24.4912
24.7183
24.9321
25.1325
25.3193
25.4924
25.6531
25.8021
25.94
26.0669
26.1836
26.2909
26.3894
26.4792
26.5619
26.6383
26.7086
26.7726
26.8309
26.8841
26.9324
26.9757
27.0151
27.0514
27.0846
27.1142
27.1406
27.1642
27.1851
27.2031
27.2194
27.2344
27.248
27.2595
27.2694
27.278
27.2852
27.291
27.2962
27.3013
27.306
27.3095
27.3123
27.3145
27.3161
27.3168
27.3176
27.3186
27.3196
27.32
27.3202
27.3201
27.3197
27.3188
27.3181
27.3178
27.3176
27.3169
27.3162
27.3154
27.3145
27.3132
27.3121
27.3113
27.3106
27.3096
27.3086
27.3075
27.3063
27.3049
27.3036
27.3025
27.3015
27.3003
27.299
27.2977
27.2963
27.2949
27.2934
27.2918
27.2903
27.2888
27.2874
27.2857
27.2846
27.2806
0.861316
0.813937
0.770761
0.73113
0.694919
0.665922
0.665644
0.787815
1.32992
2.69287
4.82768
7.23665
9.49569
11.4315
13.0283
14.331
15.3969
16.278
17.0171
17.6474
18.1945
18.6778
19.1123
19.5097
19.8795
20.2286
20.5625
20.8848
21.1981
21.5034
21.8014
22.0917
22.3737
22.646
22.9077
23.1578
23.395
23.6185
23.8278
24.0229
24.2041
24.3716
24.5267
24.6702
24.803
24.9256
25.0386
25.1429
25.2389
25.3272
25.4087
25.4841
25.5538
25.6179
25.6766
25.7304
25.7796
25.824
25.8647
25.902
25.9363
25.9671
25.9948
26.0197
26.0419
26.0614
26.079
26.0949
26.1093
26.1219
26.1328
26.1422
26.1503
26.157
26.1629
26.1684
26.1733
26.1774
26.1807
26.1834
26.1854
26.1866
26.1877
26.1888
26.1899
26.1905
26.1909
26.191
26.1908
26.1902
26.1896
26.1893
26.189
26.1885
26.1879
26.1871
26.1863
26.1852
26.1842
26.1834
26.1826
26.1817
26.1807
26.1797
26.1786
26.1773
26.1761
26.175
26.1739
26.1728
26.1716
26.1703
26.169
26.1676
26.1662
26.1647
26.1633
26.1618
26.1604
26.1589
26.1576
26.1538
0.861388
0.814242
0.771522
0.732582
0.697
0.665415
0.64282
0.649664
0.759499
1.17295
2.17285
3.81417
5.81353
7.8263
9.65426
11.2339
12.5708
13.6964
14.6475
15.4582
16.1573
16.7681
17.3095
17.7958
18.2387
18.6479
19.0311
19.3937
19.7398
20.0718
20.3912
20.6984
20.9933
21.275
21.5427
21.7955
22.0328
22.2541
22.4593
22.6488
22.8235
22.984
23.1318
23.2681
23.394
23.5103
23.6178
23.7173
23.8094
23.8946
23.9737
24.0471
24.1154
24.1787
24.2371
24.2909
24.3404
24.3857
24.4273
24.4655
24.5006
24.5325
24.5615
24.5876
24.6111
24.632
24.6508
24.6677
24.6831
24.6966
24.7085
24.7189
24.7279
24.7355
24.7423
24.7482
24.7536
24.7582
24.762
24.7651
24.7676
24.7694
24.7709
24.7722
24.7734
24.7742
24.7748
24.7751
24.7751
24.7749
24.7745
24.7742
24.7739
24.7735
24.773
24.7723
24.7716
24.7707
24.7698
24.769
24.7682
24.7674
24.7665
24.7655
24.7645
24.7634
24.7623
24.7612
24.7601
24.759
24.7579
24.7567
24.7555
24.7543
24.7529
24.7516
24.7502
24.7488
24.7475
24.746
24.7448
24.7412
0.861405
0.814328
0.771774
0.733136
0.697984
0.666176
0.638432
0.618685
0.620804
0.687726
0.929275
1.529
2.61708
4.12091
5.81496
7.48693
9.02114
10.3795
11.5631
12.589
13.4802
14.2593
14.9462
15.5576
16.1079
16.6075
17.0666
17.4928
17.8921
18.2686
18.625
18.9627
19.2821
19.583
19.8649
20.1273
20.37
20.5931
20.7972
20.9833
21.1527
21.307
21.4479
21.577
21.6958
21.8055
21.9071
22.0014
22.0892
22.171
22.2474
22.3187
22.3854
22.4478
22.5058
22.5598
22.6097
22.6559
22.6986
22.7379
22.7741
22.8074
22.8377
22.8653
22.8903
22.9128
22.933
22.9513
22.9677
22.9825
22.9955
23.007
23.0171
23.0258
23.0335
23.0402
23.0461
23.0513
23.0557
23.0594
23.0624
23.0648
23.0668
23.0684
23.0698
23.0709
23.0717
23.0723
23.0725
23.0726
23.0725
23.0722
23.072
23.0717
23.0713
23.0708
23.0702
23.0695
23.0687
23.068
23.0672
23.0665
23.0657
23.0648
23.0639
23.0629
23.0619
23.0609
23.0599
23.0589
23.0579
23.0568
23.0557
23.0545
23.0534
23.0521
23.0509
23.0496
23.0484
23.047
23.0458
23.0423
0.861406
0.814341
0.771831
0.73329
0.698318
0.666643
0.638038
0.612851
0.59326
0.58619
0.610772
0.71412
0.988561
1.55214
2.46944
3.68828
5.06897
6.46738
7.7905
8.99852
10.0835
11.0513
11.9133
12.683
13.3741
13.999
14.5672
15.0871
15.5666
16.0116
16.4263
16.8133
17.1738
17.5085
17.8173
18.1002
18.3578
18.591
18.8012
18.99
19.1599
19.3129
19.4514
19.5773
19.6927
19.7992
19.8979
19.9898
20.0758
20.1564
20.2322
20.3035
20.3705
20.4336
20.4929
20.5484
20.6002
20.6485
20.6934
20.7349
20.7734
20.8089
20.8416
20.8715
20.8987
20.9234
20.9458
20.966
20.9842
21.0007
21.0153
21.0284
21.0398
21.05
21.0589
21.0667
21.0735
21.0795
21.0847
21.0891
21.0928
21.0959
21.0985
21.1006
21.1024
21.1038
21.105
21.1059
21.1064
21.1068
21.107
21.107
21.1069
21.1068
21.1065
21.1062
21.1057
21.1052
21.1046
21.1039
21.1033
21.1026
21.1019
21.1012
21.1004
21.0995
21.0987
21.0978
21.0969
21.096
21.095
21.0941
21.0931
21.0921
21.091
21.09
21.0888
21.0877
21.0866
21.0854
21.0842
21.0811
0.861405
0.814337
0.771834
0.733315
0.698393
0.666789
0.63812
0.612064
0.588652
0.568689
0.554724
0.553277
0.579777
0.666844
0.871416
1.26532
1.90088
2.77515
3.82586
4.96093
6.09686
7.1797
8.1853
9.10826
9.95178
10.722
11.4256
12.0695
12.6584
13.1996
13.6984
14.1583
14.5814
14.9692
15.3225
15.6424
15.9304
16.1885
16.4191
16.6249
16.8089
16.9739
17.1229
17.2581
17.3818
17.4958
17.6016
17.7003
17.7929
17.8799
17.962
18.0393
18.1124
18.1813
18.2463
18.3073
18.3646
18.4182
18.4683
18.5149
18.5581
18.5982
18.6352
18.6691
18.7003
18.7287
18.7546
18.778
18.7992
18.8184
18.8356
18.851
18.8646
18.8768
18.8875
18.8969
18.9052
18.9125
18.9189
18.9243
18.929
18.9331
18.9365
18.9393
18.9416
18.9436
18.9453
18.9466
18.9475
18.9483
18.9488
18.9492
18.9493
18.9494
18.9493
18.9492
18.9489
18.9486
18.9482
18.9477
18.9472
18.9466
18.946
18.9454
18.9447
18.944
18.9433
18.9426
18.9418
18.941
18.9402
18.9394
18.9386
18.9377
18.9368
18.9359
18.9349
18.9339
18.933
18.932
18.9309
18.9281
0.861402
0.814329
0.771826
0.733311
0.698397
0.666806
0.638143
0.611991
0.588054
0.566193
0.54652
0.529655
0.517261
0.513122
0.525336
0.569834
0.674142
0.877313
1.22068
1.73103
2.40684
3.21637
4.10874
5.03027
5.93814
6.80572
7.62104
8.38123
9.08862
9.74293
10.3459
10.9002
11.4079
11.871
12.2918
12.673
13.0173
13.3279
13.608
13.8607
14.0891
14.2961
14.4845
14.6565
14.8143
14.9598
15.0944
15.2196
15.3362
15.4452
15.5474
15.6431
15.7329
15.8172
15.8963
15.9704
16.0397
16.1044
16.1648
16.221
16.273
16.3213
16.3658
16.4068
16.4444
16.4789
16.5103
16.5389
16.5647
16.5881
16.6092
16.6282
16.6451
16.6602
16.6736
16.6854
16.6959
16.7051
16.7131
16.7201
16.7262
16.7315
16.736
16.7399
16.7431
16.7458
16.7481
16.75
16.7515
16.7528
16.7538
16.7545
16.755
16.7554
16.7556
16.7556
16.7556
16.7555
16.7553
16.755
16.7547
16.7543
16.7538
16.7533
16.7528
16.7523
16.7517
16.7511
16.7505
16.7498
16.7492
16.7485
16.7478
16.747
16.7463
16.7455
16.7448
16.744
16.7432
16.7423
16.7414
16.7389
0.8614
0.814323
0.771818
0.733303
0.698389
0.666795
0.638127
0.611962
0.587968
0.56589
0.545539
0.526803
0.509694
0.494447
0.481712
0.472911
0.470896
0.481142
0.513391
0.583136
0.711719
0.923224
1.23832
1.66742
2.20663
2.83785
3.5332
4.26128
4.99366
5.70911
6.39218
7.03385
7.63315
8.19197
8.71309
9.19896
9.65148
10.072
10.4617
10.8214
11.1526
11.4566
11.735
11.9898
12.2228
12.4361
12.6314
12.8106
12.9753
13.127
13.2669
13.3962
13.5158
13.6266
13.7294
13.8247
13.913
13.9949
14.0708
14.141
14.2058
14.2656
14.3207
14.3713
14.4177
14.4602
14.4989
14.5341
14.566
14.5949
14.621
14.6444
14.6654
14.6842
14.701
14.7158
14.7289
14.7405
14.7507
14.7596
14.7673
14.7741
14.78
14.785
14.7893
14.7929
14.796
14.7986
14.8008
14.8026
14.8041
14.8053
14.8062
14.8069
14.8074
14.8077
14.808
14.8081
14.8081
14.808
14.8078
14.8076
14.8073
14.807
14.8066
14.8062
14.8057
14.8053
14.8048
14.8042
14.8037
14.8031
14.8026
14.802
14.8014
14.8008
14.8001
14.7995
14.7988
14.7981
14.7974
14.7952
0.861399
0.814318
0.771813
0.733297
0.698383
0.666786
0.638113
0.611943
0.58794
0.565841
0.545427
0.526519
0.508969
0.492664
0.477544
0.463618
0.451017
0.440081
0.431508
0.426605
0.427742
0.43901
0.466999
0.521364
0.614822
0.762068
0.977548
1.2726
1.65301
2.11769
2.65908
3.26354
3.91178
4.58355
5.25988
5.92459
6.565
7.17201
7.73983
8.26538
8.74779
9.18781
9.58732
9.94893
10.2757
10.5707
10.8372
11.0782
11.2965
11.4947
11.675
11.8394
11.9896
12.1272
12.2535
12.3694
12.4761
12.5742
12.6646
12.7477
12.8241
12.8944
12.9588
13.0179
13.072
13.1214
13.1664
13.2073
13.2444
13.278
13.3083
13.3355
13.3599
13.3818
13.4013
13.4187
13.434
13.4476
13.4596
13.47
13.4792
13.4872
13.4942
13.5002
13.5053
13.5098
13.5135
13.5167
13.5194
13.5217
13.5235
13.5251
13.5263
13.5273
13.528
13.5286
13.529
13.5293
13.5294
13.5295
13.5295
13.5293
13.5292
13.5289
13.5286
13.5283
13.528
13.5276
13.5272
13.5267
13.5263
13.5258
13.5253
13.5248
13.5243
13.5238
13.5232
13.5227
13.5221
13.5215
13.5209
13.5189
0.861399
0.814318
0.771813
0.733297
0.698383
0.666786
0.638113
0.611943
0.58794
0.565841
0.545428
0.52652
0.50897
0.492668
0.477551
0.463629
0.451036
0.440111
0.431547
0.426643
0.427744
0.43889
0.466566
0.520265
0.612478
0.757634
0.969967
1.2608
1.63614
2.09525
2.63125
3.23059