/*--------------------------------*- C++ -*----------------------------------*\
  =========                 |
  \\      /  F ield         | OpenFOAM: The Open Source CFD Toolbox
   \\    /   O peration     | Website:  https://openfoam.org
    \\  /    A nd           | Version:  8
     \\/     M anipulation  |
\*---------------------------------------------------------------------------*/
FoamFile
{
    version     2.0;
    format      ascii;
    class       volScalarField;
    location    "200";
    object      nut;
}
// * * * * * * * * * * * * * * * * * * * * * * * * * * * * * * * * * * * * * //

dimensions      [0 2 -1 0 0 0 0];

internalField   nonuniform List<scalar> 
7320
(
0.000286292
0.000273824
0.000265911
0.000260766
0.00025961
0.000259792
0.000260681
0.000261753
0.000262858
0.000264066
0.000265374
0.000266761
0.000268199
0.000269671
0.000271171
0.000272695
0.000274237
0.000275792
0.000277361
0.000278945
0.000280538
0.000282134
0.000283728
0.000285317
0.000286891
0.000288439
0.000289956
0.000291438
0.00029287
0.000294242
0.000295547
0.000296783
0.000297941
0.000299015
0.000300009
0.000300928
0.000301767
0.000302524
0.000303209
0.000303828
0.000304383
0.000304873
0.000305313
0.000305711
0.000306063
0.00030637
0.000306641
0.000306884
0.000307097
0.000307277
0.000307437
0.000307586
0.000307714
0.000307821
0.000307913
0.000307998
0.000308069
0.000308124
0.000308174
0.000308225
0.000308268
0.000308298
0.000308324
0.00030835
0.000308371
0.000308382
0.000308395
0.000308412
0.000308426
0.000308431
0.000308435
0.000308442
0.000308447
0.000308444
0.000308446
0.000308453
0.000308458
0.000308456
0.000308455
0.000308456
0.000308456
0.00030845
0.000308449
0.000308453
0.000308454
0.000308451
0.000308448
0.000308449
0.000308447
0.000308442
0.000308439
0.000308442
0.000308442
0.000308439
0.000308436
0.000308437
0.000308435
0.00030843
0.000308428
0.00030843
0.000308429
0.000308426
0.000308424
0.000308423
0.000308421
0.000308418
0.000308415
0.000308415
0.000308414
0.000308412
0.000308409
0.000308407
0.000308405
0.000308403
0.0003084
0.000308397
0.000308395
0.000308392
0.00030839
0.000308386
0.000308384
0.000308378
0.000562781
0.000740591
0.000767384
0.000767959
0.000815405
0.00100617
0.00122258
0.00136443
0.00145256
0.00151294
0.00155853
0.00159529
0.00162624
0.00165308
0.00167712
0.0016991
0.00171961
0.00173904
0.00175794
0.00177647
0.00179478
0.00181291
0.00183106
0.00184917
0.00186718
0.00188495
0.00190267
0.00192007
0.00193697
0.00195316
0.00196874
0.00198351
0.00199739
0.00201019
0.00202231
0.00203353
0.00204375
0.00205288
0.00206127
0.00206882
0.00207558
0.00208142
0.00208695
0.00209195
0.00209635
0.00210003
0.00210343
0.00210643
0.00210902
0.00211105
0.00211317
0.00211514
0.00211679
0.00211798
0.00211917
0.00212021
0.00212105
0.00212152
0.00212226
0.00212303
0.00212361
0.00212384
0.00212419
0.00212449
0.0021247
0.00212462
0.0021249
0.00212524
0.00212544
0.00212533
0.00212539
0.00212545
0.00212544
0.00212521
0.00212536
0.00212556
0.00212564
0.00212546
0.00212546
0.00212544
0.00212535
0.00212509
0.00212519
0.00212532
0.00212534
0.00212515
0.00212515
0.00212511
0.00212501
0.00212478
0.00212485
0.00212495
0.00212494
0.00212476
0.00212475
0.00212472
0.00212463
0.00212444
0.00212449
0.00212454
0.00212451
0.00212436
0.00212433
0.00212428
0.0021242
0.00212406
0.00212405
0.00212404
0.00212399
0.00212389
0.00212382
0.00212375
0.00212368
0.00212359
0.00212349
0.0021234
0.00212334
0.00212326
0.00212319
0.00212305
0.00212315
0.00212276
0.000761042
0.00115462
0.0012715
0.00131001
0.00154415
0.00228845
0.00300608
0.00343725
0.00369465
0.00386659
0.00399364
0.00409413
0.00417734
0.00424854
0.00431151
0.00436854
0.00442132
0.00447105
0.00451924
0.00456639
0.00461291
0.004659
0.0047052
0.00475136
0.0047974
0.00484292
0.00488844
0.00493327
0.00497694
0.00501894
0.00505947
0.00509804
0.00513439
0.00516805
0.0052
0.00522963
0.00525674
0.00528105
0.00530341
0.00532362
0.00534174
0.00535749
0.00537237
0.00538584
0.00539774
0.00540775
0.00541699
0.00542517
0.00543224
0.00543788
0.00544367
0.00544902
0.00545355
0.00545688
0.00546017
0.00546306
0.00546541
0.00546679
0.00546884
0.00547091
0.00547252
0.00547322
0.0054742
0.00547507
0.00547566
0.00547555
0.0054763
0.00547718
0.00547774
0.0054775
0.00547769
0.00547785
0.00547785
0.00547731
0.00547769
0.0054782
0.00547841
0.00547796
0.00547796
0.00547791
0.00547769
0.00547705
0.00547728
0.0054776
0.00547765
0.00547717
0.00547716
0.00547707
0.00547681
0.00547623
0.00547641
0.00547662
0.00547659
0.00547616
0.00547613
0.00547603
0.0054758
0.00547533
0.00547544
0.00547554
0.00547546
0.00547509
0.005475
0.00547487
0.00547466
0.0054743
0.00547426
0.00547423
0.00547411
0.00547384
0.00547367
0.00547349
0.0054733
0.00547306
0.0054728
0.00547257
0.00547242
0.00547221
0.00547201
0.00547165
0.00547189
0.00547091
0.000942155
0.00154889
0.00180437
0.00192212
0.00250533
0.00408734
0.00546536
0.00626542
0.00673818
0.00705088
0.00727919
0.00745765
0.00760388
0.00772792
0.00783678
0.00793481
0.00802513
0.00810998
0.00819201
0.00827224
0.00835146
0.00843008
0.00850904
0.00858818
0.00866736
0.00874598
0.00882483
0.00890282
0.00897914
0.00905291
0.00912438
0.00919268
0.00925737
0.00931758
0.00937479
0.00942805
0.00947698
0.0095211
0.00956173
0.00959857
0.00963171
0.00966074
0.00968798
0.00971271
0.00973464
0.00975329
0.00977041
0.00978562
0.00979886
0.00980959
0.00982035
0.00983024
0.00983873
0.00984515
0.00985135
0.00985681
0.00986131
0.00986418
0.00986799
0.00987178
0.00987481
0.00987632
0.00987821
0.00987987
0.00988107
0.00988109
0.00988243
0.00988399
0.00988501
0.00988476
0.00988514
0.00988547
0.00988554
0.00988471
0.00988531
0.00988616
0.00988653
0.00988585
0.00988584
0.00988577
0.00988543
0.00988441
0.00988473
0.00988523
0.00988531
0.00988455
0.00988451
0.00988435
0.00988393
0.00988299
0.00988321
0.00988354
0.00988349
0.00988279
0.0098827
0.00988253
0.00988214
0.00988137
0.0098815
0.00988164
0.0098815
0.00988091
0.00988072
0.0098805
0.00988014
0.00987953
0.00987944
0.00987937
0.00987916
0.0098787
0.0098784
0.00987809
0.00987777
0.00987735
0.00987692
0.00987652
0.00987625
0.00987588
0.00987555
0.00987495
0.00987531
0.00987369
0.00110975
0.00189282
0.0023282
0.00257427
0.00366541
0.00627952
0.00843242
0.00967966
0.0104199
0.0109075
0.0112601
0.0115326
0.0117535
0.0119391
0.0121006
0.012245
0.0123772
0.012501
0.0126203
0.0127369
0.012852
0.0129665
0.0130817
0.0131975
0.0133139
0.0134299
0.0135467
0.0136627
0.0137769
0.0138879
0.0139958
0.0140994
0.0141981
0.0142904
0.0143782
0.0144603
0.014536
0.0146046
0.0146679
0.0147255
0.0147775
0.0148233
0.0148661
0.014905
0.0149397
0.0149694
0.0149966
0.0150209
0.0150421
0.0150596
0.0150767
0.0150924
0.015106
0.0151166
0.0151266
0.0151355
0.0151429
0.0151479
0.0151539
0.0151599
0.0151648
0.0151676
0.0151706
0.0151734
0.0151754
0.0151758
0.0151779
0.0151802
0.0151819
0.0151817
0.0151824
0.0151829
0.0151831
0.0151821
0.0151829
0.0151841
0.0151847
0.0151838
0.0151838
0.0151837
0.0151833
0.0151819
0.0151822
0.0151829
0.015183
0.015182
0.0151819
0.0151817
0.0151811
0.0151798
0.01518
0.0151804
0.0151803
0.0151793
0.0151792
0.0151789
0.0151783
0.0151773
0.0151774
0.0151775
0.0151773
0.0151765
0.0151762
0.0151758
0.0151753
0.0151744
0.0151742
0.0151741
0.0151738
0.0151731
0.0151727
0.0151722
0.0151717
0.0151711
0.0151705
0.0151699
0.0151695
0.0151689
0.0151684
0.0151676
0.015168
0.0151657
0.00129924
0.00216845
0.00281062
0.0032359
0.00496232
0.00873593
0.0117788
0.0135718
0.0146496
0.0153594
0.0158685
0.0162577
0.0165696
0.0168289
0.0170521
0.01725
0.01743
0.0175975
0.0177581
0.0179146
0.0180692
0.0182231
0.0183781
0.0185345
0.0186921
0.0188501
0.0190095
0.0191688
0.0193262
0.01948
0.0196302
0.0197752
0.0199138
0.0200442
0.0201684
0.0202849
0.0203929
0.0204913
0.020582
0.0206649
0.02074
0.0208065
0.0208684
0.0209248
0.0209752
0.0210189
0.0210586
0.0210942
0.0211255
0.0211516
0.0211767
0.0211997
0.0212199
0.0212359
0.0212507
0.0212639
0.0212751
0.021283
0.0212919
0.0213006
0.0213079
0.0213124
0.021317
0.0213211
0.0213244
0.0213254
0.0213283
0.0213316
0.021334
0.0213342
0.0213352
0.0213361
0.0213365
0.0213354
0.0213363
0.0213379
0.0213387
0.0213378
0.0213377
0.0213376
0.0213371
0.0213354
0.0213357
0.0213365
0.0213366
0.0213354
0.0213352
0.0213349
0.0213341
0.0213324
0.0213325
0.021333
0.0213329
0.0213317
0.0213314
0.021331
0.0213303
0.0213289
0.0213288
0.021329
0.0213287
0.0213277
0.0213272
0.0213267
0.021326
0.0213249
0.0213245
0.0213243
0.0213238
0.021323
0.0213223
0.0213217
0.021321
0.0213202
0.0213193
0.0213185
0.0213179
0.0213172
0.0213165
0.0213153
0.0213159
0.0213128
0.0015893
0.00237093
0.00322087
0.00387133
0.00631629
0.0113343
0.0153951
0.0178566
0.0193634
0.0203593
0.0210694
0.021607
0.0220331
0.0223834
0.0226816
0.0229432
0.023179
0.0233968
0.0236042
0.0238056
0.024004
0.0242015
0.0244006
0.0246019
0.0248054
0.0250101
0.0252174
0.0254253
0.0256318
0.0258346
0.0260334
0.0262261
0.0264112
0.0265861
0.0267531
0.0269102
0.0270564
0.0271902
0.0273138
0.027427
0.0275298
0.0276216
0.0277065
0.027784
0.0278536
0.0279145
0.0279696
0.0280191
0.0280628
0.0280998
0.0281347
0.0281667
0.0281949
0.0282178
0.0282388
0.0282574
0.0282734
0.0282852
0.0282976
0.0283097
0.0283199
0.0283268
0.0283334
0.0283393
0.0283441
0.0283461
0.02835
0.0283544
0.0283579
0.0283587
0.0283601
0.0283614
0.0283621
0.028361
0.0283621
0.028364
0.0283652
0.0283642
0.0283642
0.0283641
0.0283635
0.0283614
0.0283616
0.0283625
0.0283627
0.0283613
0.0283609
0.0283605
0.0283596
0.0283576
0.0283575
0.0283579
0.0283578
0.0283564
0.0283559
0.0283554
0.0283545
0.0283527
0.0283525
0.0283526
0.0283522
0.028351
0.0283503
0.0283496
0.0283487
0.0283473
0.0283467
0.0283463
0.0283458
0.0283447
0.0283438
0.0283429
0.0283421
0.028341
0.0283399
0.0283388
0.028338
0.028337
0.0283362
0.0283346
0.0283352
0.0283314
0.0021295
0.00252013
0.0035323
0.0044395
0.00763815
0.0139554
0.0191742
0.0224503
0.0245009
0.0258664
0.0268373
0.0275667
0.0281392
0.028605
0.0289967
0.0293366
0.0296398
0.0299172
0.0301791
0.0304319
0.0306801
0.0309266
0.031175
0.0314263
0.031681
0.031938
0.0321987
0.0324612
0.0327231
0.0329815
0.0332356
0.033483
0.0337214
0.0339479
0.0341643
0.0343688
0.0345596
0.0347351
0.0348974
0.0350464
0.0351823
0.0353041
0.0354165
0.0355193
0.035612
0.0356935
0.0357672
0.0358336
0.0358924
0.0359428
0.0359896
0.0360326
0.0360707
0.0361023
0.0361308
0.0361562
0.036178
0.0361949
0.0362116
0.0362278
0.0362418
0.0362517
0.0362609
0.0362691
0.0362758
0.0362793
0.0362844
0.0362902
0.0362949
0.0362965
0.0362985
0.0363004
0.0363016
0.0363006
0.0363019
0.0363042
0.0363057
0.0363049
0.0363048
0.0363048
0.0363041
0.0363018
0.0363018
0.0363027
0.0363031
0.0363015
0.0363009
0.0363004
0.0362993
0.0362969
0.0362965
0.036297
0.0362968
0.0362952
0.0362944
0.0362938
0.0362927
0.0362906
0.0362901
0.0362901
0.0362896
0.0362881
0.0362872
0.0362863
0.0362852
0.0362835
0.0362826
0.0362821
0.0362813
0.03628
0.0362789
0.0362778
0.0362766
0.0362753
0.0362739
0.0362725
0.0362715
0.0362702
0.0362691
0.0362672
0.0362678
0.0362632
0.00315338
0.00268521
0.00373186
0.004897
0.00883358
0.0164773
0.0230008
0.0272583
0.0299923
0.0318331
0.0331431
0.0341226
0.0348854
0.0355001
0.0360114
0.0364502
0.0368371
0.0371874
0.0375147
0.0378281
0.038134
0.0384367
0.0387408
0.0390485
0.0393605
0.039676
0.0399965
0.0403202
0.0406442
0.0409651
0.0412817
0.0415911
0.0418903
0.0421758
0.042449
0.0427078
0.0429503
0.0431742
0.0433816
0.0435725
0.0437471
0.0439043
0.044049
0.0441817
0.0443017
0.0444079
0.0445039
0.0445904
0.0446675
0.044734
0.0447953
0.0448516
0.0449017
0.0449438
0.0449815
0.0450152
0.0450445
0.0450676
0.0450897
0.0451109
0.0451296
0.0451434
0.0451558
0.0451668
0.045176
0.0451815
0.0451881
0.0451955
0.0452018
0.0452046
0.0452074
0.0452101
0.0452119
0.0452112
0.0452126
0.0452153
0.0452174
0.0452168
0.0452167
0.0452167
0.0452161
0.0452136
0.0452132
0.0452142
0.0452147
0.045213
0.0452122
0.0452116
0.0452103
0.0452076
0.0452068
0.0452071
0.0452069
0.0452052
0.0452041
0.0452032
0.0452019
0.0451995
0.0451987
0.0451985
0.0451979
0.0451962
0.045195
0.0451939
0.0451925
0.0451905
0.0451893
0.0451885
0.0451875
0.045186
0.0451845
0.0451832
0.0451818
0.0451801
0.0451784
0.0451767
0.0451753
0.0451737
0.0451724
0.0451701
0.0451706
0.0451651
0.00493035
0.00302666
0.00384255
0.00520644
0.00980549
0.0187685
0.026743
0.0321662
0.0357478
0.0381948
0.0399444
0.0412504
0.0422622
0.0430714
0.0437382
0.0443042
0.0447977
0.0452396
0.0456475
0.0460343
0.0464088
0.0467772
0.0471457
0.0475176
0.0478944
0.0482758
0.0486632
0.0490554
0.0494489
0.04984
0.0502267
0.0506058
0.0509738
0.0513262
0.0516637
0.0519845
0.052286
0.0525655
0.0528248
0.0530642
0.0532836
0.0534821
0.0536645
0.053832
0.053984
0.0541194
0.0542416
0.0543521
0.0544508
0.0545368
0.0546153
0.0546873
0.0547519
0.0548069
0.0548558
0.0548996
0.0549379
0.0549688
0.0549975
0.0550249
0.0550492
0.055068
0.0550843
0.055099
0.0551113
0.0551194
0.0551278
0.0551372
0.0551455
0.05515
0.0551538
0.0551574
0.0551601
0.05516
0.0551615
0.0551647
0.0551674
0.0551673
0.0551672
0.0551673
0.0551668
0.0551642
0.0551634
0.0551643
0.0551649
0.0551633
0.0551622
0.0551614
0.05516
0.055157
0.0551557
0.0551558
0.0551556
0.0551537
0.0551523
0.0551512
0.0551497
0.055147
0.0551456
0.0551453
0.0551446
0.0551427
0.0551411
0.0551397
0.0551381
0.0551357
0.0551341
0.055133
0.0551318
0.05513
0.0551282
0.0551265
0.0551248
0.0551229
0.0551208
0.0551187
0.055117
0.055115
0.0551134
0.0551107
0.0551111
0.0551046
0.00765209
0.00383945
0.00396778
0.00535584
0.0104582
0.0206829
0.0302449
0.0370313
0.0416487
0.04486
0.047175
0.0489062
0.0502442
0.0513091
0.0521801
0.0529121
0.053544
0.0541033
0.0546133
0.0550913
0.0555494
0.0559966
0.0564408
0.0568872
0.0573383
0.0577944
0.0582573
0.0587262
0.0591976
0.0596671
0.0601322
0.0605894
0.0610343
0.0614619
0.0618719
0.0622627
0.0626309
0.0629737
0.0632921
0.0635868
0.0638577
0.0641038
0.0643296
0.0645374
0.0647265
0.064896
0.0650489
0.0651874
0.0653117
0.0654208
0.0655196
0.0656104
0.0656921
0.0657626
0.0658251
0.065881
0.0659302
0.0659708
0.0660075
0.0660424
0.0660736
0.0660985
0.0661199
0.066139
0.0661553
0.0661667
0.0661776
0.0661894
0.0662
0.0662066
0.0662118
0.0662167
0.0662205
0.0662213
0.066223
0.0662267
0.0662301
0.0662307
0.0662308
0.0662311
0.0662307
0.0662281
0.0662269
0.0662277
0.0662284
0.0662269
0.0662255
0.0662246
0.066223
0.0662198
0.0662179
0.0662177
0.0662175
0.0662155
0.0662137
0.0662124
0.0662106
0.0662076
0.0662057
0.066205
0.0662042
0.0662021
0.0662001
0.0661984
0.0661965
0.0661938
0.0661917
0.0661903
0.0661888
0.0661868
0.0661846
0.0661825
0.0661805
0.0661782
0.0661757
0.0661732
0.0661711
0.0661687
0.0661668
0.0661636
0.0661638
0.0661562
0.0113234
0.00551208
0.00436034
0.00540035
0.0107094
0.0220567
0.0333184
0.0416737
0.0475373
0.0516991
0.0547343
0.0570156
0.0587801
0.0601811
0.0613214
0.0622725
0.063086
0.0637986
0.0644404
0.0650344
0.0655971
0.066141
0.0666764
0.067211
0.0677487
0.0682907
0.0688395
0.069395
0.0699536
0.0705109
0.0710636
0.0716078
0.0721386
0.0726502
0.0731413
0.0736104
0.0740536
0.0744676
0.0748527
0.07521
0.0755393
0.0758397
0.0761151
0.0763688
0.0766006
0.0768094
0.0769979
0.077169
0.0773231
0.0774594
0.0775821
0.0776949
0.0777969
0.0778859
0.0779645
0.0780351
0.0780974
0.0781498
0.0781963
0.0782401
0.0782797
0.0783122
0.0783397
0.0783644
0.0783856
0.0784014
0.0784152
0.07843
0.0784436
0.0784529
0.07846
0.0784665
0.0784717
0.0784738
0.0784758
0.0784801
0.0784844
0.0784859
0.0784862
0.0784868
0.0784867
0.0784843
0.0784825
0.0784832
0.078484
0.0784828
0.0784811
0.07848
0.0784784
0.0784749
0.0784723
0.0784718
0.0784715
0.0784695
0.0784673
0.0784657
0.0784637
0.0784604
0.0784578
0.0784567
0.0784557
0.0784535
0.0784511
0.0784491
0.0784468
0.0784438
0.0784411
0.0784393
0.0784376
0.0784352
0.0784326
0.0784302
0.0784277
0.078425
0.0784221
0.0784192
0.0784166
0.0784138
0.0784116
0.0784078
0.0784077
0.0783991
0.015721
0.00833296
0.00546535
0.00553731
0.0105199
0.022713
0.0357366
0.0458667
0.0532059
0.0585326
0.0624739
0.0654607
0.0677794
0.0696213
0.0711169
0.0723581
0.0734119
0.0743268
0.0751412
0.0758857
0.0765822
0.0772476
0.0778957
0.078537
0.0791775
0.0798203
0.0804682
0.0811225
0.0817799
0.082436
0.0830865
0.0837279
0.0843543
0.0849595
0.0855408
0.0860969
0.0866236
0.0871171
0.0875769
0.0880043
0.0883993
0.0887608
0.0890923
0.0893982
0.0896784
0.0899321
0.0901615
0.0903701
0.0905586
0.0907264
0.0908772
0.0910157
0.0911413
0.0912522
0.09135
0.0914379
0.0915161
0.0915827
0.091641
0.0916956
0.0917452
0.091787
0.0918222
0.0918537
0.091881
0.0919022
0.09192
0.0919383
0.0919555
0.0919683
0.0919778
0.0919864
0.0919935
0.0919972
0.0919999
0.0920049
0.0920103
0.0920129
0.0920137
0.0920147
0.092015
0.0920129
0.0920107
0.0920111
0.0920121
0.0920112
0.0920093
0.0920081
0.0920063
0.0920028
0.0919994
0.0919984
0.091998
0.091996
0.0919934
0.0919915
0.0919893
0.0919857
0.0919824
0.0919809
0.0919796
0.0919773
0.0919744
0.091972
0.0919695
0.0919661
0.0919627
0.0919605
0.0919584
0.0919558
0.0919527
0.0919499
0.091947
0.0919439
0.0919405
0.0919371
0.091934
0.0919307
0.0919281
0.0919238
0.0919233
0.0919134
0.0204327
0.0122843
0.00777974
0.00619518
0.00995283
0.0224804
0.0372293
0.049326
0.0583846
0.0651167
0.0701822
0.0740636
0.0770965
0.0795134
0.0814766
0.0831018
0.0844746
0.0856581
0.0867012
0.0876436
0.0885143
0.0893358
0.0901261
0.0908997
0.0916656
0.0924289
0.0931936
0.0939625
0.0947332
0.0955014
0.0962624
0.0970127
0.0977459
0.0984552
0.0991367
0.0997892
0.100408
0.10099
0.101533
0.102038
0.102506
0.102936
0.10333
0.103694
0.104029
0.104333
0.104609
0.10486
0.105089
0.105293
0.105476
0.105644
0.105797
0.105934
0.106054
0.106163
0.10626
0.106343
0.106416
0.106483
0.106545
0.106598
0.106643
0.106683
0.106717
0.106745
0.106768
0.106791
0.106812
0.10683
0.106842
0.106854
0.106863
0.106869
0.106873
0.106879
0.106885
0.106889
0.106891
0.106892
0.106893
0.106892
0.106889
0.106889
0.10689
0.10689
0.106888
0.106887
0.106885
0.106881
0.106877
0.106876
0.106875
0.106873
0.10687
0.106868
0.106865
0.106862
0.106857
0.106855
0.106854
0.106851
0.106848
0.106845
0.106842
0.106839
0.106835
0.106832
0.106829
0.106826
0.106823
0.10682
0.106816
0.106813
0.106809
0.106805
0.106801
0.106797
0.106794
0.106789
0.106789
0.106777
0.0249625
0.0170131
0.0114949
0.00800394
0.00926916
0.021242
0.0374901
0.0516993
0.0627265
0.071127
0.0775667
0.0825676
0.0865112
0.0896718
0.0922464
0.0943787
0.0961744
0.0977152
0.099063
0.100268
0.101369
0.102394
0.103368
0.104309
0.105232
0.106143
0.107048
0.107953
0.108856
0.109754
0.110641
0.111515
0.112368
0.113194
0.113987
0.114746
0.115467
0.116146
0.11678
0.117371
0.11792
0.118425
0.118889
0.119318
0.119713
0.120074
0.120402
0.120702
0.120975
0.12122
0.121441
0.121643
0.121828
0.121994
0.122141
0.122274
0.122393
0.122497
0.122587
0.12267
0.122746
0.122812
0.122868
0.122918
0.122962
0.122999
0.123028
0.123056
0.123083
0.123106
0.123122
0.123137
0.12315
0.123158
0.123164
0.123171
0.123179
0.123185
0.123188
0.12319
0.123192
0.123191
0.123188
0.123188
0.123189
0.123189
0.123187
0.123186
0.123184
0.123181
0.123176
0.123173
0.123173
0.123171
0.123167
0.123165
0.123162
0.123158
0.123153
0.123151
0.123149
0.123146
0.123142
0.123139
0.123136
0.123132
0.123127
0.123124
0.123121
0.123117
0.123114
0.12311
0.123106
0.123102
0.123098
0.123093
0.123089
0.123084
0.123081
0.123075
0.123074
0.123061
0.0288692
0.0219578
0.0162801
0.0114288
0.00905019
0.0190318
0.0362084
0.0525623
0.0657932
0.0761407
0.0842326
0.090614
0.0957038
0.0998161
0.103184
0.10598
0.108335
0.110351
0.112105
0.113661
0.115067
0.116362
0.117576
0.118736
0.119858
0.120954
0.122034
0.123104
0.124166
0.125216
0.126251
0.127267
0.128257
0.129214
0.130133
0.131011
0.131845
0.132631
0.133365
0.134051
0.134687
0.135275
0.135815
0.136316
0.136777
0.137201
0.137587
0.137941
0.138264
0.138556
0.138819
0.139061
0.139282
0.139482
0.13966
0.139821
0.139966
0.140094
0.140204
0.140306
0.140399
0.140481
0.140552
0.140614
0.140669
0.140716
0.140753
0.140789
0.140822
0.140851
0.140873
0.140892
0.140908
0.140921
0.140928
0.140937
0.140947
0.140955
0.140959
0.140963
0.140966
0.140966
0.140963
0.140963
0.140964
0.140965
0.140963
0.140962
0.14096
0.140957
0.140951
0.140948
0.140947
0.140945
0.140942
0.140939
0.140936
0.140932
0.140926
0.140923
0.14092
0.140918
0.140913
0.14091
0.140906
0.140902
0.140896
0.140892
0.140889
0.140885
0.140881
0.140877
0.140872
0.140868
0.140863
0.140858
0.140853
0.140848
0.140844
0.140838
0.140836
0.140821
0.0318839
0.0265232
0.021442
0.0162689
0.0102691
0.016195
0.0331567
0.0514345
0.067043
0.0796165
0.0896603
0.0977158
0.104227
0.109541
0.113926
0.117585
0.120675
0.123317
0.125612
0.127636
0.129451
0.131105
0.132639
0.134085
0.135467
0.136802
0.138103
0.13938
0.140636
0.141872
0.143083
0.144267
0.145417
0.146526
0.147587
0.1486
0.14956
0.150464
0.151309
0.152097
0.15283
0.153508
0.154131
0.154709
0.155243
0.155735
0.156185
0.156598
0.156977
0.157322
0.157633
0.157919
0.158181
0.15842
0.158634
0.158828
0.159003
0.159159
0.159294
0.159418
0.159531
0.159633
0.15972
0.159798
0.159866
0.159926
0.159973
0.160017
0.160059
0.160095
0.160124
0.160149
0.16017
0.160187
0.160198
0.160209
0.160221
0.160232
0.160238
0.160243
0.160248
0.160249
0.160247
0.160247
0.160248
0.16025
0.160248
0.160247
0.160245
0.160242
0.160236
0.160233
0.160231
0.16023
0.160226
0.160222
0.160219
0.160215
0.160209
0.160205
0.160202
0.160199
0.160194
0.16019
0.160186
0.160182
0.160176
0.160171
0.160167
0.160163
0.160158
0.160153
0.160148
0.160143
0.160138
0.160132
0.160127
0.160121
0.160116
0.16011
0.160107
0.160091
0.0339555
0.0302486
0.0262367
0.02167
0.0138886
0.0135898
0.0283801
0.0478498
0.0658362
0.0808786
0.0931811
0.103229
0.111473
0.118282
0.123953
0.128719
0.132763
0.13623
0.139239
0.141886
0.144246
0.146381
0.148342
0.150169
0.151894
0.153542
0.15513
0.156671
0.158175
0.159642
0.16107
0.162457
0.163799
0.165087
0.166315
0.167483
0.168586
0.169623
0.170591
0.171492
0.17233
0.173105
0.173819
0.17448
0.175093
0.17566
0.176179
0.176658
0.177098
0.177501
0.177867
0.178202
0.178512
0.178795
0.17905
0.179282
0.179492
0.179681
0.179846
0.179996
0.180133
0.180257
0.180365
0.180461
0.180546
0.180621
0.180682
0.180737
0.180788
0.180834
0.180871
0.180903
0.18093
0.180953
0.180968
0.180983
0.180998
0.181012
0.181021
0.181028
0.181034
0.181038
0.181037
0.181037
0.181039
0.181041
0.18104
0.181039
0.181038
0.181035
0.181029
0.181025
0.181023
0.181021
0.181017
0.181013
0.18101
0.181006
0.180999
0.180994
0.180991
0.180987
0.180983
0.180978
0.180974
0.180969
0.180962
0.180957
0.180952
0.180947
0.180942
0.180937
0.180931
0.180926
0.18092
0.180914
0.180908
0.180902
0.180896
0.180889
0.180885
0.180867
0.0352148
0.0329208
0.0301136
0.026645
0.0196372
0.0127467
0.0225374
0.0415507
0.061494
0.0791168
0.0939568
0.106326
0.11664
0.125275
0.132546
0.138711
0.143979
0.148516
0.152461
0.15593
0.159015
0.161793
0.164323
0.16666
0.168844
0.170908
0.172873
0.174762
0.176585
0.178348
0.180051
0.181694
0.183273
0.18478
0.18621
0.187561
0.188832
0.190022
0.191129
0.192157
0.19311
0.193992
0.194805
0.195557
0.196255
0.196902
0.197497
0.198047
0.198555
0.199023
0.199449
0.199841
0.200203
0.200537
0.200839
0.201115
0.201366
0.201593
0.201794
0.201976
0.202142
0.202293
0.202426
0.202544
0.20265
0.202743
0.20282
0.202889
0.202953
0.20301
0.203057
0.203099
0.203134
0.203164
0.203185
0.203205
0.203224
0.203241
0.203254
0.203264
0.203273
0.203279
0.203279
0.20328
0.203283
0.203286
0.203285
0.203285
0.203284
0.203283
0.203276
0.203272
0.203269
0.203268
0.203263
0.20326
0.203256
0.203252
0.203245
0.203239
0.203235
0.203231
0.203226
0.203221
0.203217
0.203211
0.203204
0.203198
0.203193
0.203188
0.203182
0.203176
0.20317
0.203164
0.203158
0.203151
0.203145
0.203138
0.203132
0.203124
0.203119
0.203099
0.035886
0.0345898
0.0328388
0.0305263
0.025688
0.0155533
0.0173404
0.032935
0.053503
0.0734465
0.0909818
0.105969
0.118698
0.129515
0.138739
0.146642
0.153452
0.159358
0.164515
0.169058
0.173098
0.176727
0.180018
0.183037
0.185835
0.188453
0.190923
0.193272
0.195517
0.197668
0.19973
0.201703
0.203584
0.205369
0.20705
0.208628
0.210103
0.211475
0.212745
0.213919
0.215004
0.216006
0.216928
0.217781
0.218572
0.219306
0.219985
0.220614
0.221197
0.221737
0.222231
0.222688
0.22311
0.223502
0.223859
0.224186
0.224486
0.224759
0.225001
0.225222
0.225423
0.225606
0.225769
0.225915
0.226046
0.226162
0.22626
0.226347
0.226426
0.226498
0.226559
0.226612
0.226658
0.226697
0.226726
0.226752
0.226776
0.226798
0.226816
0.22683
0.226842
0.226851
0.226854
0.226857
0.22686
0.226864
0.226865
0.226866
0.226866
0.226865
0.226859
0.226855
0.226851
0.226849
0.226845
0.226842
0.226838
0.226834
0.226827
0.22682
0.226815
0.226811
0.226806
0.226801
0.226795
0.22679
0.226783
0.226776
0.22677
0.226764
0.226758
0.226752
0.226746
0.226739
0.226732
0.226725
0.226718
0.22671
0.226704
0.226695
0.22669
0.226667
0.0361961
0.0354868
0.0344885
0.0331114
0.0303507
0.0220766
0.0156437
0.0238533
0.0420707
0.0631499
0.0831617
0.100927
0.116371
0.129726
0.141275
0.151289
0.160006
0.167628
0.174329
0.180257
0.185539
0.190284
0.19458
0.198505
0.202121
0.205482
0.208627
0.211592
0.214401
0.21707
0.219606
0.222015
0.224293
0.22644
0.228447
0.230316
0.232048
0.233649
0.23512
0.236472
0.237714
0.238856
0.239905
0.240873
0.24177
0.242604
0.243376
0.244095
0.244764
0.245385
0.245958
0.24649
0.246984
0.247443
0.247865
0.248254
0.248612
0.248939
0.249234
0.249501
0.249746
0.24997
0.25017
0.250351
0.250513
0.250658
0.250783
0.250893
0.250992
0.251083
0.25116
0.251228
0.251288
0.251339
0.251379
0.251414
0.251445
0.251474
0.251497
0.251517
0.251533
0.251547
0.251553
0.251558
0.251564
0.251569
0.251572
0.251573
0.251575
0.251575
0.25157
0.251566
0.251563
0.25156
0.251557
0.251553
0.251549
0.251545
0.251538
0.251531
0.251526
0.251521
0.251515
0.25151
0.251504
0.251499
0.251491
0.251484
0.251477
0.251471
0.251464
0.251458
0.251451
0.251444
0.251437
0.251429
0.251421
0.251413
0.251406
0.251397
0.251391
0.251366
0.0363184
0.0358956
0.0353364
0.0345739
0.0331837
0.028762
0.0198831
0.0182479
0.029351
0.0484177
0.0696461
0.0899023
0.108178
0.124351
0.138579
0.151087
0.162102
0.171829
0.180452
0.18813
0.195
0.201186
0.206793
0.211908
0.216608
0.220956
0.225003
0.228793
0.232357
0.23572
0.238892
0.241884
0.244694
0.247323
0.249764
0.252019
0.254093
0.255992
0.257725
0.259305
0.260747
0.262066
0.263273
0.264383
0.26541
0.266364
0.26725
0.268077
0.268848
0.269569
0.270238
0.270861
0.271442
0.271984
0.272486
0.272951
0.273381
0.273777
0.274136
0.274464
0.274764
0.275039
0.275288
0.275512
0.275715
0.275897
0.276057
0.276198
0.276325
0.276439
0.276539
0.276627
0.276704
0.276772
0.276826
0.276873
0.276915
0.276952
0.276984
0.277011
0.277033
0.277052
0.277064
0.277073
0.277081
0.277089
0.277094
0.277098
0.277101
0.277102
0.277099
0.277096
0.277093
0.277091
0.277087
0.277084
0.27708
0.277076
0.277069
0.277063
0.277057
0.277052
0.277046
0.27704
0.277034
0.277028
0.27702
0.277013
0.277006
0.276999
0.276992
0.276985
0.276977
0.27697
0.276962
0.276954
0.276946
0.276938
0.27693
0.27692
0.276913
0.276886
0.036359
0.0360512
0.0357002
0.0352675
0.034596
0.0327879
0.0274756
0.0202895
0.0207953
0.0322177
0.050935
0.0720594
0.0926655
0.111657
0.128786
0.144116
0.157805
0.170037
0.180988
0.19082
0.199678
0.20769
0.214972
0.221625
0.227737
0.233381
0.238619
0.243505
0.248077
0.252368
0.256396
0.260172
0.2637
0.26698
0.27001
0.272791
0.27533
0.277638
0.279729
0.281622
0.283338
0.284898
0.28632
0.287623
0.288826
0.289941
0.290979
0.291948
0.292855
0.293705
0.294499
0.295242
0.295937
0.296589
0.297195
0.29776
0.298284
0.29877
0.299214
0.299622
0.299996
0.30034
0.300652
0.300936
0.301193
0.301425
0.301631
0.301814
0.301978
0.302126
0.302256
0.302372
0.302473
0.302563
0.302638
0.302702
0.302758
0.302809
0.302851
0.302888
0.30292
0.302947
0.302966
0.302981
0.302994
0.303005
0.303013
0.30302
0.303025
0.303029
0.303028
0.303027
0.303024
0.303023
0.30302
0.303017
0.303013
0.30301
0.303004
0.302997
0.302991
0.302985
0.302979
0.302973
0.302967
0.302961
0.302954
0.302946
0.302938
0.302931
0.302924
0.302916
0.302909
0.302901
0.302893
0.302885
0.302876
0.302867
0.302859
0.302849
0.302841
0.302811
0.0363701
0.0360997
0.035828
0.0355382
0.0351791
0.0344964
0.0325584
0.0278671
0.0221294
0.0223335
0.031888
0.0488984
0.0693746
0.0902103
0.109982
0.128215
0.14483
0.159906
0.173571
0.185965
0.197229
0.207491
0.216867
0.225461
0.233373
0.240687
0.247474
0.253793
0.259694
0.265215
0.270381
0.275208
0.279703
0.283867
0.287699
0.291204
0.29439
0.297273
0.299874
0.302219
0.304335
0.306251
0.307993
0.309585
0.311051
0.312409
0.313671
0.314851
0.315958
0.316997
0.317971
0.318886
0.319745
0.320551
0.321305
0.32201
0.322667
0.323278
0.323841
0.32436
0.324838
0.325278
0.325679
0.326045
0.326379
0.326681
0.326952
0.327194
0.327411
0.327607
0.32778
0.327934
0.328071
0.328192
0.328296
0.328385
0.328463
0.328532
0.328591
0.328643
0.328687
0.328725
0.328755
0.328779
0.328799
0.328816
0.32883
0.328841
0.328849
0.328856
0.328859
0.32886
0.32886
0.32886
0.328858
0.328855
0.328853
0.32885
0.328844
0.328839
0.328833
0.328827
0.328821
0.328815
0.328809
0.328802
0.328795
0.328787
0.32878
0.328772
0.328764
0.328757
0.328749
0.328741
0.328733
0.328724
0.328716
0.328706
0.328698
0.328688
0.328679
0.328647
0.0363726
0.0361118
0.035864
0.0356233
0.0353763
0.0350648
0.0344601
0.0329557
0.0296051
0.0249536
0.0234368
0.0291738
0.0424467
0.0608484
0.0812597
0.101568
0.120863
0.138847
0.155455
0.170732
0.184776
0.197694
0.20959
0.220563
0.23071
0.240118
0.248867
0.257021
0.264635
0.271755
0.278413
0.284627
0.290407
0.295758
0.30068
0.30518
0.309273
0.31298
0.316327
0.319348
0.322077
0.324552
0.326803
0.328863
0.330759
0.332514
0.334145
0.33567
0.337098
0.33844
0.3397
0.340883
0.341996
0.34304
0.344019
0.344935
0.345791
0.346588
0.347327
0.34801
0.34864
0.349221
0.349753
0.35024
0.350685
0.35109
0.351454
0.351783
0.352078
0.352344
0.352581
0.352792
0.35298
0.353147
0.353292
0.353419
0.35353
0.353627
0.353711
0.353784
0.353848
0.353903
0.353948
0.353986
0.354017
0.354043
0.354065
0.354083
0.354097
0.354109
0.354117
0.354122
0.354125
0.354127
0.354127