/*--------------------------------*- C++ -*----------------------------------*\
  =========                 |
  \\      /  F ield         | OpenFOAM: The Open Source CFD Toolbox
   \\    /   O peration     | Website:  https://openfoam.org
    \\  /    A nd           | Version:  8
     \\/     M anipulation  |
\*---------------------------------------------------------------------------*/
FoamFile
{
    version     2.0;
    format      ascii;
    class       volScalarField;
    location    "200";
    object      p;
}
// * * * * * * * * * * * * * * * * * * * * * * * * * * * * * * * * * * * * * //

dimensions      [0 2 -2 0 0 0 0];

internalField   nonuniform List<scalar> 
7320
(
1071.38
1065.52
1063.61
1062.11
1059.99
1053.39
1041.95
1029.15
1016.71
1004.8
993.341
982.254
971.533
961.148
951.084
941.307
931.81
922.565
913.557
904.754
896.15
887.722
879.459
871.333
863.342
855.469
847.706
840.028
832.442
824.932
817.496
810.105
802.759
795.434
788.115
780.76
773.37
765.918
758.395
750.767
743.046
735.217
727.283
719.22
711.059
702.793
694.439
685.981
677.448
668.839
660.168
651.414
642.611
633.756
624.864
615.916
606.939
597.928
588.894
579.812
570.714
561.592
552.459
543.293
534.12
524.931
515.737
506.509
497.28
488.041
478.802
469.541
460.282
451.016
441.751
432.462
423.178
413.89
404.607
395.308
386.015
376.72
367.429
358.119
348.817
339.513
330.215
320.905
311.603
302.299
293.001
283.686
274.38
265.073
255.772
246.461
237.158
227.854
218.555
209.243
199.939
190.634
181.335
172.028
162.727
153.425
144.128
134.822
125.522
116.222
106.924
97.6239
88.3262
79.0289
69.7321
60.4374
51.1408
41.8478
32.5479
23.2649
13.9515
4.69997
1070.58
1065.51
1063.61
1062.11
1059.99
1053.39
1041.95
1029.16
1016.72
1004.81
993.341
982.255
971.533
961.148
951.084
941.307
931.809
922.565
913.557
904.754
896.15
887.722
879.459
871.333
863.342
855.469
847.706
840.027
832.442
824.932
817.496
810.105
802.759
795.434
788.115
780.76
773.37
765.918
758.394
750.767
743.046
735.217
727.283
719.22
711.059
702.793
694.439
685.981
677.448
668.839
660.168
651.414
642.611
633.756
624.864
615.916
606.939
597.928
588.894
579.812
570.714
561.592
552.459
543.293
534.12
524.931
515.737
506.509
497.28
488.041
478.802
469.54
460.282
451.016
441.751
432.462
423.178
413.89
404.607
395.308
386.015
376.72
367.43
358.12
348.817
339.513
330.215
320.905
311.603
302.299
293.001
283.686
274.38
265.073
255.772
246.461
237.158
227.854
218.555
209.243
199.939
190.634
181.335
172.028
162.727
153.425
144.128
134.822
125.522
116.222
106.924
97.6239
88.3262
79.0289
69.7321
60.4374
51.1408
41.8478
32.5479
23.2649
13.9515
4.69996
1070.38
1065.52
1063.61
1062.11
1059.99
1053.39
1041.96
1029.16
1016.72
1004.81
993.342
982.255
971.533
961.148
951.084
941.307
931.809
922.564
913.557
904.753
896.15
887.722
879.459
871.332
863.342
855.468
847.706
840.027
832.442
824.932
817.496
810.105
802.759
795.434
788.115
780.76
773.37
765.918
758.394
750.767
743.046
735.216
727.283
719.22
711.059
702.793
694.439
685.981
677.448
668.839
660.168
651.414
642.611
633.756
624.864
615.916
606.939
597.928
588.894
579.812
570.714
561.592
552.459
543.293
534.12
524.931
515.737
506.509
497.28
488.041
478.802
469.54
460.282
451.016
441.751
432.462
423.178
413.89
404.607
395.308
386.015
376.72
367.43
358.12
348.817
339.513
330.215
320.905
311.603
302.299
293.001
283.686
274.38
265.073
255.772
246.461
237.158
227.854
218.555
209.243
199.939
190.634
181.335
172.028
162.727
153.425
144.128
134.822
125.522
116.222
106.924
97.6239
88.3262
79.0289
69.7321
60.4374
51.1408
41.8478
32.5479
23.2649
13.9515
4.69998
1070.36
1065.52
1063.61
1062.11
1060
1053.4
1041.97
1029.16
1016.72
1004.81
993.343
982.256
971.533
961.148
951.084
941.307
931.809
922.564
913.557
904.753
896.149
887.721
879.458
871.332
863.341
855.468
847.705
840.027
832.441
824.932
817.495
810.104
802.759
795.434
788.115
780.76
773.37
765.918
758.394
750.767
743.046
735.216
727.283
719.22
711.059
702.793
694.439
685.981
677.448
668.839
660.168
651.414
642.611
633.756
624.864
615.916
606.939
597.928
588.894
579.812
570.714
561.592
552.459
543.293
534.12
524.931
515.737
506.509
497.28
488.041
478.802
469.54
460.282
451.016
441.751
432.462
423.178
413.89
404.607
395.308
386.015
376.72
367.43
358.12
348.817
339.513
330.215
320.905
311.603
302.299
293.001
283.686
274.38
265.073
255.772
246.461
237.158
227.854
218.555
209.243
199.939
190.634
181.335
172.028
162.727
153.425
144.128
134.822
125.522
116.222
106.924
97.6239
88.3262
79.0289
69.7321
60.4374
51.1408
41.8478
32.5479
23.2649
13.9515
4.69992
1070.33
1065.53
1063.61
1062.12
1060
1053.41
1041.97
1029.17
1016.72
1004.81
993.344
982.256
971.534
961.148
951.084
941.307
931.809
922.563
913.556
904.752
896.149
887.721
879.458
871.331
863.341
855.467
847.705
840.026
832.441
824.931
817.495
810.104
802.759
795.433
788.115
780.759
773.37
765.917
758.394
750.767
743.046
735.216
727.283
719.22
711.059
702.793
694.439
685.981
677.448
668.839
660.168
651.414
642.611
633.756
624.864
615.916
606.939
597.928
588.894
579.812
570.713
561.592
552.459
543.293
534.12
524.931
515.737
506.51
497.28
488.041
478.802
469.54
460.282
451.016
441.751
432.462
423.178
413.89
404.607
395.308
386.015
376.72
367.43
358.12
348.817
339.513
330.215
320.905
311.603
302.299
293.001
283.686
274.38
265.073
255.772
246.461
237.158
227.854
218.555
209.243
199.939
190.634
181.335
172.028
162.727
153.425
144.128
134.822
125.522
116.222
106.924
97.6239
88.3262
79.0289
69.7321
60.4374
51.1408
41.8478
32.5479
23.2649
13.9515
4.69997
1070.29
1065.53
1063.61
1062.12
1060.01
1053.43
1041.99
1029.18
1016.73
1004.81
993.346
982.257
971.534
961.149
951.084
941.306
931.808
922.563
913.556
904.752
896.148
887.72
879.457
871.331
863.34
855.467
847.704
840.026
832.44
824.931
817.495
810.103
802.758
795.433
788.114
780.759
773.37
765.917
758.394
750.767
743.046
735.216
727.282
719.22
711.059
702.793
694.439
685.981
677.448
668.839
660.168
651.414
642.611
633.756
624.864
615.916
606.939
597.928
588.894
579.812
570.713
561.592
552.459
543.293
534.12
524.931
515.737
506.51
497.28
488.041
478.802
469.54
460.282
451.016
441.751
432.462
423.178
413.89
404.607
395.308
386.015
376.72
367.43
358.12
348.817
339.513
330.215
320.905
311.602
302.299
293.001
283.686
274.38
265.073
255.772
246.461
237.158
227.854
218.555
209.243
199.939
190.634
181.335
172.028
162.727
153.425
144.128
134.822
125.522
116.222
106.924
97.6239
88.3261
79.0289
69.7321
60.4374
51.1408
41.8478
32.5479
23.2648
13.9514
4.69987
1070.26
1065.54
1063.62
1062.12
1060.02
1053.44
1042
1029.18
1016.73
1004.82
993.348
982.259
971.535
961.149
951.084
941.306
931.808
922.562
913.555
904.751
896.147
887.719
879.456
871.33
863.34
855.466
847.704
840.025
832.44
824.93
817.494
810.103
802.758
795.433
788.114
780.759
773.369
765.917
758.394
750.767
743.046
735.216
727.282
719.22
711.059
702.793
694.439
685.981
677.448
668.839
660.168
651.414
642.611
633.756
624.864
615.916
606.939
597.928
588.894
579.812
570.713
561.592
552.459
543.293
534.12
524.931
515.737
506.51
497.28
488.041
478.802
469.54
460.282
451.016
441.751
432.462
423.178
413.89
404.607
395.308
386.015
376.72
367.43
358.12
348.817
339.513
330.215
320.905
311.602
302.299
293.001
283.686
274.38
265.073
255.772
246.461
237.158
227.854
218.555
209.243
199.939
190.634
181.335
172.028
162.727
153.425
144.128
134.822
125.522
116.222
106.924
97.6239
88.3261
79.0289
69.7321
60.4374
51.1408
41.8478
32.5479
23.2648
13.9515
4.69997
1070.23
1065.54
1063.62
1062.13
1060.03
1053.46
1042.01
1029.19
1016.74
1004.82
993.351
982.26
971.536
961.149
951.084
941.306
931.807
922.562
913.554
904.75
896.147
887.719
879.456
871.329
863.339
855.465
847.703
840.025
832.439
824.93
817.494
810.103
802.757
795.432
788.114
780.758
773.369
765.917
758.393
750.766
743.045
735.216
727.282
719.22
711.058
702.793
694.439
685.981
677.448
668.839
660.168
651.414
642.611
633.756
624.864
615.916
606.939
597.928
588.894
579.812
570.713
561.592
552.459
543.293
534.12
524.931
515.737
506.51
497.28
488.041
478.802
469.54
460.282
451.016
441.751
432.462
423.178
413.89
404.607
395.308
386.015
376.72
367.43
358.12
348.817
339.513
330.215
320.905
311.602
302.299
293.001
283.686
274.38
265.073
255.772
246.461
237.158
227.854
218.555
209.243
199.939
190.634
181.335
172.028
162.727
153.425
144.128
134.822
125.522
116.222
106.924
97.6239
88.3261
79.0289
69.7321
60.4373
51.1408
41.8477
32.5479
23.2648
13.9514
4.69982
1070.21
1065.55
1063.62
1062.13
1060.04
1053.48
1042.03
1029.21
1016.75
1004.82
993.354
982.262
971.537
961.15
951.084
941.306
931.807
922.561
913.554
904.75
896.146
887.718
879.455
871.328
863.338
855.465
847.702
840.024
832.438
824.929
817.493
810.102
802.757
795.432
788.113
780.758
773.369
765.916
758.393
750.766
743.045
735.216
727.282
719.22
711.058
702.793
694.438
685.98
677.448
668.839
660.168
651.414
642.611
633.756
624.864
615.916
606.939
597.928
588.894
579.812
570.713
561.592
552.459
543.293
534.12
524.931
515.737
506.51
497.28
488.041
478.802
469.54
460.281
451.016
441.751
432.463
423.178
413.89
404.607
395.308
386.015
376.72
367.43
358.12
348.817
339.513
330.215
320.905
311.602
302.299
293.001
283.686
274.38
265.073
255.772
246.461
237.158
227.854
218.555
209.243
199.939
190.634
181.335
172.028
162.727
153.425
144.128
134.822
125.522
116.222
106.924
97.6238
88.3261
79.0289
69.7321
60.4373
51.1408
41.8477
32.5479
23.2648
13.9515
4.69994
1070.19
1065.56
1063.63
1062.14
1060.05
1053.5
1042.05
1029.22
1016.76
1004.83
993.358
982.265
971.539
961.151
951.084
941.306
931.807
922.561
913.553
904.749
896.145
887.717
879.454
871.328
863.337
855.464
847.702
840.023
832.438
824.929
817.492
810.101
802.756
795.431
788.113
780.758
773.368
765.916
758.393
750.766
743.045
735.215
727.282
719.22
711.058
702.792
694.438
685.98
677.448
668.839
660.168
651.413
642.611
633.756
624.864
615.916
606.939
597.928
588.894
579.812
570.713
561.592
552.459
543.293
534.12
524.931
515.737
506.51
497.28
488.041
478.802
469.54
460.281
451.016
441.751
432.463
423.178
413.89
404.607
395.308
386.015
376.72
367.43
358.12
348.817
339.513
330.215
320.905
311.602
302.299
293.001
283.686
274.38
265.073
255.772
246.461
237.158
227.854
218.555
209.243
199.939
190.634
181.335
172.028
162.727
153.425
144.128
134.822
125.522
116.222
106.924
97.6238
88.3261
79.0288
69.732
60.4373
51.1407
41.8477
32.5478
23.2648
13.9514
4.69974
1070.17
1065.56
1063.63
1062.14
1060.06
1053.52
1042.07
1029.24
1016.77
1004.84
993.363
982.269
971.541
961.152
951.085
941.306
931.807
922.561
913.553
904.748
896.144
887.716
879.453
871.327
863.336
855.463
847.701
840.022
832.437
824.928
817.492
810.101
802.756
795.431
788.112
780.757
773.368
765.916
758.392
750.765
743.045
735.215
727.282
719.219
711.058
702.792
694.438
685.98
677.448
668.839
660.168
651.413
642.611
633.756
624.864
615.916
606.939
597.928
588.894
579.812
570.713
561.592
552.459
543.293
534.12
524.931
515.737
506.51
497.28
488.041
478.802
469.54
460.281
451.016
441.751
432.463
423.178
413.89
404.607
395.308
386.015
376.72
367.43
358.12
348.817
339.513
330.215
320.905
311.602
302.299
293.001
283.686
274.38
265.073
255.772
246.461
237.158
227.854
218.555
209.243
199.939
190.634
181.335
172.028
162.727
153.425
144.128
134.822
125.522
116.222
106.924
97.6238
88.3261
79.0288
69.732
60.4373
51.1407
41.8477
32.5478
23.2648
13.9515
4.69995
1070.14
1065.57
1063.63
1062.14
1060.07
1053.53
1042.09
1029.26
1016.78
1004.85
993.37
982.273
971.545
961.155
951.087
941.307
931.807
922.561
913.552
904.748
896.143
887.715
879.452
871.326
863.335
855.462
847.7
840.022
832.436
824.927
817.491
810.1
802.755
795.43
788.112
780.757
773.367
765.915
758.392
750.765
743.044
735.215
727.281
719.219
711.058
702.792
694.438
685.98
677.448
668.839
660.168
651.413
642.611
633.756
624.864
615.916
606.939
597.928
588.894
579.812
570.713
561.592
552.459
543.293
534.12
524.931
515.737
506.51
497.28
488.041
478.802
469.54
460.281
451.016
441.751
432.463
423.178
413.89
404.607
395.308
386.015
376.72
367.43
358.12
348.817
339.513
330.215
320.905
311.602
302.299
293.001
283.686
274.38
265.073
255.772
246.461
237.158
227.854
218.555
209.243
199.939
190.634
181.335
172.028
162.727
153.425
144.128
134.822
125.522
116.221
106.924
97.6238
88.3261
79.0288
69.732
60.4373
51.1407
41.8477
32.5478
23.2648
13.9513
4.69967
1070.12
1065.58
1063.63
1062.14
1060.07
1053.54
1042.12
1029.28
1016.8
1004.86
993.379
982.279
971.549
961.158
951.089
941.308
931.808
922.561
913.552
904.747
896.143
887.715
879.451
871.325
863.334
855.461
847.699
840.021
832.435
824.926
817.49
810.099
802.754
795.429
788.111
780.756
773.367
765.915
758.392
750.765
743.044
735.214
727.281
719.219
711.058
702.792
694.438
685.98
677.447
668.838
660.167
651.413
642.611
633.756
624.864
615.915
606.939
597.928
588.894
579.812
570.713
561.591
552.459
543.293
534.12
524.931
515.737
506.51
497.28
488.041
478.802
469.54
460.281
451.016
441.751
432.463
423.178
413.89
404.607
395.308
386.015
376.72
367.43
358.12
348.817
339.513
330.215
320.905
311.602
302.299
293.001
283.686
274.38
265.073
255.772
246.461
237.158
227.854
218.555
209.243
199.939
190.634
181.335
172.028
162.727
153.425
144.128
134.822
125.522
116.221
106.924
97.6238
88.3261
79.0288
69.732
60.4373
51.1407
41.8477
32.5478
23.2648
13.9514
4.69992
1070.09
1065.6
1063.63
1062.14
1060.06
1053.55
1042.14
1029.31
1016.82
1004.88
993.39
982.288
971.555
961.162
951.092
941.31
931.809
922.561
913.552
904.747
896.142
887.714
879.451
871.324
863.334
855.46
847.698
840.02
832.434
824.925
817.489
810.098
802.753
795.428
788.11
780.755
773.366
765.914
758.391
750.764
743.043
735.214
727.281
719.219
711.057
702.792
694.438
685.98
677.447
668.838
660.167
651.413
642.611
633.756
624.864
615.915
606.939
597.928
588.894
579.812
570.713
561.591
552.459
543.293
534.12
524.931
515.737
506.51
497.28
488.041
478.802
469.54
460.281
451.016
441.751
432.463
423.178
413.89
404.607
395.308
386.015
376.72
367.43
358.12
348.817
339.513
330.215
320.905
311.602
302.299
293.001
283.686
274.38
265.073
255.772
246.461
237.158
227.854
218.555
209.243
199.939
190.634
181.335
172.027
162.727
153.425
144.128
134.822
125.522
116.221
106.924
97.6238
88.326
79.0288
69.732
60.4373
51.1407
41.8477
32.5478
23.2648
13.9513
4.69958
1070.05
1065.61
1063.63
1062.14
1060.05
1053.55
1042.16
1029.34
1016.85
1004.9
993.405
982.299
971.563
961.168
951.096
941.313
931.811
922.563
913.553
904.747
896.142
887.714
879.45
871.323
863.333
855.459
847.697
840.019
832.433
824.924
817.488
810.097
802.752
795.428
788.109
780.754
773.365
765.913
758.39
750.763
743.043
735.213
727.28
719.218
711.057
702.791
694.437
685.979
677.447
668.838
660.167
651.413
642.611
633.756
624.864
615.915
606.938
597.927
588.894
579.812
570.713
561.591
552.459
543.293
534.12
524.931
515.737
506.51
497.28
488.041
478.801
469.54
460.281
451.016
441.751
432.463
423.178
413.89
404.607
395.308
386.015
376.72
367.43
358.12
348.817
339.513
330.215
320.905
311.602
302.299
293.001
283.686
274.38
265.073
255.772
246.461
237.158
227.854
218.555
209.243
199.939
190.634
181.335
172.027
162.727
153.425
144.128
134.822
125.522
116.221
106.924
97.6238
88.326
79.0288
69.732
60.4372
51.1407
41.8477
32.5478
23.2648
13.9513
4.69992
1070.01
1065.63
1063.63
1062.13
1060.02
1053.53
1042.18
1029.37
1016.88
1004.92
993.423
982.313
971.574
961.176
951.102
941.318
931.814
922.565
913.555
904.748
896.143
887.714
879.45
871.323
863.332
855.459
847.696
840.018
832.432
824.923
817.487
810.096
802.751
795.426
788.108
780.753
773.364
765.912
758.389
750.763
743.042
735.213
727.28
719.218
711.057
702.791
694.437
685.979
677.447
668.838
660.167
651.413
642.611
633.756
624.863
615.915
606.938
597.927
588.894
579.812
570.713
561.591
552.458
543.293
534.12
524.931
515.737
506.51
497.28
488.041
478.801
469.54
460.281
451.016
441.751
432.463
423.178
413.89
404.607
395.308
386.015
376.72
367.43
358.12
348.817
339.513
330.215
320.905
311.602
302.299
293.001
283.686
274.38
265.073
255.772
246.461
237.158
227.854
218.555
209.243
199.939
190.634
181.335
172.027
162.727
153.425
144.128
134.822
125.522
116.221
106.924
97.6238
88.326
79.0287
69.7319
60.4372
51.1407
41.8476
32.5477
23.2648
13.9512
4.69949
1069.96
1065.64
1063.63
1062.11
1059.99
1053.5
1042.19
1029.4
1016.91
1004.95
993.447
982.332
971.588
961.187
951.111
941.325
931.82
922.569
913.557
904.75
896.144
887.715
879.45
871.323
863.332
855.458
847.696
840.017
832.432
824.922
817.486
810.095
802.75
795.425
788.107
780.752
773.363
765.911
758.388
750.762
743.041
735.212
727.279
719.217
711.056
702.79
694.437
685.979
677.446
668.837
660.167
651.413
642.61
633.755
624.863
615.915
606.938
597.927
588.894
579.812
570.713
561.591
552.458
543.293
534.12
524.931
515.737
506.51
497.28
488.041
478.801
469.54
460.281
451.016
441.751
432.463
423.178
413.89
404.607
395.308
386.015
376.72
367.429
358.12
348.817
339.513
330.215
320.905
311.602
302.299
293.001
283.686
274.38
265.073
255.772
246.461
237.158
227.854
218.555
209.243
199.939
190.634
181.335
172.027
162.727
153.425
144.128
134.822
125.522
116.221
106.924
97.6238
88.326
79.0287
69.7319
60.4372
51.1406
41.8476
32.5477
23.2648
13.9513
4.69988
1069.91
1065.67
1063.63
1062.1
1059.94
1053.46
1042.2
1029.44
1016.95
1004.99
993.477
982.355
971.607
961.203
951.123
941.334
931.827
922.575
913.562
904.754
896.147
887.716
879.451
871.324
863.332
855.458
847.695
840.017
832.431
824.921
817.485
810.094
802.749
795.424
788.106
780.751
773.362
765.91
758.387
750.761
743.04
735.211
727.278
719.216
711.055
702.79
694.436
685.978
677.446
668.837
660.166
651.412
642.61
633.755
624.863
615.915
606.938
597.927
588.894
579.811
570.713
561.591
552.458
543.293
534.12
524.931
515.736
506.51
497.28
488.041
478.801
469.54
460.281
451.016
441.751
432.463
423.178
413.89
404.607
395.308
386.015
376.72
367.429
358.12
348.817
339.513
330.215
320.905
311.602
302.299
293.001
283.686
274.38
265.073
255.772
246.461
237.158
227.854
218.555
209.243
199.939
190.634
181.335
172.027
162.727
153.425
144.128
134.822
125.522
116.221
106.924
97.6237
88.326
79.0287
69.7319
60.4372
51.1406
41.8476
32.5477
23.2647
13.9512
4.69938
1069.84
1065.69
1063.63
1062.08
1059.88
1053.41
1042.19
1029.47
1016.99
1005.03
993.512
982.385
971.632
961.223
951.139
941.347
931.838
922.583
913.569
904.759
896.151
887.72
879.454
871.326
863.333
855.459
847.696
840.017
832.431
824.921
817.484
810.093
802.748
795.423
788.104
780.75
773.361
765.909
758.386
750.76
743.039
735.21
727.277
719.216
711.055
702.789
694.435
685.978
677.446
668.837
660.166
651.412
642.61
633.755
624.863
615.915
606.938
597.927
588.893
579.811
570.713
561.591
552.458
543.293
534.12
524.931
515.736
506.51
497.28
488.041
478.801
469.54
460.281
451.015
441.751
432.463
423.178
413.89
404.607
395.308
386.015
376.72
367.429
358.12
348.817
339.513
330.215
320.905
311.602
302.299
293
283.686
274.38
265.073
255.772
246.461
237.158
227.854
218.555
209.243
199.939
190.634
181.335
172.027
162.727
153.425
144.127
134.822
125.522
116.221
106.924
97.6237
88.326
79.0287
69.7319
60.4372
51.1406
41.8476
32.5477
23.2647
13.9513
4.69985
1069.77
1065.72
1063.63
1062.06
1059.8
1053.34
1042.18
1029.49
1017.03
1005.07
993.554
982.421
971.663
961.248
951.161
941.365
931.853
922.596
913.579
904.767
896.158
887.725
879.458
871.329
863.336
855.461
847.697
840.018
832.431
824.921
817.484
810.093
802.747
795.422
788.103
780.749
773.359
765.908
758.385
750.758
743.038
735.209
727.276
719.215
711.054
702.789
694.435
685.977
677.445
668.836
660.165
651.412
642.61
633.755
624.863
615.915
606.938
597.927
588.893
579.811
570.713
561.591
552.458
543.293
534.119
524.931
515.736
506.509
497.28
488.041
478.801
469.54
460.281
451.015
441.751
432.463
423.178
413.89
404.606
395.308
386.015
376.72
367.429
358.12
348.817
339.513
330.215
320.905
311.602
302.299
293
283.686
274.38
265.073
255.772
246.461
237.158
227.854
218.555
209.243
199.939
190.634
181.334
172.027
162.727
153.425
144.127
134.822
125.522
116.221
106.924
97.6237
88.326
79.0287
69.7319
60.4372
51.1406
41.8476
32.5477
23.2646
13.9513
4.69927
1069.69
1065.76
1063.63
1062.03
1059.72
1053.25
1042.15
1029.51
1017.07
1005.12
993.6
982.464
971.7
961.281
951.188
941.389
931.872
922.612
913.593
904.779
896.167
887.733
879.465
871.334
863.34
855.464
847.7
840.02
832.433
824.922
817.485
810.093
802.747
795.421
788.102
780.748
773.358
765.906
758.383
750.757
743.037
735.208
727.275
719.214
711.053
702.788
694.434
685.977
677.445
668.836
660.165
651.412
642.609
633.755
624.862
615.915
606.938
597.927
588.893
579.811
570.713
561.591
552.458
543.293
534.119
524.931
515.736
506.509
497.28
488.041
478.801
469.54
460.281
451.015
441.751
432.463
423.179
413.89
404.606
395.308
386.015
376.72
367.429
358.12
348.817
339.513
330.215
320.905
311.602
302.299
293
283.686
274.38
265.073
255.772
246.461
237.158
227.854
218.554
209.243
199.939
190.634
181.334
172.028
162.727
153.425
144.127
134.822
125.522
116.221
106.924
97.6237
88.326
79.0287
69.7318
60.4371
51.1406
41.8476
32.5477
23.2646
13.9514
4.69985
1069.59
1065.8
1063.63
1062
1059.62
1053.15
1042.12
1029.52
1017.1
1005.16
993.649
982.512
971.744
961.32
951.223
941.419
931.899
922.635
913.612
904.796
896.182
887.745
879.475
871.343
863.348
855.47
847.704
840.024
832.436
824.925
817.486
810.094
802.748
795.422
788.102
780.747
773.357
765.905
758.382
750.756
743.035
735.206
727.273
719.212
711.052
702.787
694.433
685.976
677.444
668.835
660.164
651.411
642.609
633.754
624.862
615.914
606.938
597.927
588.893
579.811
570.713
561.591
552.458
543.293
534.12
524.931
515.736
506.51
497.28
488.041
478.801
469.54
460.281
451.015
441.751
432.463
423.179
413.89
404.606
395.308
386.015
376.72
367.429
358.12
348.817
339.513
330.215
320.905
311.602
302.299
293
283.686
274.38
265.073
255.772
246.461
237.158
227.854
218.554
209.243
199.939
190.634
181.334
172.028
162.727
153.425
144.127
134.822
125.522
116.221
106.924
97.6237
88.326
79.0287
69.7318
60.4371
51.1406
41.8475
32.5478
23.2645
13.9515
4.69912
1069.48
1065.84
1063.63
1061.96
1059.51
1053.03
1042.07
1029.52
1017.13
1005.2
993.696
982.563
971.794
961.367
951.265
941.457
931.932
922.664
913.637
904.818
896.201
887.762
879.489
871.356
863.358
855.48
847.712
840.03
832.441
824.929
817.49
810.097
802.75
795.423
788.102
780.747
773.357
765.904
758.381
750.755
743.034
735.205
727.272
719.211
711.051
702.786
694.432
685.975
677.444
668.835
660.164
651.411
642.609
633.754
624.862
615.914
606.938
597.927
588.892
579.811
570.713
561.591
552.458
543.293
534.12
524.931
515.736
506.51
497.281
488.041
478.801
469.541
460.281
451.015
441.75
432.463
423.179
413.89
404.606
395.308
386.015
376.72
367.429
358.12
348.817
339.513
330.215
320.905
311.602
302.299
293
283.686
274.38
265.073
255.772
246.461
237.158
227.854
218.554
209.243
199.939
190.634
181.334
172.028
162.727
153.425
144.127
134.822
125.522
116.221
106.924
97.6238
88.326
79.0287
69.7318
60.4371
51.1406
41.8475
32.5478
23.2644
13.9517
4.69968
1069.37
1065.89
1063.63
1061.92
1059.39
1052.91
1042.02
1029.52
1017.14
1005.23
993.734
982.611
971.846
961.419
951.314
941.502
931.973
922.701
913.67
904.848
896.227
887.785
879.51
871.374
863.374
855.493
847.724
840.041
832.451
824.937
817.497
810.103
802.754
795.427
788.105
780.749
773.358
765.905
758.381
750.754
743.034
735.204
727.271
719.211
711.05
702.785
694.431
685.975
677.443
668.835
660.163
651.411
642.609
633.754
624.862
615.915
606.938
597.927
588.892
579.811
570.713
561.591
552.458
543.293
534.12
524.931
515.735
506.51
497.281
488.041
478.801
469.541
460.282
451.015
441.75
432.463
423.179
413.89
404.606
395.308
386.015
376.72
367.428
358.12
348.817
339.513
330.215
320.905
311.602
302.299
293
283.687
274.38
265.073
255.772
246.461
237.158
227.854
218.554
209.243
199.939
190.634
181.334
172.028
162.727
153.425
144.127
134.822
125.522
116.222
106.924
97.6238
88.326
79.0287
69.7318
60.4371
51.1406
41.8475
32.5478
23.2642
13.9519
4.69885
1069.24
1065.93
1063.62
1061.87
1059.25
1052.77
1041.96
1029.51
1017.16
1005.25
993.76
982.645
971.891
961.47
951.367
941.554
932.021
922.746
913.711
904.885
896.261
887.816
879.537
871.398
863.396
855.513
847.741
840.057
832.464
824.949
817.507
810.112
802.762
795.433
788.11
780.753
773.362
765.908
758.382
750.756
743.034
735.205
727.27
719.211
711.05
702.785
694.431
685.975
677.443
668.835
660.163
651.411
642.609
633.755
624.862
615.915
606.938
597.927
588.892
579.812
570.714
561.592
552.458
543.293
534.12
524.931
515.735
506.51
497.281
488.041
478.801
469.541
460.282
451.016
441.75
432.463
423.179
413.89
404.606
395.308
386.015
376.72
367.428
358.12
348.817
339.513
330.214
320.905
311.603
302.299
292.999
283.687
274.38
265.073
255.772
246.462
237.158
227.854
218.554
209.243
199.939
190.634
181.334
172.028
162.727
153.425
144.127
134.823
125.522
116.222
106.924
97.6238
88.326
79.0288
69.7318
60.4371
51.1406
41.8475
32.5479
23.264
13.9523
4.69932
1069.11
1065.98
1063.62
1061.81
1059.11
1052.63
1041.91
1029.51
1017.17
1005.27
993.781
982.667
971.917
961.506
951.412
941.606
932.075
922.798
913.759
904.93
896.302
887.854
879.572
871.43
863.426
855.54
847.765
840.079
832.485
824.968
817.523
810.127
802.775
795.445
788.119
780.762
773.369
765.913
758.387
750.759
743.037
735.207
727.272
719.212
711.051
702.787
694.432
685.976
677.445
668.836
660.163
651.412
642.61
633.756
624.863
615.916
606.939
597.928
588.892
579.813
570.715
561.593
552.458
543.294
534.121
524.932
515.735
506.511
497.281
488.042
478.801
469.541
460.282
451.016
441.75
432.463
423.179
413.891
404.606
395.308
386.016
376.72
367.428
358.12
348.818
339.513
330.214
320.905
311.603
302.299
292.999
283.687
274.38
265.073
255.772
246.462
237.158
227.854
218.554
209.243
199.939
190.634
181.334
172.028
162.727
153.425
144.127
134.823
125.522
116.222
106.924
97.6239
88.326
79.0288
69.7318
60.4371
51.1406
41.8475
32.548
23.2638
13.9528
4.69833
1068.97
1066.03
1063.62
1061.76
1058.96
1052.48
1041.85
1029.51
1017.19
1005.29
993.803
982.689
971.937
961.526
951.435
941.637
932.116
922.847
913.813
904.984
896.353
887.901
879.615
871.471
863.463
855.575
847.797
840.109
832.512
824.993
817.547
810.149
802.795
795.462
788.135
780.776
773.381
765.924
758.395
750.767
743.044
735.213
727.276
719.217
711.055
702.79
694.435
685.98
677.447
668.838
660.165
651.415
642.613
633.758
624.864
615.918
606.941
597.93
588.894
579.814
570.716
561.594
552.459
543.296
534.122
524.933
515.736
506.511
497.282
488.043
478.801
469.542
460.283
451.016
441.75
432.464
423.18
413.891
404.606
395.309
386.016
376.72
367.428
358.12
348.818
339.514
330.214
320.905
311.603
302.299
292.999
283.687
274.381
265.074
255.772
246.462
237.158
227.854
218.553
209.244
199.939
190.634
181.334
172.028
162.727
153.425
144.127
134.823
125.522
116.222
106.924
97.6239
88.326
79.0289
69.7318
60.437
51.1406
41.8474
32.5481
23.2635
13.9534
4.69822
1068.84
1066.07
1063.62
1061.7
1058.82
1052.34
1041.79
1029.51
1017.21
1005.31
993.826
982.71
971.957
961.544
951.453
941.653
932.133
922.869
913.842
905.023
896.4
887.953
879.669
871.523
863.511
855.619
847.838
840.148
832.549
825.028
817.579
810.179
802.823
795.488
788.158
780.798
773.4
765.942
758.411
750.782
743.057
735.224
727.286
719.226
711.064
702.798
694.442
685.986
677.453
668.844
660.17
651.419
642.617
633.762
624.868
615.922
606.944
597.933
588.896
579.817
570.718
561.596
552.461
543.297
534.123
524.934
515.736
506.513
497.283
488.044
478.802
469.543
460.283
451.017
441.75
432.464
423.18
413.892
404.606
395.309
386.016
376.72
367.427
358.121
348.818
339.514
330.214
320.906
311.603
302.299
292.998
283.687
274.381
265.074
255.771
246.462
237.158
227.854
218.553
209.244
199.939
190.634
181.334
172.028
162.727
153.425
144.126
134.823
125.522
116.222
106.924
97.624
88.3261
79.0289
69.7318
60.437
51.1407
41.8474
32.5483
23.2632
13.9541
4.69722
1068.73
1066.11
1063.62
1061.65
1058.7
1052.22
1041.74
1029.5
1017.22
1005.33
993.846
982.73
971.976
961.561
951.468
941.668
932.147
922.881
913.852
905.034
896.415
887.974
879.697
871.561
863.557
855.67
847.891
840.201
832.6
825.076
817.623
810.22
802.861
795.524
788.191
780.829
773.43
765.969
758.436
750.805
743.078
735.243
727.303
719.241
711.078
702.811
694.452
685.996
677.462
668.852
660.177
651.426
642.623
633.768
624.873
615.927
606.949
597.936
588.898
579.82
570.721
561.599
552.463
543.3
534.126
524.936
515.737
506.514
497.285
488.045
478.803
469.544
460.284
451.017
441.75
432.465
423.181
413.892
404.606
395.31
386.017
376.721
367.427
358.121
348.818
339.514
330.214
320.906
311.603
302.299
292.998
283.687
274.381
265.074
255.771
246.462
237.158
227.854
218.553
209.244
199.939
190.635
181.334
172.028
162.727
153.425
144.126
134.823
125.522
116.222
106.924
97.6241
88.3261
79.029
69.7318
60.437
51.1407
41.8473
32.5484
23.2629
13.9548
4.69608
1068.66
1066.13
1063.62
1061.63
1058.63
1052.14
1041.71
1029.5
1017.23
1005.35
993.861
982.745
971.989
961.574
951.479
941.679
932.157
922.89
913.861
905.043
896.423
887.981
879.704
871.568
863.567
855.684
847.911
840.228
832.633
825.116
817.668
810.269
802.911
795.572
788.237
780.873
773.47
766.006
758.469
750.834
743.104
735.265
727.322
719.259
711.093
702.824
694.464
686.007
677.472
668.86
660.183
651.433
642.629
633.774
624.877
615.931
606.953
597.94
588.901
579.823
570.724
561.602
552.465
543.302
534.127
524.937
515.738
506.516
497.286
488.046
478.804
469.545
460.285
451.018
441.75
432.466
423.181
413.893
404.607
395.31
386.017
376.721
367.427
358.121
348.819
339.514
330.214
320.906
311.603
302.299
292.998
283.688
274.381
265.074
255.771
246.463
237.158
227.854
218.552
209.244
199.94
190.635
181.334
172.028
162.727
153.425
144.126
134.823
125.522
116.222
106.924
97.6241
88.3262
79.029
69.7318
60.437
51.1407
41.8473
32.5485
23.2626
13.9553
4.69527
1068.67
1066.13
1063.62
1061.63
1058.63
1052.14
1041.7
1029.5
1017.23
1005.35
993.86
982.745
971.989
961.574
951.48
941.679
932.157
922.89
913.861
905.043
896.423
887.981
879.704
871.568
863.567
855.684
847.911
840.228
832.634
825.116
817.668
810.269
802.911
795.573
788.237
780.873
773.471
766.006
758.469
750.835
743.104
735.266
727.322
719.259
711.094
702.825
694.464
686.008
677.472
668.86
660.183
651.433
642.63
633.774
624.877
615.931
606.953
597.94