/*--------------------------------*- C++ -*----------------------------------*\
  =========                 |
  \\      /  F ield         | OpenFOAM: The Open Source CFD Toolbox
   \\    /   O peration     | Website:  https://openfoam.org
    \\  /    A nd           | Version:  8
     \\/     M anipulation  |
\*---------------------------------------------------------------------------*/
FoamFile
{
    version     2.0;
    format      ascii;
    class       surfaceScalarField;
    location    "200";
    object      phi;
}
// * * * * * * * * * * * * * * * * * * * * * * * * * * * * * * * * * * * * * //

dimensions      [0 3 -1 0 0 0 0];

internalField   nonuniform List<scalar> 
14458
(
0.00222111
0.00140045
0.00205597
0.000166122
0.00198916
6.86212e-05
0.00195781
3.28789e-05
0.00192741
3.16795e-05
0.00186948
5.84911e-05
0.00180773
6.26017e-05
0.00176515
4.30861e-05
0.00173975
2.56424e-05
0.00172517
1.45662e-05
0.00171726
8.73644e-06
0.0017137
4.08886e-06
0.00171317
8.09321e-07
0.00171481
-1.63107e-06
0.00171803
-2.6755e-06
0.00172243
-4.13816e-06
0.0017277
-5.24946e-06
0.00173354
-6.09005e-06
0.00173977
-5.52641e-06
0.00174624
-6.05546e-06
0.00175285
-6.43707e-06
0.00175945
-6.71619e-06
0.00176598
-5.99063e-06
0.00177237
-6.15226e-06
0.00177859
-6.23313e-06
0.00178454
-6.24621e-06
0.00179017
-4.89321e-06
0.00179553
-4.92376e-06
0.00180062
-4.91866e-06
0.00180537
-4.90555e-06
0.00180978
-3.8601e-06
0.00181388
-3.87836e-06
0.00181769
-3.87213e-06
0.00182112
-3.83449e-06
0.00182418
-2.28476e-06
0.00182697
-2.36107e-06
0.00182953
-2.44263e-06
0.00183182
-2.54207e-06
0.00183385
-1.48809e-06
0.00183568
-1.66494e-06
0.00183736
-1.83205e-06
0.00183879
-1.96682e-06
0.00183998
-4.06921e-07
0.00184104
-6.69977e-07
0.00184204
-9.43481e-07
0.00184292
-1.22291e-06
0.00184367
-2.4966e-07
0.00184435
-5.88218e-07
0.001845
-9.08415e-07
0.00184552
-1.17342e-06
0.00184588
3.56122e-07
0.00184621
-1.74047e-08
0.00184657
-3.97212e-07
0.00184688
-7.65872e-07
0.00184713
1.77898e-07
0.00184736
-2.29709e-07
0.00184763
-6.13166e-07
0.00184781
-9.29379e-07
0.00184787
5.92309e-07
0.00184793
1.77468e-07
0.00184807
-2.4333e-07
0.00184819
-6.42991e-07
0.00184827
2.59844e-07
0.00184835
-1.65102e-07
0.00184849
-5.59619e-07
0.00184855
-8.87767e-07
0.00184851
5.60671e-07
0.0018485
1.34452e-07
0.00184857
-2.92721e-07
0.00184864
-6.91877e-07
0.00184867
1.85172e-07
0.00184872
-2.31574e-07
0.00184881
-6.1067e-07
0.00184883
-9.24915e-07
0.00184876
4.67674e-07
0.00184873
5.08445e-08
0.00184878
-3.55862e-07
0.00184883
-7.34367e-07
0.00184884
8.78075e-08
0.00184889
-3.15288e-07
0.00184897
-6.68957e-07
0.00184899
-9.62066e-07
0.00184892
3.31093e-07
0.0018489
-6.13569e-08
0.00184895
-4.30755e-07
0.00184898
-7.71779e-07
0.00184899
1.28495e-09
0.00184903
-3.76868e-07
0.0018491
-6.95928e-07
0.00184911
-9.64253e-07
0.00184906
2.2215e-07
0.00184904
-1.38076e-07
0.00184909
-4.64344e-07
0.00184912
-7.70996e-07
0.00184912
-9.12856e-08
0.00184916
-4.28226e-07
0.00184922
-7.06796e-07
0.00184923
-9.50251e-07
0.00184919
2.08537e-08
0.00184919
-2.91024e-07
0.00184923
-5.58896e-07
0.00184926
-8.19447e-07
0.00184928
-2.81343e-07
0.00184931
-5.49879e-07
0.00184935
-7.60733e-07
0.00184937
-9.57185e-07
0.00184937
-3.06898e-07
0.00184938
-5.20962e-07
0.00184941
-6.85416e-07
0.00184944
-8.56821e-07
0.00184946
-5.79943e-07
0.00184949
-7.19038e-07
0.00184952
-7.9661e-07
0.00184956
-8.91173e-07
0.00184959
-8.10331e-07
0.00184961
-8.39741e-07
0.00184963
-8.02932e-07
0.00184966
-7.94426e-07
0.0018497
-9.40468e-07
0.00184968
-8.13917e-07
0.00184974
-1.04888e-07
-2.25248e-08
0.0031113
0.00259818
0.00288269
0.000395322
0.00278354
0.000168852
0.00272923
8.80797e-05
0.00264978
0.000111831
0.00252095
0.000187573
0.00240633
0.000177607
0.00233457
0.000115065
0.00229287
6.7451e-05
0.00226852
3.88909e-05
0.00225452
2.31003e-05
0.00224716
1.16736e-05
0.00224435
3.73127e-06
0.00224478
-2.06598e-06
0.00224756
-5.22546e-06
0.00225209
-8.55686e-06
0.00225789
-1.10449e-05
0.00226453
-1.28467e-05
0.00227172
-1.24193e-05
0.00227929
-1.34405e-05
0.00228705
-1.41304e-05
0.00229483
-1.45462e-05
0.0023025
-1.34375e-05
0.00231001
-1.35663e-05
0.00231731
-1.35423e-05
0.00232426
-1.33301e-05
0.00233081
-1.11281e-05
0.00233703
-1.09562e-05
0.00234292
-1.074e-05
0.00234841
-1.04682e-05
0.00235349
-8.7069e-06
0.00235821
-8.50146e-06
0.00236258
-8.28161e-06
0.00236651
-7.94223e-06
0.00236999
-5.42942e-06
0.00237315
-5.34233e-06
0.00237606
-5.30714e-06
0.00237867
-5.25908e-06
0.00238096
-3.55421e-06
0.00238304
-3.66964e-06
0.00238494
-3.80929e-06
0.00238656
-3.81589e-06
0.00238787
-1.38369e-06
0.00238905
-1.67807e-06
0.00239017
-2.04341e-06
0.00239116
-2.36202e-06
0.00239199
-8.65368e-07
0.00239275
-1.31153e-06
0.0023935
-1.76905e-06
0.00239408
-2.03806e-06
0.00239445
2.89867e-07
0.0023948
-2.30113e-07
0.0023952
-8.17955e-07
0.00239556
-1.31816e-06
0.00239583
9.46696e-08
0.00239609
-4.93058e-07
0.00239642
-1.08368e-06
0.00239662
-1.45723e-06
0.00239666
8.37315e-07
0.00239671
2.29776e-07
0.00239687
-4.47403e-07
0.00239702
-1.01366e-06
0.0023971
3.24327e-07
0.00239721
-3.01112e-07
0.00239738
-9.14613e-07
0.00239746
-1.31587e-06
0.00239739
8.5792e-07
0.00239736
2.19335e-07
0.00239745
-4.77764e-07
0.00239755
-1.04994e-06
0.00239758
2.47845e-07
0.00239764
-3.6873e-07
0.00239777
-9.56552e-07
0.0023978
-1.33786e-06
0.0023977
7.46401e-07
0.00239765
1.13547e-07
0.00239772
-5.5063e-07
0.00239779
-1.09156e-06
0.00239781
1.18701e-07
0.00239787
-4.86368e-07
0.00239799
-1.03291e-06
0.00239801
-1.38639e-06
0.00239792
5.43675e-07
0.00239789
-5.58525e-08
0.00239795
-6.54673e-07
0.002398
-1.13208e-06
0.00239801
4.33294e-09
0.00239807
-5.69794e-07
0.00239817
-1.06084e-06
0.00239819
-1.38499e-06
0.00239811
3.78183e-07
0.0023981
-1.75339e-07
0.00239816
-6.99666e-07
0.00239821
-1.12657e-06
0.00239821
-1.277e-07
0.00239826
-6.36929e-07
0.00239835
-1.06244e-06
0.00239836
-1.36425e-06
0.00239832
7.45474e-08
0.00239831
-4.04863e-07
0.00239837
-8.30331e-07
0.00239842
-1.19542e-06
0.00239844
-4.04322e-07
0.00239848
-8.06272e-07
0.00239855
-1.12814e-06
0.00239858
-1.38385e-06
0.00239857
-4.1654e-07
0.00239858
-7.40438e-07
0.00239863
-1.00473e-06
0.00239867
-1.25092e-06
0.00239871
-8.37305e-07
0.00239875
-1.04135e-06
0.00239879
-1.18019e-06
0.00239885
-1.32083e-06
0.00239889
-1.15848e-06
0.00239893
-1.19175e-06
0.00239896
-1.18903e-06
0.002399
-1.18189e-06
0.00239905
-1.36274e-06
0.00239904
-1.13364e-06
0.00239912
-1.03447e-06
-9.48218e-07
0.00403398
0.00369169
0.00373729
0.000692476
0.0035999
0.000307012
0.00351132
0.000177287
0.00336432
0.000259283
0.00315534
0.000396707
0.00298984
0.000343314
0.00289147
0.000213552
0.00283506
0.000123914
0.00280201
7.19458e-05
0.00278266
4.26382e-05
0.00277205
2.23985e-05
0.0027674
8.44248e-06
0.00276697
-1.63419e-06
0.00276961
-7.73854e-06
0.00277451
-1.33964e-05
0.00278105
-1.75793e-05
0.00278869
-2.05375e-05
0.00279705
-2.06217e-05
0.00280589
-2.21902e-05
0.00281499
-2.31946e-05
0.00282413
-2.37069e-05
0.00283315
-2.23409e-05
0.00284199
-2.23502e-05
0.00285057
-2.21195e-05
0.00285873
-2.15523e-05
0.00286642
-1.86525e-05
0.00287371
-1.81544e-05
0.00288061
-1.76035e-05
0.00288705
-1.69376e-05
0.002893
-1.45356e-05
0.00289852
-1.39764e-05
0.00290365
-1.3417e-05
0.00290825
-1.2625e-05
0.0029123
-9.31804e-06
0.00291599
-8.94343e-06
0.00291939
-8.67941e-06
0.00292244
-8.35807e-06
0.00292512
-6.11227e-06
0.00292753
-6.05428e-06
0.00292976
-6.06537e-06
0.00293165
-5.81175e-06
0.00293316
-2.72935e-06
0.00293452
-2.95646e-06
0.00293582
-3.33304e-06
0.00293698
-3.58965e-06
0.00293793
-1.71401e-06
0.00293882
-2.179e-06
0.0029397
-2.69791e-06
0.00294038
-2.85521e-06
0.0029408
2.19707e-08
0.00294119
-5.61427e-07
0.00294166
-1.29478e-06
0.00294208
-1.83757e-06
0.00294239
-1.16787e-07
0.0029427
-8.05816e-07
0.00294308
-1.53825e-06
0.00294333
-1.86051e-06
0.00294335
9.47246e-07
0.00294341
2.22428e-07
0.0029436
-6.57645e-07
0.00294378
-1.30747e-06
0.00294387
3.0446e-07
0.002944
-4.46365e-07
0.00294421
-1.21634e-06
0.0029443
-1.58557e-06
0.00294421
1.0611e-06
0.00294417
2.79462e-07
0.00294429
-6.39769e-07
0.00294441
-1.3056e-06
0.00294444
2.55058e-07
0.00294452
-4.89298e-07
0.00294468
-1.2241e-06
0.00294472
-1.56977e-06
0.00294459
9.58827e-07
0.00294452
1.7324e-07
0.00294461
-7.02428e-07
0.0029447
-1.32914e-06
0.00294472
1.16736e-07
0.0029448
-6.25227e-07
0.00294495
-1.3053e-06
0.00294498
-1.62162e-06
0.00294486
7.1031e-07
0.00294482
-3.83101e-08
0.00294491
-8.20842e-07
0.00294497
-1.35917e-06
0.00294498
-5.19814e-09
0.00294505
-7.17309e-07
0.00294518
-1.32388e-06
0.00294521
-1.61413e-06
0.00294511
5.0243e-07
0.00294509
-1.92213e-07
0.00294517
-8.70117e-07
0.00294523
-1.34715e-06
0.00294524
-1.59399e-07
0.0029453
-7.86914e-07
0.00294541
-1.30771e-06
0.00294543
-1.58997e-06
0.00294537
1.26321e-07
0.00294537
-4.74462e-07
0.00294544
-1.0161e-06
0.0029455
-1.42626e-06
0.00294552
-4.89296e-07
0.00294558
-9.77903e-07
0.00294566
-1.36527e-06
0.0029457
-1.62301e-06
0.00294569
-4.79966e-07
0.00294571
-8.77316e-07
0.00294577
-1.20219e-06
0.00294583
-1.48575e-06
0.00294587
-1.0043e-06
0.00294592
-1.24455e-06
0.00294598
-1.39362e-06
0.00294604
-1.56089e-06
0.0029461
-1.4022e-06
0.00294615
-1.42457e-06
0.00294619
-1.38395e-06
0.00294624
-1.37845e-06
0.00294631
-1.63595e-06
0.00294629
-1.29204e-06
0.0029464
-6.20667e-07
-5.25481e-07
0.00509486
0.00469843
0.00472767
0.00106013
0.00454257
0.000492905
0.004405
0.000315485
0.00417243
0.00049227
0.00387361
0.000695666
0.00365398
0.00056314
0.00352695
0.000340685
0.00345452
0.000196402
0.00341193
0.000114521
0.00338674
6.80158e-05
0.00337261
3.66339e-05
0.00336601
1.51075e-05
0.00336472
-3.4899e-07
0.00336728
-1.01747e-05
0.00337268
-1.87456e-05
0.00338015
-2.50457e-05
0.003389
-2.94528e-05
0.00339876
-3.02229e-05
0.00340913
-3.24774e-05
0.00341985
-3.38784e-05
0.00343063
-3.45191e-05
0.00344129
-3.28774e-05
0.00345173
-3.27481e-05
0.00346189
-3.22744e-05
0.00347154
-3.12834e-05
0.00348064
-2.75826e-05
0.00348927
-2.66955e-05
0.00349745
-2.57477e-05
0.00350509
-2.46116e-05
0.00351215
-2.14725e-05
0.0035187
-2.04895e-05
0.0035248
-1.95249e-05
0.00353026
-1.81875e-05
0.00353508
-1.39651e-05
0.00353947
-1.32411e-05
0.00354352
-1.26995e-05
0.00354714
-1.20441e-05
0.00355033
-9.17662e-06
0.00355321
-8.90263e-06
0.00355586
-8.75356e-06
0.00355811
-8.17804e-06
0.0035599
-4.35208e-06
0.00356152
-4.48896e-06
0.00356307
-4.8716e-06
0.00356445
-5.04419e-06
0.00356558
-2.74067e-06
0.00356664
-3.21794e-06
0.00356769
-3.80205e-06
0.0035685
-3.81368e-06
0.003569
-3.14591e-07
0.00356946
-9.62824e-07
0.00357002
-1.862e-06
0.00357053
-2.44483e-06
0.00357089
-3.81453e-07
0.00357126
-1.18046e-06
0.00357173
-2.07394e-06
0.00357202
-2.32192e-06
0.00357205
1.06446e-06
0.00357211
2.10835e-07
0.00357234
-9.03482e-07
0.00357256
-1.642e-06
0.00357267
2.72466e-07
0.00357282
-6.16808e-07
0.00357308
-1.5642e-06
0.00357319
-1.88196e-06
0.00357308
1.29619e-06
0.00357303
3.54527e-07
0.00357317
-8.21956e-07
0.00357331
-1.58884e-06
0.00357336
2.6191e-07
0.00357345
-6.24152e-07
0.00357365
-1.52546e-06
0.0035737
-1.81568e-06
0.00357354
1.21203e-06
0.00357346
2.53896e-07
0.00357356
-8.6713e-07
0.00357367
-1.58607e-06
0.0035737
1.18848e-07
0.00357379
-7.76939e-07
0.00357397
-1.60827e-06
0.00357401
-1.86829e-06
0.00357388
9.15205e-07
0.00357382
-2.78578e-09
0.00357392
-9.98525e-07
0.003574
-1.60004e-06
0.00357402
-6.47691e-09
0.0035741
-8.7517e-07
0.00357426
-1.6131e-06
0.00357429
-1.85246e-06
0.00357418
6.61493e-07
0.00357415
-1.94473e-07
0.00357425
-1.05074e-06
0.00357432
-1.57937e-06
0.00357433
-1.82614e-07
0.0035744
-9.44457e-07
0.00357454
-1.57327e-06
0.00357457
-1.82372e-06
0.00357449
2.06515e-07
0.00357449
-5.33705e-07
0.00357458
-1.21068e-06
0.00357465
-1.66856e-06
0.00357468
-5.67772e-07
0.00357475
-1.15495e-06
0.00357485
-1.62004e-06
0.0035749
-1.87512e-06
0.00357489
-5.2305e-07
0.00357491
-1.00514e-06
0.00357498
-1.41028e-06
0.00357505
-1.73609e-06
0.00357511
-1.1667e-06
0.00357517
-1.4489e-06
0.00357524
-1.64075e-06
0.00357532
-1.84062e-06
0.0035754
-1.6225e-06
0.00357545
-1.63366e-06
0.0035755
-1.6221e-06
0.00357556
-1.62357e-06
0.00357565
-1.90647e-06
0.00357562
-1.43739e-06
0.00357576
-1.37413e-06
-1.36682e-06
0.00634342
0.00561575
0.00590725
0.00149677
0.00566404
0.000736835
0.00546163
0.000518436
0.00512562
0.000828628
0.00472462
0.00109677
0.00444295
0.000844966
0.00428214
0.000501576
0.00419052
0.000288075
0.00413643
0.000168605
0.00410417
0.000100418
0.00408575
5.51346e-05
0.00407672
2.41881e-05
0.00407431
2.06046e-06
0.0040767
-1.24699e-05
0.00408263
-2.46336e-05
0.00409113
-3.35397e-05
0.00410138
-3.97308e-05
0.00411276
-4.14913e-05
0.00412492
-4.45835e-05
0.00413754
-4.64636e-05
0.00415027
-4.72603e-05
0.00416287
-4.53855e-05
0.00417524
-4.50828e-05
0.00418727
-4.43036e-05
0.00419874
-4.27958e-05
0.00420955
-3.8274e-05
0.00421983
-3.69065e-05
0.00422958
-3.54634e-05
0.00423869
-3.37494e-05
0.00424713
-2.98184e-05
0.00425498
-2.83072e-05
0.00426228
-2.68288e-05
0.00426884
-2.48143e-05
0.00427464
-1.96339e-05
0.00427992
-1.84588e-05
0.00428479
-1.75455e-05
0.00428916
-1.64562e-05
0.004293
-1.29287e-05
0.00429648
-1.23576e-05
0.00429968
-1.19725e-05
0.0043024
-1.09743e-05
0.00430457
-6.40289e-06
0.00430652
-6.38968e-06
0.0043084
-6.73328e-06
0.00431007
-6.76593e-06
0.00431145
-4.03779e-06
0.00431273
-4.48801e-06
0.004314
-5.10401e-06
0.00431498
-4.90228e-06
0.00431559
-8.09811e-07
0.00431616
-1.49245e-06
0.00431684
-2.5431e-06
0.00431746
-3.13405e-06
0.0043179
-7.51938e-07
0.00431835
-1.64057e-06
0.00431891
-2.68031e-06
0.00431927
-2.80044e-06
0.00431932
1.12414e-06
0.00431939
1.59238e-07
0.00431967
-1.18887e-06
0.00431994
-1.9943e-06
0.00432007
1.92584e-07
0.00432026
-8.21132e-07
0.00432057
-1.93595e-06
0.00432071
-2.15392e-06
0.00432058
1.51202e-06
0.00432052
4.20563e-07
0.00432069
-1.01917e-06
0.00432086
-1.86908e-06
0.00432092
2.408e-07
0.00432103
-7.75037e-07
0.00432127
-1.8323e-06
0.00432133
-2.01945e-06
0.00432114
1.46128e-06
0.00432105
3.3659e-07
0.00432117
-1.0355e-06
0.0043213
-1.82873e-06
0.00432133
1.02322e-07
0.00432144
-9.398e-07
0.00432166
-1.91143e-06
0.00432171
-2.06948e-06
0.00432155
1.11825e-06
0.00432149
3.50489e-08
0.00432161
-1.17593e-06
0.0043217
-1.81921e-06
0.00432172
-1.89232e-08
0.00432182
-1.03966e-06
0.00432201
-1.89677e-06
0.00432205
-2.04309e-06
0.00432192
8.18359e-07
0.00432188
-1.96095e-07
0.004322
-1.22922e-06
0.00432208
-1.78824e-06
0.0043221
-2.13043e-07
0.00432219
-1.10324e-06
0.00432235
-1.82749e-06
0.00432238
-2.01068e-06
0.0043223
2.86568e-07
0.00432229
-5.89977e-07
0.0043224
-1.39707e-06
0.00432249
-1.88462e-06
0.00432252
-6.47533e-07
0.0043226
-1.32544e-06
0.00432273
-1.85342e-06
0.00432279
-2.08165e-06
0.00432277
-5.6376e-07
0.0043228
-1.12455e-06
0.00432289
-1.59524e-06
0.00432297
-1.95252e-06
0.00432303
-1.32122e-06
0.00432311
-1.63739e-06
0.00432319
-1.83809e-06
0.00432329
-2.06477e-06
0.00432338
-1.85023e-06
0.00432344
-1.84043e-06
0.00432351
-1.79399e-06
0.00432358
-1.79984e-06
0.00432369
-2.16217e-06
0.00432366
-1.53862e-06
0.00432383
-1.01617e-06
-1.02674e-06
0.00782445
0.00643149
0.00732657
0.00199516
0.00701494
0.00104929
0.00673059
0.000803376
0.00627131
0.00128829
0.00575155
0.00161664
0.00539552
0.00120118
0.00519306
0.000704119
0.00507745
0.000403742
0.00500888
0.000237159
0.00496763
0.00014184
0.00494367
7.91792e-05
0.00493143
3.64902e-05
0.00492743
6.04897e-06
0.0049294
-1.43281e-05
0.00493578
-3.09683e-05
0.00494537
-4.31237e-05
0.00495714
-5.15599e-05
0.00497036
-5.45689e-05
0.00498458
-5.87342e-05
0.0049994
-6.12446e-05
0.00501439
-6.22819e-05
0.00502927
-6.01593e-05
0.00504392
-5.96905e-05
0.0050582
-5.8583e-05
0.00507183
-5.64971e-05
0.00508471
-5.10049e-05
0.00509697
-4.9094e-05
0.00510863
-4.70866e-05
0.00511956
-4.47119e-05
0.0051297
-3.98452e-05
0.00513915
-3.77234e-05
0.00514796
-3.56464e-05
0.0051559
-3.28415e-05
0.00516292
-2.6504e-05
0.00516933
-2.47948e-05
0.00517525
-2.34374e-05
0.00518057
-2.18343e-05
0.00518526
-1.75049e-05
0.0051895
-1.65774e-05
0.00519341
-1.59059e-05
0.00519673
-1.4407e-05
0.00519941
-8.92063e-06
0.00520181
-8.72456e-06
0.00520411
-9.01512e-06
0.00520615
-8.88322e-06
0.00520785
-5.63425e-06
0.00520942
-6.0516e-06
0.00521098
-6.70193e-06
0.00521219
-6.25286e-06
0.00521296
-1.43017e-06
0.00521367
-2.1529e-06
0.00521451
-3.38009e-06
0.00521527
-3.98634e-06
0.00521582
-1.2127e-06
0.00521638
-2.21001e-06
0.00521707
-3.42274e-06
0.00521751
-3.39978e-06
0.00521758
1.18711e-06
0.00521769
8.89694e-08
0.00521803
-1.53507e-06
0.00521835
-2.42743e-06
0.00521853
9.36747e-08
0.00521875
-1.07146e-06
0.00521913
-2.38506e-06
0.00521931
-2.4942e-06
0.00521916
1.77198e-06
0.00521909
5.0064e-07
0.00521929
-1.25071e-06
0.00521951
-2.20762e-06
0.00521958
2.19577e-07
0.00521972
-9.54638e-07
0.00521999
-2.19812e-06
0.00522007
-2.2729e-06
0.00521985
1.76668e-06
0.00521974
4.41876e-07
0.00521989
-1.22848e-06
0.00522004
-2.11861e-06
0.00522009
9.04493e-08
0.00522022
-1.12992e-06
0.00522048
-2.27009e-06
0.00522054
-2.31707e-06
0.00522035
1.37164e-06
0.00522027
8.95691e-08
0.00522041
-1.3783e-06
0.00522053
-2.0799e-06
0.00522055
-2.3982e-08
0.00522067
-1.22965e-06
0.0052209
-2.23141e-06
0.00522094
-2.27695e-06
0.00522079
1.01875e-06
0.00522075
-1.87066e-07
0.00522088
-1.43253e-06
0.00522098
-2.03605e-06
0.005221
-2.38575e-07
0.00522111
-1.28582e-06
0.00522129
-2.12646e-06
0.00522134
-2.23865e-06
0.00522124
3.96857e-07
0.00522124
-6.45319e-07
0.00522136
-1.61033e-06
0.00522147
-2.14082e-06
0.00522151
-7.30682e-07
0.00522161
-1.52124e-06
0.00522175
-2.13042e-06
0.00522182
-2.33427e-06
0.00522181
-5.93797e-07
0.00522184
-1.25238e-06
0.00522194
-1.81345e-06
0.00522204
-2.21422e-06
0.00522212
-1.49069e-06
0.0052222
-1.85193e-06
0.00522231
-2.0965e-06
0.00522243
-2.36066e-06
0.00522253
-2.08114e-06
0.00522261
-2.05178e-06
0.00522269
-2.03696e-06
0.00522277
-2.05382e-06
0.0052229
-2.44627e-06
0.00522286
-1.65602e-06
0.00522307
-1.85797e-06
-2.04913e-06
0.00958252
0.00713058
0.00903937
0.00253885
0.00865124
0.00143824
0.00826715
0.00118803
0.00766255
0.00189325
0.00700269
0.0022766
0.00655542
0.00164861
0.00630039
0.000959223
0.00615407
0.000550121
0.0060668
0.000324432
0.00601382
0.00019495
0.00598254
0.000110538
0.00596591
5.31839e-05
0.00595957
1.23875e-05
0.00596068
-1.53456e-05
0.00596729
-3.75467e-05
0.00597793
-5.37445e-05
0.00599132
-6.49885e-05
0.00600656
-6.96966e-05
0.0060231
-7.5215e-05
0.00604043
-7.85346e-05
0.00605804
-7.99099e-05
0.00607558
-7.76129e-05
0.0060929
-7.69769e-05
0.00610983
-7.5501e-05
0.00612604
-7.27538e-05
0.0061414
-6.62466e-05
0.00615607
-6.36988e-05
0.00617004
-6.10247e-05
0.00618318
-5.78729e-05
0.00619541
-5.19808e-05
0.00620684
-4.91263e-05
0.00621752
-4.63211e-05
0.00622718
-4.2565e-05
0.00623576
-3.49634e-05
0.0062436
-3.25844e-05
0.00625086
-3.06582e-05
0.00625739
-2.84103e-05
0.00626316
-2.31844e-05
0.00626839
-2.17892e-05
0.0062732
-2.07282e-05
0.00627731
-1.85978e-05
0.00628064
-1.213e-05
0.00628363
-1.16667e-05
0.00628648
-1.1843e-05
0.00628902
-1.14771e-05
0.00629114
-7.67074e-06
0.00629309
-8.00538e-06
0.00629502
-8.65013e-06
0.00629654
-7.87549e-06
0.00629753
-2.30235e-06
0.00629843
-3.02715e-06
0.00629947
-4.41709e-06
0.00630042
-5.00837e-06
0.00630112
-1.83948e-06
0.00630182
-2.92657e-06
0.00630267
-4.30198e-06
0.00630323
-4.08155e-06
0.00630335
1.1684e-06
0.0063035
-4.55894e-08
0.00630392
-1.95317e-06
0.00630432
-2.91907e-06
0.00630455
-7.21114e-08
0.00630483
-1.38084e-06
0.00630529
-2.89157e-06
0.00630551
-2.84645e-06
0.00630535
2.01272e-06
0.00630528
5.6781e-07
0.00630552
-1.51252e-06
0.00630578
-2.56931e-06
0.00630587
1.63497e-07
0.00630604
-1.16475e-06
0.00630637
-2.59297e-06
0.00630646
-2.51128e-06
0.00630622
2.07497e-06
0.00630609
5.50862e-07
0.00630626
-1.43533e-06
0.00630644
-2.41539e-06
0.0063065
5.59081e-08
0.00630665
-1.34374e-06
0.00630696
-2.65074e-06
0.00630703
-2.5445e-06
0.00630682
1.62865e-06
0.00630673
1.46368e-07
0.00630689
-1.59133e-06
0.00630703
-2.33917e-06
0.00630705
-4.42848e-08
0.00630719
-1.43862e-06
0.00630746
-2.5814e-06
0.00630752
-2.48725e-06
0.00630734
1.22025e-06
0.00630729
-1.796e-07
0.00630745
-1.64554e-06
0.00630757
-2.28042e-06
0.00630759
-2.7701e-07
0.00630772
-1.48251e-06
0.00630793
-2.43428e-06
0.00630799
-2.44312e-06
0.00630788
5.05429e-07
0.00630787
-7.04387e-07
0.00630802
-1.82991e-06
0.00630814
-2.39179e-06
0.00630819
-8.25376e-07
0.0063083
-1.72609e-06
0.00630848
-2.40679e-06
0.00630856
-2.56442e-06
0.00630855
-6.32193e-07
0.00630859
-1.38526e-06
0.0063087
-2.02608e-06
0.00630882
-2.46271e-06
0.00630891
-1.67046e-06
0.00630901
-2.06998e-06
0.00630914
-2.32509e-06
0.00630928
-2.61888e-06
0.0063094
-2.34793e-06
0.00630949
-2.28421e-06
0.00630959
-2.23298e-06
0.00630969
-2.24892e-06
0.00630984
-2.74881e-06
0.0063098
-1.73143e-06
0.00631004
-1.53043e-06
-1.53038e-06
0.0116642
0.00770133
0.011104
0.00309965
0.0106373
0.00190596
0.0101365
0.0016895
0.00936273
0.00266739
0.00853659
0.00310286
0.00797593
0.00220947
0.0076536
0.00128164
0.00746737
0.000736415
0.00735557
0.000436214
0.00728708
0.000263622
0.00724592
0.000151783
0.00722319
7.59868e-05
0.00721338
2.21782e-05
0.00721293
-1.47728e-05
0.00721938
-4.39631e-05
0.0072309
-6.52504e-05
0.00724592
-8.00736e-05
0.00726333
-8.69552e-05
0.00728242
-9.42396e-05
0.00730257
-9.86473e-05
0.00732317
-0.000100546
0.0073438
-9.81184e-05
0.00736423
-9.73757e-05
0.00738427
-9.55394e-05
0.00740354
-9.20941e-05
0.00742186
-8.44151e-05
0.00743941
-8.1174e-05
0.00745619
-7.77596e-05
0.00747202
-7.37452e-05
0.00748682
-6.66583e-05
0.00750069
-6.29729e-05
0.00751369
-5.93263e-05
0.00752551
-5.44769e-05
0.00753607
-4.53527e-05
0.00754573
-4.21811e-05
0.00755467
-3.95675e-05
0.00756276
-3.65561e-05
0.00756992
-3.02331e-05
0.00757642
-2.82704e-05
0.0075824
-2.67245e-05
0.00758753
-2.38475e-05
0.00759173
-1.61657e-05
0.00759549
-1.53683e-05
0.00759906
-1.5383e-05
0.00760224
-1.47377e-05
0.00760492
-1.0239e-05
0.00760738
-1.04669e-05
0.00760978
-1.10873e-05
0.0076117
-9.93965e-06
0.00761299
-3.43749e-06
0.00761417
-4.15688e-06
0.00761548
-5.7217e-06
0.00761667
-6.30365e-06
0.00761757
-2.64429e-06
0.00761847
-3.83708e-06
0.00761951
-5.39469e-06
0.00762023
-4.96061e-06
0.00762043
1.10772e-06
0.00762066
-2.40746e-07
0.00762117
-2.47058e-06
0.00762168
-3.537e-06
0.00762197
-2.87539e-07
0.00762233
-1.76981e-06
0.00762288
-3.5071e-06
0.00762317
-3.30232e-06
0.00762301
2.28799e-06
0.00762294
6.38122e-07
0.00762323
-1.82067e-06
0.00762354
-3.0117e-06
0.00762366
9.65824e-08
0.00762387
-1.41939e-06
0.00762426
-3.06242e-06
0.00762438
-2.81973e-06
0.0076241
2.44239e-06
0.00762396
6.82336e-07
0.00762416
-1.66952e-06
0.00762437
-2.77303e-06
0.00762444
2.22572e-08
0.00762462
-1.59505e-06
0.00762498
-3.09808e-06
0.00762507
-2.8346e-06
0.00762483
1.94091e-06
0.00762473
2.20904e-07
0.00762491
-1.83093e-06
0.00762507
-2.65113e-06
0.0076251
-5.86848e-08
0.00762527
-1.68111e-06
0.00762558
-2.99167e-06
0.00762565
-2.75502e-06
0.00762545
1.47007e-06
0.00762539
-1.61064e-07
0.00762557
-1.88538e-06
0.00762571
-2.57407e-06
0.00762575
-3.12072e-07
0.00762589
-1.71031e-06
0.00762614
-2.79503e-06
0.00762621
-2.70136e-06
0.00762608
6.47069e-07
0.00762608
-7.6419e-07
0.00762624
-2.07993e-06
0.00762638
-2.69347e-06
0.00762645
-9.26576e-07
0.00762658
-1.96413e-06
0.00762678
-2.73526e-06
0.00762688
-2.85364e-06
0.00762687
-6.60638e-07
0.00762691
-1.53123e-06
0.00762705
-2.27797e-06
0.00762719
-2.76818e-06
0.00762729
-1.86994e-06
0.00762741
-2.3228e-06
0.00762756
-2.62547e-06
0.00762773
-2.9667e-06
0.00762787
-2.62018e-06
0.00762798
-2.52884e-06
0.00762809
-2.51186e-06
0.00762821
-2.54265e-06
0.00762838
-3.08137e-06
0.00762834
-1.84592e-06
0.00762863
-2.50319e-06
-2.81599e-06
0.0141215
0.00813927
0.0135827
0.00363899
0.0130467
0.00244301
0.0124162
0.00232067
0.0114494
0.00363464
0.010426
0.00412632
0.00972371
0.00291198
0.00931446
0.00169096
0.00907582
0.000975127
0.00893147
0.000580563
0.00884217
0.000353081
0.00878757
0.000206461
0.00875629
0.000107331
0.00874136
3.71039e-05
0.00873824
-1.15523e-05
0.00874386
-4.95434e-05
0.00875589
-7.72606e-05
0.00877242
-9.66409e-05
0.00879205
-0.000106457
0.00881389
-0.000116026
0.00883717
-0.000121883
0.00886114
-0.000124541
0.00888528
-0.000122156
0.00890931
-0.000121381
0.008933
-0.000119199
0.00895586
-0.000115011
0.00897771
-0.000106135
0.00899871
-0.000102121
0.00901887
-9.78715e-05
0.00903798
-9.28813e-05
0.00905592
-8.44993e-05
0.00907282
-7.98453e-05
0.00908871
-7.52033e-05
0.00910323
-6.90667e-05
0.00911628
-5.82622e-05
0.00912825
-5.41097e-05
0.00913936
-5.06308e-05
0.00914942
-4.66728e-05
0.00915839
-3.90969e-05
0.00916653
-3.63982e-05
0.00917401
-3.42088e-05
0.00918047
-3.04009e-05
0.00918582
-2.13766e-05
0.0091906
-2.01075e-05
0.0091951
-1.9856e-05
0.00919913
-1.88281e-05
0.00920254
-1.35612e-05
0.00920567
-1.3601e-05
0.0092087
-1.41299e-05
0.00921116
-1.25069e-05
0.00921286
-5.0206e-06
0.0092144
-5.66955e-06
0.00921607
-7.37779e-06
0.00921759
-7.91065e-06
0.00921877
-3.73951e-06
0.00921992
-5.00693e-06
0.00922122
-6.72707e-06
0.00922215
-6.01689e-06
0.00922248
8.9139e-07
0.00922281
-5.59787e-07
0.00922345
-3.11383e-06
0.00922408
-4.26903e-06
0.00922448
-6.17462e-07
0.00922494
-2.26154e-06
0.00922561
-4.22155e-06
0.00922597
-3.80998e-06
0.00922583
2.51879e-06
0.00922578
6.78372e-07
0.00922612
-2.17646e-06
0.0092265
-3.50108e-06
0.00922666
-2.50742e-08
0.00922691
-1.72364e-06
0.00922737
-3.58035e-06
0.00922753
-3.13283e-06
0.00922723
2.80505e-06
0.00922707
8.15465e-07
0.00922729
-1.922e-06
0.00922754
-3.14966e-06
0.00922764
-4.39285e-08
0.00922785
-1.88109e-06
0.00922826
-3.58045e-06
0.00922838
-3.11873e-06
0.00922812
2.25288e-06
0.009228
2.97977e-07
0.0092282
-2.08371e-06
0.00922839
-2.97086e-06
0.00922843
-9.50743e-08
0.00922862
-1.95069e-06
0.00922898
-3.42783e-06
0.00922907
-3.01099e-06
0.00922885
1.71788e-06
0.00922878
-1.44226e-07
0.00922898
-2.13786e-06
0.00922914
-2.87283e-06
0.00922919
-3.66347e-07
0.00922935
-1.95964e-06
0.00922964
-3.17403e-06
0.00922972
-2.94658e-06
0.00922958
7.82849e-07
0.00922958
-8.30044e-07
0.00922976
-2.34099e-06
0.00922993
-2.99893e-06
0.00923001
-1.04699e-06
0.00923016
-2.21955e-06
0.00923039
-3.07258e-06
0.00923051
-3.13038e-06
0.0092305
-7.05192e-07
0.00923055
-1.68838e-06
0.00923071
-2.53117e-06
0.00923087
-3.06891e-06
0.00923099
-2.09015e-06
0.00923113
-2.58879e-06
0.0092313
-2.90481e-06
0.0092315
-3.28316e-06
0.00923167
-2.94496e-06
0.00923179
-2.80662e-06
0.00923192
-2.7523e-06
0.00923207
-2.77794e-06
0.00923226
-3.45114e-06
0.00923222
-1.91224e-06
0.00923256
-2.25629e-06
-2.26454e-06
0.0170149
0.00844993
0.0165393
0.00411523
0.0159613
0.00302222
0.0151982
0.00308461
0.0140174
0.00481593
0.0127622
0.00538164
0.0118829
0.00379148
0.0113609
0.00221305
0.0110529
0.00128322
0.010865
0.000768475
0.0107475
0.000470754
0.0106744
0.000279626
0.0106311
0.000150717
0.0106087
5.95594e-05
0.0106012
-3.98211e-06
0.0106049
-5.31873e-05
0.0106168
-8.912e-05
0.0106345
-0.0001144
0.0106562
-0.000128047
0.0106809
-0.000140648
0.0107076
-0.000148485
0.0107353
-0.000152291
0.0107634
-0.000150136
0.0107915
-0.000149508
0.0108194
-0.000147073
0.0108465
-0.000142179
0.0108725
-0.000131985
0.0108977
-0.000127177
0.0109219
-0.000122041
0.010945
-0.000116013
0.0109668
-0.000106164
0.0109874
-0.000100441
0.0110069
-9.46694e-05
0.0110248
-8.7081e-05
0.011041
-7.42796e-05
0.0110559
-6.89695e-05
0.0110698
-6.44408e-05
0.0110824
-5.93601e-05
0.0110937
-5.02532e-05
0.0111039
-4.66507e-05
0.0111133
-4.36477e-05
0.0111215
-3.87338e-05
0.0111284
-2.80515e-05
0.0111345
-2.61798e-05
0.0111403
-2.55524e-05
0.0111454
-2.40555e-05
0.0111498
-1.78315e-05
0.0111538
-1.76204e-05
0.0111576
-1.79975e-05
0.0111608
-1.58275e-05
0.0111631
-7.12999e-06
0.0111651
-7.66996e-06
0.0111673
-9.50349e-06
0.0111692
-9.98315e-06
0.0111708
-5.17915e-06
0.0111723
-6.52341e-06
0.0111739
-8.4071e-06
0.0111751
-7.40164e-06
0.0111756
5.31926e-07
0.0111761
-1.02584e-06
0.0111769
-3.92784e-06
0.0111777
-5.20335e-06
0.0111783
-1.05998e-06
0.0111789
-2.89283e-06
0.0111797
-5.09606e-06
0.0111802
-4.47743e-06
0.0111801
2.74948e-06
0.01118
6.94142e-07
0.0111804
-2.59886e-06
0.0111809
-4.10227e-06
0.0111811
-1.81281e-07
0.0111814
-2.0974e-06
0.011182
-4.19291e-06
0.0111822
-3.54393e-06
0.0111819
3.21735e-06
0.0111817
9.65563e-07
0.0111819
-2.20342e-06
0.0111822
-3.60136e-06
0.0111824
-1.18189e-07
0.0111826
-2.21708e-06
0.0111831
-4.13978e-06
0.0111832
-3.4847e-06
0.0111829
2.61731e-06
0.0111828
3.92281e-07
0.011183
-2.36106e-06
0.0111832
-3.35315e-06
0.0111833
-1.29845e-07
0.0111835
-2.26163e-06
0.0111839
-3.93109e-06
0.011184
-3.33992e-06
0.0111838
2.01335e-06
0.0111837
-1.16056e-07
0.0111839
-2.41539e-06
0.0111841
-3.22959e-06
0.0111842
-4.20595e-07
0.0111844
-2.24671e-06
0.0111847
-3.61161e-06
0.0111848
-3.25869e-06
0.0111847
9.50905e-07
0.0111847
-8.97774e-07
0.0111849
-2.63281e-06
0.011185
-3.36397e-06
0.0111851
-1.17803e-06
0.0111853
-2.51533e-06
0.0111856
-3.46843e-06
0.0111857
-3.47872e-06
0.0111857
-7.42319e-07
0.0111858
-1.86274e-06
0.011186
-2.82751e-06
0.0111861
-3.43665e-06
0.0111863
-2.33472e-06
0.0111864
-2.89759e-06
0.0111866
-3.26542e-06
0.0111869
-3.70565e-06
0.0111871
-3.27704e-06
0.0111872
-3.10401e-06
0.0111874
-3.0867e-06
0.0111875
-3.13124e-06
0.0111878
-3.85115e-06
0.0111877
-2.03971e-06
0.0111881
-3.40252e-06
-3.9476e-06
0.0204174
0.00864984
0.0200392
0.00449392
0.0194674
0.00359523
0.0185881
0.0039647
0.0171821
0.00622249
0.0156593
0.00690465
0.0145603
0.00489067
0.0138919
0.00288155
0.0134917
0.00168358
0.0132449
0.00101519
0.0130891
0.000626824
0.0129904
0.000378333
0.0129301
0.000211111
0.0128966
9.30951e-05
0.0128823
1.03789e-05
0.0128824
-5.31839e-05
0.012893
-9.96807e-05
0.0129111
-0.000132612
0.0129347
-0.000151448
0.0129621
-0.000168057
0.0129923
-0.00017859
0.013024
-0.000184064
0.0130566
-0.000182533
0.0130894
-0.000182297
0.0131221
-0.000179755
0.0131541
-0.000174217
0.013185
-0.000162767
0.013215
-0.000157144
0.0132441
-0.000151073
0.013272
-0.000143936
0.0132985
-0.000132549
0.0133237
-0.000125628
0.0133476
-0.000118563
0.0133698
-0.000109308
0.01339
-9.4316e-05
0.0134086
-8.75938e-05
0.013426
-8.1762e-05