/*--------------------------------*- C++ -*----------------------------------*\
  =========                 |
  \\      /  F ield         | OpenFOAM: The Open Source CFD Toolbox
   \\    /   O peration     | Website:  https://openfoam.org
    \\  /    A nd           | Version:  8
     \\/     M anipulation  |
\*---------------------------------------------------------------------------*/
FoamFile
{
    version     2.0;
    format      ascii;
    class       volVectorField;
    location    "200";
    object      U;
}
// * * * * * * * * * * * * * * * * * * * * * * * * * * * * * * * * * * * * * //

dimensions      [0 1 -1 0 0 0 0];

internalField   nonuniform List<vector> 
7320
(
(22.6423 -0.848127 0)
(20.2968 -0.0156728 0)
(19.4585 0.000207364 0)
(19.0031 0.00019442 0)
(18.855 9.18575e-05 0)
(18.4139 0.000292327 0)
(17.7325 0.000510556 0)
(17.2205 0.000405801 0)
(16.9097 0.000255775 0)
(16.7294 0.000152878 0)
(16.6277 9.78546e-05 0)
(16.5764 5.37535e-05 0)
(16.5591 2.24593e-05 0)
(16.5661 -9.29714e-07 0)
(16.5906 -1.09997e-05 0)
(16.6284 -2.50859e-05 0)
(16.6758 -3.59248e-05 0)
(16.7302 -4.42476e-05 0)
(16.7887 -3.90412e-05 0)
(16.8505 -4.43058e-05 0)
(16.9139 -4.83004e-05 0)
(16.9782 -5.13876e-05 0)
(17.0417 -4.48006e-05 0)
(17.1043 -4.67529e-05 0)
(17.1654 -4.80581e-05 0)
(17.2246 -4.8814e-05 0)
(17.2803 -3.63382e-05 0)
(17.3335 -3.71566e-05 0)
(17.384 -3.77815e-05 0)
(17.4318 -3.83968e-05 0)
(17.4759 -2.89978e-05 0)
(17.5171 -2.98142e-05 0)
(17.5552 -3.04719e-05 0)
(17.5907 -3.08836e-05 0)
(17.6216 -1.65259e-05 0)
(17.6499 -1.77424e-05 0)
(17.6755 -1.90983e-05 0)
(17.6993 -2.06452e-05 0)
(17.7199 -1.0916e-05 0)
(17.7386 -1.29786e-05 0)
(17.7554 -1.50006e-05 0)
(17.771 -1.6762e-05 0)
(17.7831 -1.93284e-06 0)
(17.7939 -4.60144e-06 0)
(17.8037 -7.4836e-06 0)
(17.8132 -1.04766e-05 0)
(17.8207 -1.23326e-06 0)
(17.8276 -4.59361e-06 0)
(17.8339 -7.86205e-06 0)
(17.8402 -1.06876e-05 0)
(17.8439 4.05387e-06 0)
(17.8472 4.89834e-07 0)
(17.8503 -3.2722e-06 0)
(17.8541 -7.01027e-06 0)
(17.8564 2.07057e-06 0)
(17.8587 -1.85574e-06 0)
(17.861 -5.6484e-06 0)
(17.8639 -8.89813e-06 0)
(17.8645 5.84922e-06 0)
(17.865 1.95048e-06 0)
(17.8658 -2.15222e-06 0)
(17.8676 -6.14841e-06 0)
(17.8682 2.58078e-06 0)
(17.869 -1.48158e-06 0)
(17.8699 -5.35258e-06 0)
(17.8716 -8.68697e-06 0)
(17.8711 5.38173e-06 0)
(17.8708 1.39092e-06 0)
(17.8709 -2.75548e-06 0)
(17.8722 -6.73193e-06 0)
(17.8723 1.75862e-06 0)
(17.8727 -2.21324e-06 0)
(17.8733 -5.92662e-06 0)
(17.8745 -9.11127e-06 0)
(17.8737 4.42421e-06 0)
(17.8731 5.30529e-07 0)
(17.8731 -3.4152e-06 0)
(17.8741 -7.18017e-06 0)
(17.874 7.8233e-07 0)
(17.8744 -3.05176e-06 0)
(17.8749 -6.51788e-06 0)
(17.8759 -9.48293e-06 0)
(17.8752 3.07786e-06 0)
(17.8747 -5.84363e-07 0)
(17.8747 -4.17051e-06 0)
(17.8756 -7.56186e-06 0)
(17.8754 -7.87556e-08 0)
(17.8757 -3.6637e-06 0)
(17.8762 -6.79081e-06 0)
(17.8771 -9.4945e-06 0)
(17.8764 2.01229e-06 0)
(17.8761 -1.34391e-06 0)
(17.8762 -4.5113e-06 0)
(17.8769 -7.54957e-06 0)
(17.8768 -9.86298e-07 0)
(17.877 -4.17427e-06 0)
(17.8774 -6.89721e-06 0)
(17.8782 -9.32924e-06 0)
(17.8776 5.88478e-08 0)
(17.8775 -2.84574e-06 0)
(17.8776 -5.44343e-06 0)
(17.8783 -8.00598e-06 0)
(17.8783 -2.83382e-06 0)
(17.8785 -5.36658e-06 0)
(17.8788 -7.42012e-06 0)
(17.8794 -9.35514e-06 0)
(17.8792 -3.10418e-06 0)
(17.8793 -5.09296e-06 0)
(17.8794 -6.6857e-06 0)
(17.8799 -8.34738e-06 0)
(17.88 -5.70833e-06 0)
(17.8803 -7.01052e-06 0)
(17.8805 -7.77641e-06 0)
(17.8809 -8.67456e-06 0)
(17.8812 -7.91441e-06 0)
(17.8815 -8.18022e-06 0)
(17.8817 -7.85649e-06 0)
(17.882 -7.73822e-06 0)
(17.8822 -9.13769e-06 0)
(17.8827 -7.92901e-06 0)
(17.8819 -1.96867e-06 0)
(17.8839 -1.11306e-06 0)
(26.6031 0.167157 0)
(23.9463 0.00745557 0)
(22.8932 0.0013382 0)
(22.3344 0.000572502 0)
(22.0121 0.000559011 0)
(21.0425 0.00112607 0)
(19.918 0.00127473 0)
(19.1804 0.000875198 0)
(18.7522 0.000521485 0)
(18.5028 0.00030155 0)
(18.3566 0.000180181 0)
(18.2752 9.08749e-05 0)
(18.2371 2.86105e-05 0)
(18.2296 -1.7025e-05 0)
(18.244 -4.09722e-05 0)
(18.2748 -6.7465e-05 0)
(18.3176 -8.73855e-05 0)
(18.369 -0.000102035 0)
(18.4255 -9.75136e-05 0)
(18.4859 -0.000106081 0)
(18.5484 -0.000112048 0)
(18.612 -0.000115939 0)
(18.6748 -0.000106527 0)
(18.7367 -0.000108143 0)
(18.7969 -0.000108504 0)
(18.8552 -0.000107467 0)
(18.9097 -8.87986e-05 0)
(18.9617 -8.79633e-05 0)
(19.0108 -8.67154e-05 0)
(19.0574 -8.50987e-05 0)
(19.1001 -7.02306e-05 0)
(19.1399 -6.9059e-05 0)
(19.1767 -6.76902e-05 0)
(19.211 -6.55013e-05 0)
(19.2405 -4.39329e-05 0)
(19.2675 -4.36108e-05 0)
(19.2919 -4.36373e-05 0)
(19.3148 -4.369e-05 0)
(19.3343 -2.89813e-05 0)
(19.3521 -3.02842e-05 0)
(19.368 -3.1707e-05 0)
(19.383 -3.22584e-05 0)
(19.3943 -1.10708e-05 0)
(19.4043 -1.37889e-05 0)
(19.4134 -1.70097e-05 0)
(19.4225 -2.00307e-05 0)
(19.4295 -6.92594e-06 0)
(19.436 -1.09173e-05 0)
(19.4419 -1.49232e-05 0)
(19.4481 -1.76449e-05 0)
(19.4514 2.75482e-06 0)
(19.4542 -1.82284e-06 0)
(19.457 -6.86675e-06 0)
(19.4608 -1.14028e-05 0)
(19.4629 1.03724e-06 0)
(19.465 -4.13388e-06 0)
(19.4672 -9.24119e-06 0)
(19.4702 -1.28452e-05 0)
(19.4706 7.29693e-06 0)
(19.4708 1.99313e-06 0)
(19.4714 -3.78392e-06 0)
(19.4734 -8.87546e-06 0)
(19.4739 2.92508e-06 0)
(19.4747 -2.56783e-06 0)
(19.4756 -7.88033e-06 0)
(19.4775 -1.17167e-05 0)
(19.4769 7.38566e-06 0)
(19.4763 1.83623e-06 0)
(19.4764 -4.09866e-06 0)
(19.4779 -9.23499e-06 0)
(19.478 2.20442e-06 0)
(19.4784 -3.20784e-06 0)
(19.479 -8.31093e-06 0)
(19.4805 -1.19728e-05 0)
(19.4795 6.35068e-06 0)
(19.4788 8.7403e-07 0)
(19.4787 -4.78437e-06 0)
(19.4799 -9.6467e-06 0)
(19.4798 1.03196e-06 0)
(19.4802 -4.251e-06 0)
(19.4808 -9.00439e-06 0)
(19.4821 -1.24047e-05 0)
(19.4812 4.5615e-06 0)
(19.4807 -6.13018e-07 0)
(19.4807 -5.72671e-06 0)
(19.4817 -1.00461e-05 0)
(19.4815 -2.56546e-08 0)
(19.4818 -5.00954e-06 0)
(19.4824 -9.28428e-06 0)
(19.4835 -1.23907e-05 0)
(19.4827 3.10494e-06 0)
(19.4823 -1.65657e-06 0)
(19.4824 -6.14272e-06 0)
(19.4833 -1.00007e-05 0)
(19.4832 -1.21216e-06 0)
(19.4835 -5.62952e-06 0)
(19.4839 -9.33403e-06 0)
(19.4848 -1.21801e-05 0)
(19.4842 4.39465e-07 0)
(19.4841 -3.67561e-06 0)
(19.4842 -7.32181e-06 0)
(19.485 -1.05945e-05 0)
(19.485 -3.66276e-06 0)
(19.4853 -7.14745e-06 0)
(19.4857 -9.93923e-06 0)
(19.4864 -1.22836e-05 0)
(19.4862 -3.85536e-06 0)
(19.4862 -6.63741e-06 0)
(19.4864 -8.88467e-06 0)
(19.487 -1.10493e-05 0)
(19.4872 -7.47295e-06 0)
(19.4875 -9.23754e-06 0)
(19.4878 -1.03814e-05 0)
(19.4883 -1.15855e-05 0)
(19.4887 -1.03337e-05 0)
(19.489 -1.06306e-05 0)
(19.4892 -1.04612e-05 0)
(19.4896 -1.03436e-05 0)
(19.4898 -1.20493e-05 0)
(19.4905 -1.01292e-05 0)
(19.4895 -7.00224e-06 0)
(19.4919 -6.08761e-06 0)
(28.949 0.0985088 0)
(26.1273 0.0064322 0)
(24.902 0.0023522 0)
(24.2508 0.00122275 0)
(23.6935 0.00161619 0)
(22.2428 0.00276858 0)
(20.8395 0.00260891 0)
(19.9833 0.00166854 0)
(19.4965 0.000974824 0)
(19.2132 0.000565514 0)
(19.0452 0.0003359 0)
(18.9489 0.000175113 0)
(18.9004 6.40217e-05 0)
(18.8855 -1.64469e-05 0)
(18.8945 -6.35827e-05 0)
(18.9215 -0.000109127 0)
(18.9614 -0.000142951 0)
(19.0108 -0.00016713 0)
(19.0657 -0.000165672 0)
(19.1249 -0.00017886 0)
(19.1864 -0.000187537 0)
(19.2492 -0.000192361 0)
(19.3112 -0.00018008 0)
(19.3724 -0.000180894 0)
(19.4318 -0.000179731 0)
(19.4895 -0.000175948 0)
(19.5433 -0.000150398 0)
(19.5944 -0.000147099 0)
(19.6428 -0.00014331 0)
(19.6887 -0.000138672 0)
(19.7307 -0.000117774 0)
(19.77 -0.000113957 0)
(19.8061 -0.000110056 0)
(19.84 -0.000104412 0)
(19.8689 -7.51109e-05 0)
(19.8953 -7.27505e-05 0)
(19.9193 -7.12083e-05 0)
(19.9418 -6.93381e-05 0)
(19.9609 -4.94033e-05 0)
(19.9783 -4.96407e-05 0)
(19.9939 -5.03483e-05 0)
(20.0087 -4.91062e-05 0)
(20.0197 -2.12801e-05 0)
(20.0294 -2.38328e-05 0)
(20.0382 -2.75061e-05 0)
(20.0472 -3.03864e-05 0)
(20.054 -1.33587e-05 0)
(20.0603 -1.78986e-05 0)
(20.0661 -2.27739e-05 0)
(20.0723 -2.49457e-05 0)
(20.0753 1.3095e-06 0)
(20.078 -4.19367e-06 0)
(20.0807 -1.08032e-05 0)
(20.0845 -1.6067e-05 0)
(20.0865 -2.59205e-07 0)
(20.0886 -6.66255e-06 0)
(20.0907 -1.33029e-05 0)
(20.0938 -1.68551e-05 0)
(20.0941 8.87124e-06 0)
(20.0942 2.19965e-06 0)
(20.0948 -5.61179e-06 0)
(20.0968 -1.17643e-05 0)
(20.0973 3.10823e-06 0)
(20.098 -3.80982e-06 0)
(20.099 -1.07679e-05 0)
(20.101 -1.47052e-05 0)
(20.1003 9.5962e-06 0)
(20.0997 2.47677e-06 0)
(20.0997 -5.63829e-06 0)
(20.1013 -1.19072e-05 0)
(20.1014 2.49507e-06 0)
(20.1018 -4.34839e-06 0)
(20.1024 -1.10051e-05 0)
(20.104 -1.47236e-05 0)
(20.1029 8.52217e-06 0)
(20.1022 1.41425e-06 0)
(20.1021 -6.3186e-06 0)
(20.1034 -1.22307e-05 0)
(20.1033 1.14448e-06 0)
(20.1037 -5.623e-06 0)
(20.1043 -1.17974e-05 0)
(20.1057 -1.52203e-05 0)
(20.1047 6.2374e-06 0)
(20.1041 -5.125e-07 0)
(20.1042 -7.44776e-06 0)
(20.1053 -1.25882e-05 0)
(20.1051 -6.20263e-08 0)
(20.1054 -6.51207e-06 0)
(20.106 -1.20331e-05 0)
(20.1072 -1.51618e-05 0)
(20.1063 4.34171e-06 0)
(20.1059 -1.89812e-06 0)
(20.106 -7.92844e-06 0)
(20.107 -1.24903e-05 0)
(20.1068 -1.51544e-06 0)
(20.1071 -7.20406e-06 0)
(20.1077 -1.19542e-05 0)
(20.1086 -1.49076e-05 0)
(20.108 9.08996e-07 0)
(20.1078 -4.47908e-06 0)
(20.108 -9.32008e-06 0)
(20.1088 -1.32116e-05 0)
(20.1088 -4.57128e-06 0)
(20.1091 -9.01179e-06 0)
(20.1095 -1.25566e-05 0)
(20.1103 -1.51256e-05 0)
(20.1101 -4.60421e-06 0)
(20.1101 -8.18542e-06 0)
(20.1103 -1.11158e-05 0)
(20.1109 -1.3749e-05 0)
(20.1111 -9.31484e-06 0)
(20.1115 -1.151e-05 0)
(20.1118 -1.29208e-05 0)
(20.1123 -1.44318e-05 0)
(20.1127 -1.29267e-05 0)
(20.1131 -1.31766e-05 0)
(20.1133 -1.2906e-05 0)
(20.1137 -1.27979e-05 0)
(20.114 -1.50629e-05 0)
(20.1146 -1.21486e-05 0)
(20.1137 -7.83134e-06 0)
(20.1162 -6.83757e-06 0)
(30.6442 0.0459979 0)
(27.8097 0.00838014 0)
(26.4355 0.00394034 0)
(25.6853 0.00232504 0)
(24.8578 0.00348005 0)
(23.0162 0.00530316 0)
(21.4287 0.00450968 0)
(20.4964 0.00277251 0)
(19.9713 0.00160397 0)
(19.6653 0.00093403 0)
(19.4826 0.000554529 0)
(19.3763 0.00029637 0)
(19.3205 0.000118997 0)
(19.3005 -8.59799e-06 0)
(19.3057 -8.82308e-05 0)
(19.3298 -0.000159327 0)
(19.3677 -0.000211732 0)
(19.4156 -0.000248585 0)
(19.4693 -0.000252892 0)
(19.5275 -0.000272058 0)
(19.5883 -0.000284164 0)
(19.6505 -0.00029003 0)
(19.712 -0.000275063 0)
(19.7727 -0.00027457 0)
(19.8319 -0.000271168 0)
(19.8892 -0.000263525 0)
(19.9427 -0.00023056 0)
(19.9936 -0.000223739 0)
(20.0417 -0.000216357 0)
(20.0874 -0.000207472 0)
(20.1293 -0.000179791 0)
(20.1684 -0.000172175 0)
(20.2045 -0.000164646 0)
(20.2384 -0.000154123 0)
(20.2673 -0.000116418 0)
(20.2937 -0.000110976 0)
(20.3176 -0.000106996 0)
(20.3401 -0.000102183 0)
(20.3592 -7.65514e-05 0)
(20.3766 -7.4924e-05 0)
(20.3923 -7.42638e-05 0)
(20.4071 -7.01963e-05 0)
(20.418 -3.55164e-05 0)
(20.4277 -3.73431e-05 0)
(20.4365 -4.11473e-05 0)
(20.4455 -4.33403e-05 0)
(20.4523 -2.23481e-05 0)
(20.4586 -2.7076e-05 0)
(20.4644 -3.2609e-05 0)
(20.4707 -3.35342e-05 0)
(20.4737 -1.50084e-06 0)
(20.4764 -7.66736e-06 0)
(20.479 -1.58382e-05 0)
(20.4828 -2.15231e-05 0)
(20.4848 -2.50392e-06 0)
(20.4869 -9.9684e-06 0)
(20.4891 -1.81214e-05 0)
(20.4923 -2.10636e-05 0)
(20.4925 1.00619e-05 0)
(20.4926 2.15626e-06 0)
(20.4932 -7.82683e-06 0)
(20.4952 -1.4833e-05 0)
(20.4957 2.89343e-06 0)
(20.4965 -5.33781e-06 0)
(20.4974 -1.39547e-05 0)
(20.4995 -1.7484e-05 0)
(20.4987 1.17885e-05 0)
(20.4981 3.15899e-06 0)
(20.4982 -7.3309e-06 0)
(20.4998 -1.45599e-05 0)
(20.4998 2.58273e-06 0)
(20.5003 -5.59888e-06 0)
(20.5009 -1.38111e-05 0)
(20.5025 -1.70819e-05 0)
(20.5015 1.08343e-05 0)
(20.5007 2.10927e-06 0)
(20.5006 -7.88477e-06 0)
(20.5019 -1.46729e-05 0)
(20.5018 1.1542e-06 0)
(20.5022 -7.05402e-06 0)
(20.5029 -1.464e-05 0)
(20.5043 -1.76023e-05 0)
(20.5033 8.07936e-06 0)
(20.5027 -2.51811e-07 0)
(20.5027 -9.15115e-06 0)
(20.5039 -1.49013e-05 0)
(20.5037 -1.10757e-07 0)
(20.504 -8.01915e-06 0)
(20.5046 -1.47633e-05 0)
(20.5058 -1.74733e-05 0)
(20.505 5.74475e-06 0)
(20.5045 -1.99478e-06 0)
(20.5047 -9.66715e-06 0)
(20.5056 -1.47279e-05 0)
(20.5055 -1.78416e-06 0)
(20.5058 -8.72241e-06 0)
(20.5063 -1.44794e-05 0)
(20.5073 -1.71782e-05 0)
(20.5067 1.56224e-06 0)
(20.5065 -5.11703e-06 0)
(20.5067 -1.12018e-05 0)
(20.5075 -1.55479e-05 0)
(20.5075 -5.37688e-06 0)
(20.5078 -1.07322e-05 0)
(20.5083 -1.49873e-05 0)
(20.509 -1.75514e-05 0)
(20.5088 -5.12772e-06 0)
(20.5089 -9.49043e-06 0)
(20.5091 -1.31211e-05 0)
(20.5097 -1.61439e-05 0)
(20.5099 -1.09379e-05 0)
(20.5103 -1.35173e-05 0)
(20.5106 -1.52032e-05 0)
(20.5111 -1.70044e-05 0)
(20.5115 -1.52027e-05 0)
(20.5119 -1.53417e-05 0)
(20.5121 -1.50577e-05 0)
(20.5125 -1.49907e-05 0)
(20.5128 -1.7736e-05 0)
(20.5135 -1.3639e-05 0)
(20.5125 -1.00427e-05 0)
(20.5151 -9.46735e-06 0)
(31.9335 0.0470437 0)
(29.2247 0.0125953 0)
(27.733 0.00609512 0)
(26.879 0.00400501 0)
(25.7821 0.00630583 0)
(23.6384 0.00880836 0)
(21.9155 0.00700961 0)
(20.9227 0.00420435 0)
(20.3651 0.00241935 0)
(20.0393 0.00141389 0)
(19.8436 0.000841074 0)
(19.7282 0.000458397 0)
(19.666 0.000196514 0)
(19.6411 8.97113e-06 0)
(19.6428 -0.000112622 0)
(19.6642 -0.000216079 0)
(19.6999 -0.000291973 0)
(19.7462 -0.000344878 0)
(19.7987 -0.000357539 0)
(19.8559 -0.000384245 0)
(19.916 -0.000400662 0)
(19.9776 -0.000407883 0)
(20.0387 -0.000390356 0)
(20.0991 -0.000388247 0)
(20.1579 -0.000382052 0)
(20.2151 -0.000369649 0)
(20.2685 -0.000328584 0)
(20.3194 -0.000317375 0)
(20.3675 -0.000305496 0)
(20.4134 -0.000291329 0)
(20.4554 -0.000256013 0)
(20.4947 -0.00024361 0)
(20.5311 -0.000231468 0)
(20.5652 -0.000214807 0)
(20.5944 -0.00016778 0)
(20.621 -0.000158333 0)
(20.6453 -0.000151107 0)
(20.668 -0.000142446 0)
(20.6874 -0.000110447 0)
(20.7051 -0.000106255 0)
(20.7209 -0.000103619 0)
(20.736 -9.5818e-05 0)
(20.7471 -5.37533e-05 0)
(20.757 -5.43833e-05 0)
(20.7659 -5.80288e-05 0)
(20.7751 -5.90938e-05 0)
(20.782 -3.38788e-05 0)
(20.7884 -3.8531e-05 0)
(20.7943 -4.45505e-05 0)
(20.8006 -4.36632e-05 0)
(20.8038 -5.60825e-06 0)
(20.8065 -1.22706e-05 0)
(20.8093 -2.20294e-05 0)
(20.8131 -2.79406e-05 0)
(20.8152 -5.64885e-06 0)
(20.8173 -1.41047e-05 0)
(20.8196 -2.37909e-05 0)
(20.8228 -2.57005e-05 0)
(20.823 1.0959e-05 0)
(20.8232 1.85642e-06 0)
(20.8238 -1.04657e-05 0)
(20.8258 -1.82319e-05 0)
(20.8263 2.33947e-06 0)
(20.8271 -7.19683e-06 0)
(20.8281 -1.75319e-05 0)
(20.8302 -2.02808e-05 0)
(20.8295 1.40413e-05 0)
(20.8289 3.86751e-06 0)
(20.8289 -9.2222e-06 0)
(20.8305 -1.73521e-05 0)
(20.8306 2.50902e-06 0)
(20.8311 -7.01954e-06 0)
(20.8317 -1.68364e-05 0)
(20.8333 -1.92899e-05 0)
(20.8323 1.33407e-05 0)
(20.8315 2.92519e-06 0)
(20.8314 -9.54686e-06 0)
(20.8327 -1.71475e-05 0)
(20.8326 1.07799e-06 0)
(20.833 -8.62066e-06 0)
(20.8337 -1.76555e-05 0)
(20.8351 -1.98019e-05 0)
(20.8342 1.01125e-05 0)
(20.8336 1.14139e-07 0)
(20.8336 -1.09219e-05 0)
(20.8347 -1.71761e-05 0)
(20.8345 -1.82612e-07 0)
(20.8348 -9.62415e-06 0)
(20.8355 -1.76112e-05 0)
(20.8367 -1.95779e-05 0)
(20.8359 7.31728e-06 0)
(20.8354 -2.01468e-06 0)
(20.8355 -1.14562e-05 0)
(20.8365 -1.69067e-05 0)
(20.8364 -2.05396e-06 0)
(20.8367 -1.02947e-05 0)
(20.8372 -1.7059e-05 0)
(20.8382 -1.92408e-05 0)
(20.8376 2.35984e-06 0)
(20.8374 -5.69009e-06 0)
(20.8376 -1.30942e-05 0)
(20.8384 -1.78088e-05 0)
(20.8384 -6.1634e-06 0)
(20.8387 -1.24536e-05 0)
(20.8392 -1.74021e-05 0)
(20.8399 -1.98012e-05 0)
(20.8397 -5.54037e-06 0)
(20.8398 -1.07113e-05 0)
(20.84 -1.50626e-05 0)
(20.8406 -1.84409e-05 0)
(20.8408 -1.25044e-05 0)
(20.8412 -1.54542e-05 0)
(20.8415 -1.73877e-05 0)
(20.842 -1.9479e-05 0)
(20.8425 -1.7418e-05 0)
(20.8429 -1.73907e-05 0)
(20.8431 -1.70644e-05 0)
(20.8435 -1.70538e-05 0)
(20.8438 -2.03272e-05 0)
(20.8445 -1.48327e-05 0)
(20.8435 -1.17916e-05 0)
(20.8462 -1.1839e-05 0)
(32.926 0.0604355 0)
(30.4658 0.0175633 0)
(28.8979 0.00888443 0)
(27.9399 0.00642438 0)
(26.5948 0.0102744 0)
(24.2178 0.0134164 0)
(22.3831 0.0101923 0)
(21.3333 0.00601475 0)
(20.7429 0.00345161 0)
(20.3966 0.00202419 0)
(20.1873 0.00120816 0)
(20.0623 0.000669615 0)
(19.9932 0.000302247 0)
(19.9631 4.00069e-05 0)
(19.9608 -0.000134215 0)
(19.9791 -0.000277895 0)
(20.0124 -0.000382969 0)
(20.0568 -0.00045593 0)
(20.1078 -0.000479748 0)
(20.1639 -0.000515942 0)
(20.223 -0.000537847 0)
(20.284 -0.000546987 0)
(20.3445 -0.000527024 0)
(20.4045 -0.000523163 0)
(20.4632 -0.00051375 0)
(20.5202 -0.000495812 0)
(20.5736 -0.000445772 0)
(20.6246 -0.000429401 0)
(20.673 -0.000412185 0)
(20.7191 -0.000391781 0)
(20.7615 -0.000347814 0)
(20.8012 -0.000329688 0)
(20.838 -0.000311964 0)
(20.8726 -0.000287935 0)
(20.9024 -0.000230346 0)
(20.9296 -0.000215966 0)
(20.9543 -0.000204662 0)
(20.9775 -0.000191253 0)
(20.9974 -0.000151964 0)
(21.0155 -0.000144506 0)
(21.0318 -0.000139264 0)
(21.0472 -0.000126835 0)
(21.0587 -7.64969e-05 0)
(21.0689 -7.54688e-05 0)
(21.0781 -7.86643e-05 0)
(21.0875 -7.82017e-05 0)
(21.0947 -4.82797e-05 0)
(21.1013 -5.26346e-05 0)
(21.1074 -5.89917e-05 0)
(21.1139 -5.57862e-05 0)
(21.1172 -1.11377e-05 0)
(21.1201 -1.81769e-05 0)
(21.123 -2.95846e-05 0)
(21.1269 -3.56041e-05 0)
(21.1291 -9.77706e-06 0)
(21.1314 -1.92242e-05 0)
(21.1337 -3.05111e-05 0)
(21.1369 -3.10483e-05 0)
(21.1373 1.15931e-05 0)
(21.1375 1.26514e-06 0)
(21.1382 -1.36132e-05 0)
(21.1402 -2.21378e-05 0)
(21.1408 1.45385e-06 0)
(21.1416 -9.45968e-06 0)
(21.1426 -2.16278e-05 0)
(21.1447 -2.33146e-05 0)
(21.1441 1.64289e-05 0)
(21.1435 4.60451e-06 0)
(21.1435 -1.1366e-05 0)
(21.1451 -2.04339e-05 0)
(21.1453 2.29805e-06 0)
(21.1457 -8.66814e-06 0)
(21.1464 -2.01961e-05 0)
(21.148 -2.15525e-05 0)
(21.147 1.6118e-05 0)
(21.1462 3.86715e-06 0)
(21.1461 -1.13564e-05 0)
(21.1474 -1.97998e-05 0)
(21.1474 9.33951e-07 0)
(21.1477 -1.03845e-05 0)
(21.1484 -2.09622e-05 0)
(21.1498 -2.20232e-05 0)
(21.1489 1.2396e-05 0)
(21.1483 5.76219e-07 0)
(21.1483 -1.28232e-05 0)
(21.1494 -1.95633e-05 0)
(21.1492 -2.72353e-07 0)
(21.1496 -1.13956e-05 0)
(21.1502 -2.06992e-05 0)
(21.1514 -2.1677e-05 0)
(21.1506 9.10253e-06 0)
(21.1502 -1.97826e-06 0)
(21.1503 -1.33664e-05 0)
(21.1513 -1.91766e-05 0)
(21.1511 -2.33577e-06 0)
(21.1514 -1.19986e-05 0)
(21.152 -1.98185e-05 0)
(21.1529 -2.1291e-05 0)
(21.1523 3.31054e-06 0)
(21.1521 -6.24648e-06 0)
(21.1523 -1.50892e-05 0)
(21.1531 -2.01529e-05 0)
(21.1532 -6.97688e-06 0)
(21.1535 -1.42771e-05 0)
(21.1539 -1.99418e-05 0)
(21.1547 -2.20702e-05 0)
(21.1545 -5.89074e-06 0)
(21.1546 -1.19386e-05 0)
(21.1548 -1.70667e-05 0)
(21.1554 -2.08093e-05 0)
(21.1556 -1.41151e-05 0)
(21.156 -1.74526e-05 0)
(21.1563 -1.96461e-05 0)
(21.1568 -2.20517e-05 0)
(21.1573 -1.96968e-05 0)
(21.1577 -1.94598e-05 0)
(21.1579 -1.91149e-05 0)
(21.1583 -1.91765e-05 0)
(21.1586 -2.30034e-05 0)
(21.1593 -1.589e-05 0)
(21.1583 -1.4174e-05 0)
(21.161 -1.51614e-05 0)
(33.6703 0.0695552 0)
(31.5687 0.022852 0)
(29.9791 0.0124058 0)
(28.9249 0.00976262 0)
(27.3648 0.0155954 0)
(24.8074 0.019314 0)
(22.8716 0.0141982 0)
(21.7622 0.00829316 0)
(21.1353 0.00475547 0)
(20.7659 0.00279916 0)
(20.5411 0.00167794 0)
(20.4053 0.000944543 0)
(20.3281 0.000445638 0)
(20.292 9.03996e-05 0)
(20.2849 -0.000149608 0)
(20.2996 -0.000343289 0)
(20.33 -0.000484675 0)
(20.372 -0.000582774 0)
(20.4211 -0.000621245 0)
(20.4758 -0.000669485 0)
(20.5337 -0.000698512 0)
(20.5937 -0.00071047 0)
(20.6536 -0.000688341 0)
(20.7132 -0.000682756 0)
(20.7715 -0.000669806 0)
(20.8285 -0.000645612 0)
(20.8819 -0.000585603 0)
(20.9331 -0.000563291 0)
(20.9817 -0.000539884 0)
(21.0282 -0.000512251 0)
(21.0712 -0.000458452 0)
(21.1115 -0.000433589 0)
(21.149 -0.000409216 0)
(21.1842 -0.000376459 0)
(21.2148 -0.00030676 0)
(21.2427 -0.000286367 0)
(21.2682 -0.000270009 0)
(21.2921 -0.000250811 0)
(21.3126 -0.000203041 0)
(21.3314 -0.000191478 0)
(21.3482 -0.000182873 0)
(21.3642 -0.000164784 0)
(21.3762 -0.000104975 0)
(21.3869 -0.000101716 0)
(21.3965 -0.000104095 0)
(21.4063 -0.000101645 0)
(21.4138 -6.63407e-05 0)
(21.4207 -7.01308e-05 0)
(21.4271 -7.66451e-05 0)
(21.4338 -7.05704e-05 0)
(21.4374 -1.85218e-05 0)
(21.4405 -2.57868e-05 0)
(21.4436 -3.89058e-05 0)
(21.4477 -4.49267e-05 0)
(21.45 -1.51682e-05 0)
(21.4524 -2.56163e-05 0)
(21.4548 -3.85913e-05 0)
(21.4582 -3.74166e-05 0)
(21.4587 1.18538e-05 0)
(21.459 2.68103e-07 0)
(21.4597 -1.74201e-05 0)
(21.4618 -2.67439e-05 0)
(21.4624 1.49275e-07 0)
(21.4633 -1.22453e-05 0)
(21.4644 -2.63995e-05 0)
(21.4665 -2.67598e-05 0)
(21.4659 1.89533e-05 0)
(21.4654 5.35091e-06 0)
(21.4654 -1.38333e-05 0)
(21.467 -2.39304e-05 0)
(21.4672 1.91879e-06 0)
(21.4676 -1.06138e-05 0)
(21.4683 -2.4001e-05 0)
(21.4699 -2.40006e-05 0)
(21.469 1.91997e-05 0)
(21.4682 4.94177e-06 0)
(21.4681 -1.3361e-05 0)
(21.4694 -2.2732e-05 0)
(21.4693 7.04139e-07 0)
(21.4697 -1.24057e-05 0)
(21.4704 -2.46627e-05 0)
(21.4718 -2.4389e-05 0)
(21.4709 1.49566e-05 0)
(21.4703 1.13293e-06 0)
(21.4703 -1.49065e-05 0)
(21.4714 -2.21608e-05 0)
(21.4712 -3.98501e-07 0)
(21.4716 -1.3393e-05 0)
(21.4722 -2.41259e-05 0)
(21.4734 -2.3888e-05 0)
(21.4726 1.11168e-05 0)
(21.4722 -1.89729e-06 0)
(21.4723 -1.54535e-05 0)
(21.4732 -2.16337e-05 0)
(21.4731 -2.65603e-06 0)
(21.4734 -1.38963e-05 0)
(21.4739 -2.28535e-05 0)
(21.4749 -2.34416e-05 0)
(21.4743 4.40725e-06 0)
(21.4741 -6.81928e-06 0)
(21.4743 -1.72558e-05 0)
(21.4751 -2.26818e-05 0)
(21.4751 -7.86576e-06 0)
(21.4755 -1.62778e-05 0)
(21.4759 -2.27052e-05 0)
(21.4767 -2.44703e-05 0)
(21.4765 -6.22956e-06 0)
(21.4765 -1.32378e-05 0)
(21.4768 -1.92172e-05 0)
(21.4773 -2.33493e-05 0)
(21.4776 -1.58558e-05 0)
(21.4779 -1.9606e-05 0)
(21.4783 -2.20734e-05 0)
(21.4788 -2.48107e-05 0)
(21.4792 -2.21727e-05 0)
(21.4796 -2.16621e-05 0)
(21.4798 -2.13007e-05 0)
(21.4803 -2.14121e-05 0)
(21.4806 -2.59189e-05 0)
(21.4813 -1.68349e-05 0)
(21.4803 -1.68841e-05 0)
(21.4829 -1.79161e-05 0)
(34.1942 0.0756206 0)
(32.5376 0.0284207 0)
(30.9969 0.0167235 0)
(29.8656 0.0142027 0)
(28.1323 0.0225017 0)
(25.4375 0.026739 0)
(23.4051 0.0192211 0)
(22.2298 0.0111666 0)
(21.5609 0.0064096 0)
(21.1643 0.00378837 0)
(20.9212 0.00228264 0)
(20.7724 0.00130452 0)
(20.6857 0.00064083 0)
(20.6424 0.000169273 0)
(20.6296 -0.000153262 0)
(20.6398 -0.000409415 0)
(20.6665 -0.000596248 0)
(20.7057 -0.000726095 0)
(20.7525 -0.000783811 0)
(20.8053 -0.000847522 0)
(20.8617 -0.000885932 0)
(20.9206 -0.000902092 0)
(20.9796 -0.000878368 0)
(21.0386 -0.000871333 0)
(21.0965 -0.000854669 0)
(21.1533 -0.000823597 0)
(21.2067 -0.00075261 0)
(21.2581 -0.000723591 0)
(21.3071 -0.0006931 0)
(21.3541 -0.000657214 0)
(21.3977 -0.000592286 0)
(21.4388 -0.000559573 0)
(21.4771 -0.000527332 0)
(21.5132 -0.000484322 0)
(21.5447 -0.000400694 0)
(21.5736 -0.000372994 0)
(21.6 -0.000350368 0)
(21.6248 -0.00032413 0)
(21.6462 -0.000266413 0)
(21.6658 -0.00024969 0)
(21.6834 -0.000236734 0)
(21.7 -0.000211755 0)
(21.7127 -0.000140995 0)
(21.724 -0.000134751 0)
(21.7342 -0.000135774 0)
(21.7444 -0.000130763 0)
(21.7524 -8.92281e-05 0)
(21.7598 -9.20849e-05 0)
(21.7665 -9.84661e-05 0)
(21.7735 -8.889e-05 0)
(21.7775 -2.84596e-05 0)
(21.7809 -3.57228e-05 0)
(21.7842 -5.05479e-05 0)
(21.7884 -5.64448e-05 0)
(21.791 -2.22668e-05 0)
(21.7936 -3.37002e-05 0)
(21.7961 -4.8411e-05 0)
(21.7996 -4.51661e-05 0)
(21.8003 1.15029e-05 0)
(21.8007 -1.34565e-06 0)
(21.8015 -2.20778e-05 0)
(21.8037 -3.22652e-05 0)
(21.8044 -1.73456e-06 0)
(21.8054 -1.57192e-05 0)
(21.8065 -3.19995e-05 0)
(21.8085 -3.07731e-05 0)
(21.8081 2.15547e-05 0)
(21.8076 6.05018e-06 0)
(21.8077 -1.6684e-05 0)
(21.8093 -2.79426e-05 0)
(21.8095 1.30996e-06 0)
(21.81 -1.29338e-05 0)
(21.8106 -2.83236e-05 0)
(21.8122 -2.67169e-05 0)
(21.8113 2.25889e-05 0)
(21.8106 6.14618e-06 0)
(21.8105 -1.55742e-05 0)
(21.8117 -2.60013e-05 0)
(21.8117 3.62382e-07 0)
(21.8121 -1.47339e-05 0)
(21.8128 -2.88077e-05 0)
(21.8142 -2.6962e-05 0)
(21.8134 1.78075e-05 0)
(21.8128 1.78725e-06 0)
(21.8128 -1.71792e-05 0)
(21.8138 -2.50136e-05 0)
(21.8137 -5.75116e-07 0)
(21.814 -1.56547e-05 0)
(21.8146 -2.79321e-05 0)
(21.8158 -2.62636e-05 0)
(21.8151 1.33735e-05 0)
(21.8146 -1.77192e-06 0)
(21.8147 -1.77268e-05 0)
(21.8156 -2.43191e-05 0)
(21.8155 -3.02794e-06 0)
(21.8158 -1.60219e-05 0)
(21.8163 -2.61988e-05 0)
(21.8173 -2.57394e-05 0)
(21.8167 5.65544e-06 0)
(21.8165 -7.41766e-06 0)
(21.8167 -1.96092e-05 0)
(21.8175 -2.5437e-05 0)
(21.8175 -8.84909e-06 0)
(21.8179 -1.84915e-05 0)
(21.8183 -2.57261e-05 0)
(21.819 -2.70486e-05 0)
(21.8189 -6.56692e-06 0)
(21.8189 -1.46314e-05 0)
(21.8191 -2.15365e-05 0)
(21.8197 -2.61045e-05 0)
(21.8199 -1.77519e-05 0)
(21.8203 -2.19526e-05 0)
(21.8206 -2.47021e-05 0)
(21.8211 -2.78149e-05 0)
(21.8216 -2.48713e-05 0)
(21.822 -2.40405e-05 0)
(21.8222 -2.36527e-05 0)
(21.8226 -2.38235e-05 0)
(21.8229 -2.90885e-05 0)
(21.8236 -1.77497e-05 0)
(21.8226 -1.98376e-05 0)
(21.8252 -2.12639e-05 0)
(34.5331 0.0802428 0)
(33.3569 0.0340157 0)
(31.9517 0.0218108 0)
(30.7778 0.0199087 0)
(28.9213 0.0312404 0)
(26.1279 0.0359793 0)
(24.0005 0.0255124 0)
(22.7514 0.0148056 0)
(22.033 0.00852148 0)
(21.604 0.00506026 0)
(21.3389 0.00306722 0)
(21.1746 0.00177973 0)
(21.0764 0.000908253 0)
(21.0242 0.000290282 0)
(21.0046 -0.000136345 0)
(21.0093 -0.000471059 0)
(21.0316 -0.000715187 0)
(21.0671 -0.000885466 0)
(21.1111 -0.000968513 0)
(21.1615 -0.00105232 0)
(21.2161 -0.00110327 0)
(21.2734 -0.00112572 0)
(21.3313 -0.00110143 0)
(21.3895 -0.0010936 0)
(21.4469 -0.00107332 0)
(21.5033 -0.00103495 0)
(21.5568 -0.000952019 0)
(21.6084 -0.000915603 0)
(21.6578 -0.000877176 0)
(21.7053 -0.000832035 0)
(21.7497 -0.000754592 0)
(21.7916 -0.000712846 0)
(21.8309 -0.000671397 0)
(21.868 -0.000616455 0)
(21.9007 -0.000516774 0)
(21.9308 -0.000480221 0)
(21.9583 -0.000449852 0)
(21.9841 -0.000415077 0)
(22.0067 -0.000345612 0)
(22.0273 -0.000322404 0)
(22.0458 -0.00030384 0)
(22.0633 -0.000270488 0)
(22.0769 -0.000186935 0)
(22.089 -0.000176705 0)
(22.0999 -0.000175628 0)
(22.1106 -0.000167327 0)
(22.1192 -0.000118488 0)
(22.1271 -0.000119901 0)
(22.1342 -0.000125732 0)
(22.1416 -0.000111919 0)
(22.146 -4.1898e-05 0)
(22.1498 -4.88153e-05 0)
(22.1534 -6.5263e-05 0)
(22.1579 -7.08787e-05 0)
(22.1607 -3.16752e-05 0)
(22.1635 -4.40335e-05 0)
(22.1663 -6.04903e-05 0)
(22.1698 -5.47936e-05 0)
(22.1707 1.0201e-05 0)
(22.1714 -3.8619e-06 0)
(22.1723 -2.78533e-05 0)
(22.1745 -3.89928e-05 0)
(22.1753 -4.41944e-06 0)
(22.1764 -2.00992e-05 0)
(22.1775 -3.8643e-05 0)
(22.1796 -3.55776e-05 0)
(22.1793 2.41333e-05 0)
(22.1789 6.6257e-06 0)
(22.1791 -2.00047e-05 0)
(22.1806 -3.26046e-05 0)
(22.1808 3.86053e-07 0)
(22.1814 -1.57247e-05 0)
(22.1821 -3.32704e-05 0)
(22.1836 -2.9825e-05 0)
(22.1828 2.62723e-05 0)
(22.1822 7.47794e-06 0)
(22.182 -1.80192e-05 0)
(22.1832 -2.96837e-05 0)
(22.1832 -1.28303e-07 0)
(22.1836 -1.74265e-05 0)
(22.1843 -3.34723e-05 0)
(22.1856 -2.98379e-05 0)
(22.1849 2.0952e-05 0)
(22.1843 2.54706e-06 0)
(22.1843 -1.96559e-05 0)
(22.1853 -2.8183e-05 0)
(22.1852 -8.24372e-07 0)
(22.1855 -1.82238e-05 0)
(22.1861 -3.21807e-05 0)
(22.1872 -2.88871e-05 0)
(22.1866 1.58782e-05 0)
(22.1862 -1.59687e-06 0)
(22.1862 -2.02031e-05 0)
(22.1871 -2.72903e-05 0)
(22.187 -3.47291e-06 0)
(22.1873 -1.84156e-05 0)
(22.1878 -2.99112e-05 0)
(22.1887 -2.82595e-05 0)
(22.1882 7.05221e-06 0)
(22.188 -8.04958e-06 0)
(22.1882 -2.21769e-05 0)
(22.1889 -2.84789e-05 0)
(22.189 -9.9579e-06 0)
(22.1893 -2.09641e-05 0)
(22.1897 -2.90645e-05 0)
(22.1904 -2.988e-05 0)
(22.1903 -6.92714e-06 0)
(22.1904 -1.61482e-05 0)
(22.1906 -2.40695e-05 0)
(22.1911 -2.91391e-05 0)
(22.1913 -1.985e-05 0)
(22.1917 -2.45463e-05 0)
(22.192 -2.76082e-05 0)
(22.1925 -3.11453e-05 0)
(22.1929 -2.78466e-05 0)
(22.1933 -2.66431e-05 0)
(22.1936 -2.62562e-05 0)
(22.194 -2.64822e-05 0)
(22.1942 -3.25873e-05 0)
(22.1949 -1.86544e-05 0)
(22.194 -2.37655e-05 0)
(22.1966 -2.55891e-05 0)
(34.7381 0.0836271 0)
(34.0017 0.0391983 0)
(32.8259 0.0274921 0)
(31.6643 0.0269811 0)
(29.7438 0.0420505 0)
(26.8917 0.0473668 0)
(24.6718 0.0333895 0)
(23.3395 0.0194358 0)
(22.5629 0.011237 0)
(22.095 0.00670898 0)
(21.8035 0.00409407 0)
(21.6204 0.00241257 0)
(21.5083 0.0012771 0)
(21.4454 0.000473475 0)
(21.4175 -8.53607e-05 0)
(21.4154 -0.000519576 0)
(21.4323 -0.000836489 0)
(21.4634 -0.00105868 0)
(21.5038 -0.00117529 0)
(21.5513 -0.00128544 0)
(21.6035 -0.00135333 0)
(21.659 -0.00138513 0)
(21.7155 -0.00136206 0)
(21.7725 -0.00135467 0)
(21.8292 -0.00133126 0)
(21.8852 -0.0012855 0)
(21.9386 -0.0011899 0)
(21.9904 -0.00114555 0)
(22.0402 -0.00109843 0)
(22.0883 -0.00104312 0)
(22.1334 -0.000951797 0)
(22.1763 -0.000899802 0)
(22.2167 -0.00084768 0)
(22.255 -0.000778985 0)
(22.2891 -0.000660902 0)
(22.3205 -0.000613658 0)
(22.3494 -0.000573728 0)
(22.3765 -0.000528611 0)
(22.4003 -0.000445249 0)
(22.4221 -0.000413871 0)
(22.4418 -0.000388057 0)
(22.4602 -0.000344527 0)
(22.4749 -0.000246001 0)
(22.4879 -0.000230439 0)
(22.4997 -0.000226194 0)
(22.5111 -0.000213652 0)
(22.5204 -0.000156208 0)
(22.5289 -0.000155454 0)
(22.5366 -0.000160099 0)
(22.5444 -0.000141166 0)
(22.5494 -6.01809e-05 0)
(22.5536 -6.62289e-05 0)
(22.5576 -8.40516e-05 0)
(22.5623 -8.91589e-05 0)
(22.5655 -4.42396e-05 0)
(22.5685 -5.73725e-05 0)
(22.5715 -7.54801e-05 0)
(22.5752 -6.69093e-05 0)
(22.5764 7.41039e-06 0)
(22.5773 -7.72035e-06 0)
(22.5783 -3.50988e-05 0)
(22.5806 -4.72803e-05 0)
(22.5816 -8.23707e-06 0)
(22.5827 -2.5681e-05 0)
(22.584 -4.65685e-05 0)
(22.586 -4.14123e-05 0)
(22.5859 2.64844e-05 0)
(22.5856 6.93131e-06 0)
(22.5858 -2.38927e-05 0)
(22.5873 -3.80469e-05 0)
(22.5876 -9.88583e-07 0)
(22.5882 -1.91079e-05 0)
(22.5889 -3.89252e-05 0)
(22.5904 -3.34237e-05 0)
(22.5897 3.01712e-05 0)
(22.5891 8.9014e-06 0)
(22.589 -2.06999e-05 0)
(22.5901 -3.38258e-05 0)
(22.5902 -8.28761e-07 0)
(22.5906 -2.05417e-05 0)
(22.5912 -3.86914e-05 0)
(22.5925 -3.30729e-05 0)
(22.5918 2.43472e-05 0)
(22.5913 3.40274e-06 0)
(22.5913 -2.23216e-05 0)
(22.5922 -3.16938e-05 0)
(22.5922 -1.18237e-06 0)
(22.5925 -2.1135e-05 0)
(22.593 -3.68892e-05 0)
(22.5941 -3.17968e-05 0)
(22.5935 1.86006e-05 0)
(22.5931 -1.37725e-06 0)
(22.5932 -2.28681e-05 0)
(22.594 -3.05672e-05 0)
(22.594 -4.02004e-06 0)
(22.5943 -2.11049e-05 0)
(22.5947 -3.40025e-05 0)
(22.5956 -3.10308e-05 0)
(22.5951 8.57184e-06 0)
(22.595 -8.72355e-06 0)
(22.5951 -2.49523e-05 0)