/*--------------------------------*- C++ -*----------------------------------*\
  =========                 |
  \\      /  F ield         | OpenFOAM: The Open Source CFD Toolbox
   \\    /   O peration     | Website:  https://openfoam.org
    \\  /    A nd           | Version:  7
     \\/     M anipulation  |
\*---------------------------------------------------------------------------*/
FoamFile
{
    version     2.0;
    format      ascii;
    class       volScalarField;
    location    "1.7";
    object      T;
}
// * * * * * * * * * * * * * * * * * * * * * * * * * * * * * * * * * * * * * //

dimensions      [0 0 0 1 0 0 0];

internalField   nonuniform List<scalar> 
32100
(
-1.40871e+40
-2.06909e+39
3.40994e+38
-1.62258e+37
-2.33967e+36
3.48247e+35
2.72132e+34
-5.79505e+33
3.32248e+32
4.61801e+31
-4.03957e+30
-7.14537e+28
3.7959e+26
8.35992e+26
2.2506e+26
-2.4042e+39
3.70913e+38
-1.65614e+37
-2.48611e+36
3.55822e+35
2.85617e+34
-5.96105e+33
3.34544e+32
4.48403e+31
-7.78134e+30
-1.79475e+30
-1.13241e+29
7.01007e+27
8.34325e+26
2.17328e+26
4.06992e+38
-1.71273e+37
-2.69204e+36
3.67584e+35
3.01695e+34
-6.20349e+33
3.4354e+32
4.77338e+31
-7.50661e+30
-1.10507e+30
-4.83863e+29
-6.52054e+28
1.1049e+28
5.0919e+26
1.74801e+26
-1.78507e+37
-3.1467e+36
3.75979e+35
3.46672e+34
-6.54319e+33
3.05847e+32
5.45791e+31
-6.00851e+30
-6.16697e+29
1.5916e+28
-1.24282e+29
-1.61177e+28
1.02706e+28
2.00386e+26
1.18405e+26
-4.2832e+36
2.44507e+35
3.30885e+34
-4.63201e+33
2.39902e+32
1.39913e+31
-1.80146e+30
6.14435e+29
1.14126e+29
-1.57888e+28
-8.15235e+27
4.33416e+27
6.81393e+27
-2.51215e+25
5.63592e+25
-4.28794e+35
-1.06671e+35
-1.05516e+34
2.40742e+33
-2.97196e+31
-4.49929e+31
4.27846e+30
1.31125e+30
-1.16795e+28
4.57615e+27
8.58e+27
6.2144e+27
3.34996e+27
-1.51016e+26
8.98549e+24
-7.33378e+35
-1.50938e+35
-3.86603e+33
2.04646e+33
-6.57989e+31
-3.8705e+31
4.34828e+30
1.17586e+30
1.09447e+27
6.51543e+26
5.14216e+27
3.10153e+27
1.12024e+27
-1.81726e+26
-1.34382e+25
-7.3241e+35
-1.38261e+35
-4.9862e+33
1.89826e+33
-3.32085e+31
-3.80346e+31
3.52089e+30
1.18226e+30
1.0592e+28
-3.05109e+27
2.21598e+27
7.18805e+26
1.34946e+26
-1.45552e+26
-1.58803e+25
-6.66314e+35
-1.33525e+35
-5.85624e+33
1.80565e+33
-6.48771e+30
-3.78492e+31
2.82513e+30
1.17155e+30
2.0918e+28
-4.31372e+27
1.20268e+27
-4.48316e+25
-1.12145e+26
-8.60592e+25
-9.73287e+24
-6.11412e+35
-1.28288e+35
-6.61384e+33
1.69284e+33
1.88925e+31
-3.70874e+31
2.11927e+30
1.14795e+30
3.18759e+28
-4.56421e+27
1.03634e+27
-5.24835e+25
-9.88875e+25
-3.78787e+25
-3.60268e+24
-5.60353e+35
-1.23066e+35
-7.33417e+33
1.56896e+33
4.35492e+31
-3.59166e+31
1.42539e+30
1.11283e+30
4.22887e+28
-4.55389e+27
9.30033e+26
1.63226e+25
-5.12102e+25
-1.18393e+25
-4.24456e+23
-5.13265e+35
-1.18415e+35
-7.915e+33
1.4339e+33
6.66095e+31
-3.43502e+31
7.59923e+29
1.06731e+30
5.1703e+28
-4.36335e+27
7.71931e+26
4.82328e+25
-2.55745e+25
-2.82342e+24
3.82254e+23
-4.71185e+35
-1.12715e+35
-7.98484e+33
1.28584e+33
8.47704e+31
-3.24212e+31
1.45543e+29
1.01312e+30
5.97606e+28
-3.985e+27
6.11524e+26
5.2669e+25
-1.71892e+25
-1.10253e+24
2.16519e+23
-4.20765e+35
-9.37475e+34
-6.92574e+33
9.95296e+32
8.9841e+31
-2.98044e+31
-3.35742e+29
9.4945e+29
6.60327e+28
-3.46346e+27
4.96915e+26
5.82605e+25
-1.16002e+25
-7.77204e+23
1.14405e+23
-2.94762e+35
-7.03218e+34
-6.02789e+33
7.28147e+32
8.53477e+31
-2.40615e+31
-6.76811e+29
8.32621e+29
7.03747e+28
-2.96345e+27
4.18218e+26
7.23086e+25
-1.16035e+25
-9.43654e+23
7.4077e+22
-2.10494e+35
-5.77118e+34
-5.67437e+33
5.73734e+32
8.42032e+31
-1.93619e+31
-1.02649e+30
7.2343e+29
7.59413e+28
-2.48107e+27
3.3005e+26
8.80528e+25
-1.35428e+25
-1.38349e+24
6.11959e+22
-1.79416e+35
-5.22464e+34
-5.5574e+33
4.7727e+32
8.79185e+31
-1.70585e+31
-1.39598e+30
6.54499e+29
8.28949e+28
-1.87256e+27
2.24322e+26
9.86392e+25
-1.324e+25
-1.83549e+24
5.53456e+22
-1.58132e+35
-4.90434e+34
-5.64016e+33
4.00823e+32
9.33773e+31
-1.5157e+31
-1.72942e+30
5.94568e+29
9.01784e+28
-1.07797e+27
1.13141e+26
1.05488e+26
-1.13437e+25
-2.17144e+24
4.30916e+22
-1.40521e+35
-4.61174e+34
-5.70521e+33
3.21916e+32
9.80785e+31
-1.31176e+31
-2.04487e+30
5.32914e+29
9.73535e+28
-9.6877e+25
3.98447e+24
1.08676e+26
-8.62447e+24
-2.38001e+24
2.14938e+22
-1.25372e+35
-4.32508e+34
-5.74536e+33
2.37315e+32
1.01902e+32
-1.08593e+31
-2.3371e+30
4.64183e+29
1.03932e+29
1.06563e+27
-9.62944e+25
1.10121e+26
-5.79514e+24
-2.55219e+24
-8.09896e+21
-1.11387e+35
-4.02558e+34
-5.74178e+33
1.49294e+32
1.04519e+32
-8.37455e+30
-2.59484e+30
3.86989e+29
1.0969e+29
2.40996e+27
-1.8508e+26
1.07617e+26
-2.73717e+24
-2.63991e+24
-4.35059e+22
-9.79801e+34
-3.70477e+34
-5.70504e+33
5.98074e+31
1.0561e+32
-5.67806e+30
-2.80404e+30
3.01953e+29
1.14655e+29
3.95644e+27
-2.58356e+26
1.00871e+26
3.46402e+23
-2.5782e+24
-7.93328e+22
-8.53117e+34
-3.37803e+34
-5.64361e+33
-3.02753e+31
1.04964e+32
-2.79977e+30
-2.9509e+30
2.09263e+29
1.18793e+29
5.74898e+27
-3.1184e+26
9.21813e+25
3.16485e+24
-2.45655e+24
-1.12025e+23
-7.35733e+34
-3.05634e+34
-5.55371e+33
-1.20337e+32
1.02265e+32
2.26636e+29
-3.02466e+30
1.09048e+29
1.21839e+29
7.83151e+27
-3.41328e+26
8.19775e+25
5.83378e+24
-2.32859e+24
-1.41934e+23
-6.29745e+34
-2.7544e+34
-5.44345e+33
-2.09787e+32
9.73856e+31
3.33985e+30
-3.01436e+30
1.35354e+27
1.2333e+29
1.02126e+28
-3.38559e+26
6.97542e+25
8.5229e+24
-2.20028e+24
-1.72077e+23
-5.3518e+34
-2.47254e+34
-5.30191e+33
-2.97613e+32
9.01836e+31
6.46317e+30
-2.90626e+30
-1.13075e+29
1.22651e+29
1.29103e+28
-2.91183e+26
5.50946e+25
1.14117e+25
-2.07051e+24
-2.07754e+23
-4.53175e+34
-2.20948e+34
-5.13323e+33
-3.835e+32
8.05119e+31
9.51954e+30
-2.68812e+30
-2.32688e+29
1.19025e+29
1.59317e+28
-1.82323e+26
3.63342e+25
1.44333e+25
-1.88472e+24
-2.49003e+23
-3.83701e+34
-1.97547e+34
-4.96819e+33
-4.6837e+32
6.81898e+31
1.24172e+31
-2.34561e+30
-3.55073e+29
1.11348e+29
1.93897e+28
8.47905e+24
1.28824e+25
1.70683e+25
-1.57965e+24
-2.86896e+23
-3.24066e+34
-1.77316e+34
-4.8228e+33
-5.52547e+32
5.29684e+31
1.50576e+31
-1.86696e+30
-4.77106e+29
9.86056e+28
2.31847e+28
3.07042e+26
-1.37604e+25
1.92669e+25
-1.18118e+24
-3.20217e+23
-2.71384e+34
-1.58768e+34
-4.6715e+33
-6.33399e+32
3.46316e+31
1.7307e+31
-1.23688e+30
-5.93988e+29
7.99789e+28
2.71556e+28
7.41786e+26
-4.23109e+25
2.09554e+25
-6.84443e+23
-3.48999e+23
-2.24061e+34
-1.39717e+34
-4.45163e+33
-7.06171e+32
1.32088e+31
1.89907e+31
-4.39089e+29
-6.98943e+29
5.41356e+28
3.1276e+28
1.35574e+27
-6.99577e+25
2.11842e+25
-8.28587e+22
-3.64864e+23
-1.82686e+34
-1.20064e+34
-4.13032e+33
-7.69042e+32
-1.11661e+31
1.99055e+31
5.37113e+29
-7.80601e+29
1.94547e+28
3.52459e+28
2.21609e+27
-9.13733e+25
1.98954e+25
5.62605e+23
-3.74175e+23
-1.48953e+34
-1.02608e+34
-3.81011e+33
-8.21053e+32
-3.8371e+31
1.98046e+31
1.68984e+30
-8.2106e+29
-2.54676e+28
3.86252e+28
3.42154e+27
-1.03257e+26
1.80921e+25
1.32412e+24
-3.94877e+23
-1.21735e+34
-8.93853e+33
-3.58787e+33
-8.65522e+32
-6.84063e+31
1.84318e+31
2.99279e+30
-7.98456e+29
-8.05746e+28
4.05249e+28
5.08362e+27
-9.4456e+25
1.50169e+25
2.42708e+24
-4.31568e+23
-9.88919e+33
-7.87341e+33
-3.4124e+33
-9.05504e+32
-1.01437e+32
1.54684e+31
4.37126e+30
-6.87527e+29
-1.43756e+29
3.97128e+28
7.32249e+27
-3.45017e+25
8.21659e+24
4.01612e+24
-4.65697e+23
-7.96605e+33
-6.82108e+33
-3.19427e+33
-9.41557e+32
-1.37578e+32
1.04849e+31
5.65763e+30
-4.66019e+29
-2.10483e+29
3.44393e+28
1.01746e+28
1.30449e+26
-4.74742e+24
6.15108e+24
-4.50046e+23
-6.36075e+33
-5.82586e+33
-2.95656e+33
-9.75489e+32
-1.77095e+32
3.08951e+30
6.68999e+30
-1.23171e+29
-2.73243e+29
2.28845e+28
1.34314e+28
5.00701e+26
-2.57189e+25
8.60877e+24
-2.80915e+23
-5.01351e+33
-4.9662e+33
-2.74368e+33
-1.00616e+33
-2.19483e+32
-6.90679e+30
7.32749e+30
3.42642e+29
-3.20498e+29
3.79176e+27
1.6524e+28
1.15894e+27
-4.98537e+25
1.03089e+25
1.9339e+23
-3.88715e+33
-4.22428e+33
-2.54841e+33
-1.02763e+33
-2.61704e+32
-1.93454e+31
7.3683e+30
9.19303e+29
-3.36323e+29
-2.28418e+28
1.85561e+28
2.15941e+27
-6.32871e+25
9.57506e+24
1.11765e+24
-2.9508e+33
-3.57502e+33
-2.36346e+33
-1.03756e+33
-2.97294e+32
-3.3708e+31
6.58209e+30
1.56603e+30
-3.04502e+29
-5.45821e+28
1.85408e+28
3.50208e+27
-4.00061e+25
4.05205e+24
2.60109e+24
-2.18052e+33
-2.97613e+33
-2.165e+33
-1.02668e+33
-3.24026e+32
-4.91814e+31
4.79661e+30
2.19063e+30
-2.15027e+29
-8.70164e+28
1.57731e+28
5.10175e+27
7.34519e+25
-9.59992e+24
4.46455e+24
-1.56562e+33
-2.40501e+33
-1.93743e+33
-9.8703e+32
-3.44846e+32
-6.49171e+31
2.00166e+30
2.70617e+30
-6.77549e+28
-1.15689e+29
1.00882e+28
6.59059e+27
2.87971e+26
-2.73762e+25
5.53379e+24
-1.10468e+33
-1.88648e+33
-1.68224e+33
-9.28421e+32
-3.60461e+32
-8.02055e+31
-1.67982e+30
2.97679e+30
1.29398e+29
-1.35653e+29
2.0101e+27
7.27155e+27
5.62824e+26
-4.25116e+25
4.86512e+24
-7.75102e+32
-1.45794e+33
-1.42977e+33
-8.66984e+32
-3.70983e+32
-9.45561e+31
-6.01199e+30
2.98308e+30
3.4158e+29
-1.42255e+29
-7.10544e+27
7.32331e+27
8.70556e+26
-5.07017e+25
2.67785e+24
-5.44997e+32
-1.1276e+33
-1.21408e+33
-8.09026e+32
-3.77628e+32
-1.07912e+32
-1.07756e+31
2.72487e+30
5.34849e+29
-1.28575e+29
-1.62643e+28
6.83803e+27
1.05488e+27
-5.37297e+25
-4.34378e+24
-3.84797e+32
-8.78896e+32
-1.03665e+33
-7.53619e+32
-3.81958e+32
-1.20579e+32
-1.58731e+31
2.25989e+30
7.04133e+29
-1.03086e+29
-2.20166e+28
5.50851e+27
1.01871e+27
-2.439e+25
-5.26143e+24
-2.70843e+32
-6.88328e+32
-8.92229e+32
-7.03827e+32
-3.84747e+32
-1.32948e+32
-2.13253e+31
1.66302e+30
8.4132e+29
-7.6567e+28
-2.52326e+28
4.22218e+27
9.14222e+26
-6.38816e+24
-2.85939e+24
-1.89181e+32
-5.38103e+32
-7.69938e+32
-6.58837e+32
-3.85463e+32
-1.44519e+32
-2.71138e+31
9.07721e+29
9.76502e+29
-5.08998e+28
-2.88529e+28
3.407e+27
8.75748e+26
1.21014e+24
-2.53153e+24
-1.29395e+32
-4.15734e+32
-6.57824e+32
-6.1258e+32
-3.82014e+32
-1.5409e+32
-3.29185e+31
-5.12292e+28
1.10285e+30
-2.2676e+28
-3.22385e+28
2.83174e+27
8.98271e+26
6.89311e+24
-2.75308e+24
-8.66376e+31
-3.16491e+32
-5.55975e+32
-5.65668e+32
-3.75032e+32
-1.62026e+32
-3.86696e+31
-1.23171e+30
1.19915e+30
1.04093e+28
-3.54166e+28
2.3204e+27
9.41008e+26
1.32606e+25
-3.07893e+24
-5.6461e+31
-2.37877e+32
-4.68606e+32
-5.21557e+32
-3.66975e+32
-1.69804e+32
-4.49099e+31
-2.6547e+30
1.26621e+30
4.88501e+28
-3.80454e+28
1.79474e+27
9.63894e+26
2.06835e+25
-2.79174e+24
-3.55315e+31
-1.75821e+32
-3.92252e+32
-4.75131e+32
-3.58264e+32
-1.77592e+32
-5.19144e+31
-4.40303e+30
1.29882e+30
9.27536e+28
-3.94932e+28
1.22175e+27
9.32759e+26
2.78352e+25
-1.11289e+24
-2.17497e+31
-1.2664e+32
-3.19771e+32
-4.25637e+32
-3.48236e+32
-1.8547e+32
-5.94696e+31
-6.55233e+30
1.27972e+30
1.40992e+29
-3.95065e+28
6.64678e+26
8.46731e+26
3.30993e+25
1.87952e+24
-1.2847e+31
-8.8873e+31
-2.53672e+32
-3.77408e+32
-3.39046e+32
-1.93693e+32
-6.76614e+31
-9.14858e+30
1.18738e+30
1.9107e+29
-3.81485e+28
2.10722e+26
7.1979e+26
3.62341e+25
6.64161e+24
-7.04962e+30
-6.0827e+31
-1.98532e+32
-3.32694e+32
-3.29329e+32
-2.01478e+32
-7.64706e+31
-1.22322e+31
1.0008e+30
2.39444e+29
-3.52677e+28
-6.05587e+25
5.603e+26
3.72889e+25
1.39395e+25
-3.4092e+30
-3.98865e+31
-1.51639e+32
-2.89142e+32
-3.15115e+32
-2.08157e+32
-8.59468e+31
-1.58495e+31
6.98507e+29
2.79963e+29
-3.05922e+28
-7.94679e+25
3.76813e+26
2.76876e+25
1.70694e+25
-1.28992e+30
-2.44386e+31
-1.11454e+32
-2.4448e+32
-2.96265e+32
-2.13398e+32
-9.62993e+31
-2.01755e+31
2.61391e+29
2.96485e+29
-2.35416e+28
1.12763e+26
1.57643e+26
1.16641e+25
1.62633e+25
-2.38717e+29
-1.36659e+31
-7.79562e+31
-2.00257e+32
-2.72605e+32
-2.1614e+32
-1.06846e+32
-2.52268e+31
-3.18202e+29
2.85415e+29
-1.56226e+28
2.99213e+26
2.28178e+25
4.87161e+24
1.56426e+25
1.44685e+29
-6.68646e+30
-5.0915e+31
-1.57463e+32
-2.43685e+32
-2.15444e+32
-1.1728e+32
-3.06828e+31
-1.05478e+30
2.72141e+29
-9.15279e+27
2.25188e+26
3.1976e+25
-9.43014e+24
1.65043e+25
1.8724e+29
-2.63757e+30
-3.01249e+31
-1.1732e+32
-2.10812e+32
-2.11158e+32
-1.2769e+32
-3.58487e+31
-2.00076e+30
3.55839e+29
-6.14177e+27
3.96688e+26
8.1739e+25
7.78379e+25
7.24381e+25
9.48207e+28
-6.42852e+29
-1.50967e+31
-8.10802e+31
-1.75706e+32
-2.03245e+32
-1.37822e+32
-3.98561e+31
-3.22603e+30
5.70193e+29
-2.07695e+28
-9.43087e+26
-1.02504e+27
-5.15012e+26
-8.43481e+25
-1.55399e+28
-1.44852e+28
-5.39201e+30
-4.95193e+31
-1.39504e+32
-1.9146e+32
-1.47353e+32
-4.29019e+31
-4.65711e+30
3.54717e+29
-8.45304e+27
-1.94888e+27
1.30781e+27
-8.3078e+25
-2.5078e+26
-6.30159e+28
-1.19293e+29
-5.02711e+29
-2.34908e+31
-1.02624e+32
-1.75067e+32
-1.55805e+32
-4.75042e+31
-6.75616e+30
-5.73863e+29
1.42617e+29
6.03131e+28
6.50946e+28
4.93674e+28
1.88194e+28
-7.79292e+28
-2.27712e+29
5.60334e+29
-4.57093e+30
-6.56887e+31
-1.53439e+32
-1.61961e+32
-5.31546e+31
-8.79686e+30
-2.52437e+30
-9.75341e+29
-9.47595e+29
-1.39197e+30
-1.76278e+30
-1.01217e+30
-1.76724e+29
-3.51734e+29
4.28222e+29
4.53008e+30
-3.10682e+31
-1.27026e+32
-1.64122e+32
-5.73453e+31
-9.05924e+30
-2.75896e+30
-3.841e+30
-3.54111e+30
-4.51362e+30
-3.52759e+30
-1.94411e+30
-9.61191e+29
-3.08253e+29
1.25989e+30
4.66307e+30
-6.84182e+30
-9.75691e+31
-1.59122e+32
-6.00739e+31
-8.93995e+30
-1.2836e+29
-7.84443e+29
-1.66127e+30
-1.50543e+30
-1.29311e+30
-1.86473e+30
2.194e+31
1.02096e+31
5.00258e+30
4.25024e+30
-6.83417e+30
-6.7668e+31
-1.44136e+32
-6.12431e+31
-1.03453e+31
-9.5166e+27
-2.6093e+27
-1.45382e+29
-2.2487e+29
-3.90971e+29
-1.58481e+30
-6.59279e+31
-3.38673e+31
-6.04919e+30
2.06567e+30
-2.54974e+31
-8.04174e+31
-1.24563e+32
-5.94486e+31
-1.43495e+31
-5.54498e+30
-2.15793e+30
-1.00512e+30
-6.40928e+29
-4.55183e+29
-1.2884e+30
-2.24652e+33
-7.04597e+32
-3.34447e+32
-2.13108e+32
-1.40048e+32
-1.43608e+32
-1.57757e+32
-5.62838e+31
-2.07351e+31
-9.12523e+30
-3.91575e+30
-1.79655e+30
-9.62159e+29
-5.27177e+29
-1.10063e+30
-2.98207e+33
-1.28922e+33
-1.82415e+33
-1.33938e+33
-9.4554e+32
-6.23054e+32
-3.45272e+32
-1.69192e+32
-6.41203e+31
-2.33887e+31
-8.78791e+30
-3.57352e+30
-1.61702e+30
-7.51259e+29
-9.15182e+29
4.92291e+35
9.42305e+34
2.38384e+34
7.05256e+33
1.89576e+33
2.28907e+32
-2.53166e+32
-2.15056e+32
-1.06702e+32
-4.27356e+31
-1.64034e+31
-6.52659e+30
-2.77988e+30
-1.27008e+30
-1.75595e+30
-5.42694e+36
-3.86121e+35
9.4577e+34
5.58665e+34
2.46133e+34
7.64496e+33
1.10803e+33
-2.54152e+31
-8.11356e+31
-3.73806e+31
-1.23824e+31
-2.73043e+30
1.37926e+29
4.75738e+29
5.31633e+29
-7.71681e+34
-4.73492e+36
-1.22532e+36
-1.70581e+35
5.42299e+33
9.7651e+33
1.82692e+33
2.6884e+31
-9.95885e+31
-7.70082e+31
-5.31568e+31
-3.53869e+31
-2.12262e+31
-1.06313e+31
-5.82266e+30
4.989e+38
1.62049e+37
-5.81493e+36
-5.01061e+35
-6.04309e+34
-8.35548e+32
1.13156e+33
-3.20759e+32
-3.84676e+32
-2.10839e+32
-1.11998e+32
-6.23693e+31
-3.7766e+31
-2.38198e+31
-1.93405e+31
9.15207e+38
5.18971e+38
1.58231e+37
-6.87776e+36
8.1395e+35
-1.45827e+33
1.52277e+34
2.13097e+34
1.8991e+34
1.60336e+34
1.27975e+34
9.2825e+33
5.77491e+33
2.83708e+33
1.05105e+33
-4.68594e+40
1.21391e+39
5.11744e+38
-1.16803e+37
-5.03813e+36
1.12588e+36
2.08825e+35
1.71588e+35
1.32437e+35
9.39947e+34
6.48299e+34
4.3529e+34
2.73441e+34
1.51679e+34
5.74586e+33
4.27708e+41
-4.27578e+40
1.3397e+39
4.64527e+38
-1.03129e+37
-4.5656e+36
9.93514e+35
-2.71918e+34
-1.15908e+35
-1.5401e+35
-1.5875e+35
-1.30008e+35
-8.11241e+34
-3.29098e+34
-9.54782e+33
-4.83421e+41
3.7474e+41
-3.96054e+40
1.35005e+39
4.49391e+38
-1.01216e+37
-2.85986e+36
3.57623e+36
3.18113e+36
3.23854e+36
2.92772e+36
2.30249e+36
1.50656e+36
7.65322e+35
2.89484e+35
-2.0452e+43
-2.59429e+41
3.37352e+41
-3.74918e+40
1.42025e+39
4.90496e+38
2.5922e+37
2.08906e+37
1.71333e+37
8.91555e+36
3.98054e+36
1.48993e+36
5.88197e+35
5.28567e+35
2.8227e+35
-1.34531e+44
-1.90958e+43
-1.27155e+41
3.13645e+41
-3.66265e+40
4.93455e+38
-4.75624e+38
-9.4461e+38
-9.14844e+38
-8.31392e+38
-7.1559e+38
-5.73582e+38
-4.12112e+38
-2.55297e+38
-1.25428e+38
8.23029e+45
-3.60592e+44
-5.31374e+43
-8.46737e+41
9.02466e+41
-1.47543e+41
-3.07287e+40
-2.56768e+40
-2.14744e+40
-1.63144e+40
-1.17681e+40
-8.4651e+39
-5.91603e+39
-4.08474e+39
-3.09232e+39
-6.97868e+46
7.71042e+45
-3.22704e+44
-5.24387e+43
-1.55539e+42
8.46516e+41
-1.98549e+41
-6.49142e+40
-4.75633e+40
-3.81619e+40
-2.67056e+40
-1.70273e+40
-1.09822e+40
-7.69388e+39
-4.71845e+39
1.56856e+47
-6.05229e+46
7.18117e+45
-3.09736e+44
-5.6776e+43
-2.20255e+42
9.41901e+41
-7.3459e+40
2.02413e+40
1.83749e+40
8.66863e+39
1.31608e+39
-2.66754e+39
-3.30153e+39
-2.03479e+39
2.55245e+48
1.10884e+47
-5.50523e+46
6.52222e+45
3.95216e+43
-8.73482e+43
-5.29753e+42
3.68125e+42
1.74574e+42
9.3041e+41
5.5379e+41
2.87031e+41
1.2657e+41
4.39235e+40
2.00307e+40
2.54829e+49
2.47475e+48
8.54997e+46
-4.90667e+46
6.05921e+45
-2.15229e+44
-2.34828e+43
4.87961e+42
3.56472e+42
1.76647e+42
1.13382e+42
7.31283e+41
4.40965e+41
2.20464e+41
1.10379e+41
2.64472e+48
9.31107e+46
-5.41056e+46
7.39543e+45
-1.81956e+44
-1.32618e+43
1.4292e+43
9.12611e+42
4.24303e+42
2.24383e+42
1.19423e+42
7.50767e+41
5.78893e+41
3.82072e+41
2.22722e+41
1.64767e+47
-6.8536e+46
6.57565e+45
2.86081e+44
5.63397e+43
3.44867e+43
1.95139e+43
1.04488e+43
5.68435e+42
3.04174e+42
1.53367e+42
8.38032e+41
6.08173e+41
4.14894e+41
2.42455e+41
-5.06351e+46
-1.21223e+45
5.09651e+44
2.35208e+44
1.00583e+44
4.62209e+43
2.23111e+43
1.13205e+43
5.96017e+42
3.17471e+42
1.70288e+42
1.02275e+42
5.43466e+41
2.46542e+41
8.14136e+40
3.59828e+45
6.57837e+44
1.753e+44
6.21809e+43
2.433e+43
1.03973e+43
4.70576e+42
2.18848e+42
9.87203e+41
4.28148e+41
1.39724e+41
2.01179e+40
-1.76981e+41
-8.53794e+40
-3.4639e+40
-5.39704e+43
-1.63551e+43
-1.12268e+43
-6.60014e+42
-4.10095e+42
-2.72439e+42
-1.88993e+42
-1.39666e+42
-1.43104e+42
-2.33074e+42
-3.91195e+41
1.41634e+41
1.78508e+40
2.51243e+39
1.29221e+39
-7.84946e+42
-2.40128e+42
-1.44363e+42
-9.96776e+41
-6.79799e+41
-4.72911e+41
-3.50131e+41
-2.73627e+41
-4.91181e+41
-1.79735e+42
-1.58231e+42
-5.8554e+41
-9.06398e+40
-3.85806e+40
-1.81943e+40
-9.30135e+41
-3.8769e+41
-1.09145e+41
-1.86176e+40
1.53124e+40
2.17448e+40
-2.52157e+40
-6.613e+40
-5.51227e+40
-8.9083e+41
-1.34179e+42
-9.16668e+41
-5.45031e+41
-3.2243e+41
-1.86743e+41
2.3356e+41
8.87821e+40
3.80755e+40
2.09925e+40
1.3619e+40
8.27261e+39
4.03718e+39
8.91096e+38
-1.94461e+39
-1.28866e+40
-1.38909e+41
-2.01424e+41
-1.75975e+41
-1.33332e+41
-9.81153e+40
-1.72768e+40
-6.32093e+39
-3.36661e+39
-2.29977e+39
-1.77782e+39
-1.28591e+39
-4.98181e+38
1.43603e+38
3.80723e+38
1.77278e+39
-3.28504e+39
-6.72409e+39
-6.63996e+39
-5.68012e+39
-4.86051e+39
-3.41395e+38
-1.7002e+38
-1.01002e+37
3.12085e+37
4.68674e+37
4.7287e+37
9.69247e+36
-2.06069e+37
-2.71641e+37
8.34924e+36
6.71911e+38
8.38445e+38
6.84977e+38
5.35492e+38
4.31541e+38
1.91394e+38
6.79836e+37
3.83418e+37
2.8416e+37
2.33282e+37
1.80482e+37
1.08564e+37
3.7025e+36
-6.48431e+36
-2.25612e+37
-9.91125e+36
1.58339e+37
2.37773e+37
2.26488e+37
1.88591e+37
1.12623e+37
5.34834e+36
1.16551e+36
-2.77782e+35
-7.67709e+35
-6.4852e+35
3.2883e+35
1.24381e+36
1.50298e+36
-1.27519e+35
-9.43503e+36
-1.27769e+37
-1.12746e+37
-8.99702e+36
-6.90425e+36
-4.52251e+36
-1.78126e+36
-7.61004e+35
-4.09554e+35
-2.55408e+35
-1.52338e+35
-6.16872e+34
7.77145e+34
4.02724e+35
1.0236e+36
1.68767e+36
1.50528e+36
1.13558e+36
8.49227e+35
6.41022e+35
4.24272e+35
1.58076e+35
8.33624e+34
5.60782e+34
4.11978e+34
2.51635e+34
4.73454e+33
-1.10167e+34
-1.05399e+34
3.59495e+34
1.43464e+35
1.74372e+35
1.51209e+35
1.19683e+35
9.19069e+34
4.15289e+33
1.77252e+33
-7.5379e+32
-1.20358e+33
-1.12835e+33
-5.48004e+32
3.11668e+32
-2.09169e+32
-3.90198e+33
-1.18529e+34
-2.10316e+34
-2.03943e+34
-1.60366e+34
-1.17754e+34
-8.05299e+33
-3.81773e+33
-1.34709e+33
-7.87821e+32
-6.04878e+32
-4.89739e+32
-3.31269e+32
-8.90954e+31
2.35465e+32
5.92599e+32
6.58486e+32
2.80062e+32
-1.3354e+31
2.98761e+31
3.4432e+32
9.67523e+32
-2.81392e+32
-1.2522e+32
-2.09778e+31
1.26314e+31
2.00076e+31
8.57193e+30
-1.7336e+31
-2.83046e+31
1.50896e+31
1.47048e+32
2.97005e+32
3.3162e+32
3.73833e+32
5.54526e+32
9.86293e+32
1.1326e+32
4.43921e+31
1.8231e+31
9.41184e+30
5.58013e+30
3.01991e+30
2.73961e+29
-5.12459e+30
-1.60382e+31
-3.04289e+31
-3.57317e+31
-1.03987e+31
5.75049e+31
2.29816e+32
5.9548e+32
-1.16307e+31
-4.45128e+30
-2.30511e+30
-1.51676e+30
-1.0892e+30
-6.55381e+29
-1.40975e+29
2.6395e+29
1.74593e+29
-1.15255e+30
-3.36837e+30
-2.84745e+30
1.29625e+31
9.88663e+31
3.3119e+32
4.98993e+28
1.28377e+28
4.55334e+28
4.7667e+28
4.08741e+28
2.26542e+28
-1.60178e+27
2.3026e+27
6.74548e+28
1.66155e+29
2.79534e+29
2.06327e+29
7.46064e+29
6.67577e+30
2.83773e+31
8.3558e+28
3.15551e+28
1.80347e+28
1.33156e+28
1.06776e+28
7.83203e+27
3.75316e+27
-2.48113e+27
-2.64022e+28
-1.40086e+29
-2.60587e+29
-4.01493e+29
-6.04461e+29
-7.00294e+29
7.17596e+27
3.9521e+27
2.0133e+27
3.11055e+26
-2.95533e+26
-4.35013e+26
-2.40672e+26
5.24648e+26
1.54238e+27
-1.54478e+28
-1.52019e+29
-2.9794e+29
-4.57317e+29
-6.76431e+29
-1.00094e+30
-1.45416e+30
-1.94441e+27
-8.24121e+26
-3.6192e+26
-1.91044e+26
-1.15432e+26
-4.73227e+25
3.42272e+26
1.1977e+27
-1.75293e+28
-1.80293e+29
-3.4535e+29
-5.29449e+29
-7.80153e+29
-1.13571e+30
-1.62631e+30
1.96061e+26
8.03663e+25
4.43063e+25
2.97607e+25
2.21784e+25
3.80802e+25
3.99979e+26
1.34738e+27
-2.04209e+28
-2.002e+29
-3.79604e+29
-5.93837e+29
-8.85149e+29
-1.29475e+30
-1.85498e+30
7.91074e+23
5.26417e+23
-4.62897e+23
-7.95997e+23
-6.94155e+23
2.1856e+25
4.23584e+26
1.62586e+27
-2.44729e+28
-1.91087e+29
-3.61358e+29
-5.7483e+29
-8.68977e+29
-1.28184e+30
-1.84777e+30
-1.46243e+24
-6.32692e+23
-4.49322e+23
-4.95119e+23
-4.99335e+23
1.99959e+25
4.46486e+26
1.9838e+27
-1.48841e+28
-1.52287e+29
-3.0514e+29
-4.87491e+29
-7.26592e+29
-1.05322e+30
-1.49528e+30
-1.06493e+23
-1.0735e+23
-1.35845e+23
-2.74073e+23
-4.65254e+23
1.68563e+25
4.45332e+26
2.33363e+27
-1.01036e+28
-9.95492e+28
-2.17233e+29
-3.47095e+29
-5.01707e+29
-6.99701e+29
-9.56685e+29
-2.11718e+20
-5.82802e+22
-1.38186e+23
-3.13228e+23
-6.2213e+23
1.35491e+25
4.16324e+26
2.60332e+27
-8.27355e+27
-5.02779e+28
-1.14889e+29
-1.91165e+29
-2.78013e+29
-3.79461e+29
-5.01782e+29
-4.39776e+22
-8.77567e+22
-1.69559e+23
-3.60486e+23
-7.51455e+23
1.12086e+25
3.81548e+26
3.35595e+27
-3.2038e+27
-2.03288e+28
-4.82029e+28
-8.48029e+28
-1.27596e+29
-1.75787e+29
-2.3147e+29
-4.71336e+22
-1.01388e+23
-1.98853e+23
-4.16262e+23
-9.01043e+23
9.49603e+24
3.96038e+26
4.609e+27
3.19242e+27
-3.79508e+27
-1.46408e+28
-2.90903e+28
-4.69061e+28
-6.79096e+28
-9.22389e+28
-5.56972e+22
-1.21292e+23
-2.39425e+23
-4.92845e+23
-1.09002e+24
6.81846e+24
4.18288e+26
4.33114e+27
5.88747e+27
4.28718e+27
1.0616e+27
-3.5267e+27
-9.47255e+27
-1.68659e+28
-2.58592e+28
-6.4913e+22
-1.42918e+23
-2.84084e+23
-5.77509e+23
-1.27214e+24
3.02876e+24
4.66524e+26
3.25767e+27
4.89449e+27
5.40246e+27
5.28833e+27
4.67504e+27
3.60551e+27
2.04197e+27
-1.4229e+26
-7.43424e+22
-1.65215e+23
-3.30244e+23
-6.64942e+23
-1.42979e+24
-5.7502e+23
3.49771e+26
1.78433e+27
2.74158e+27
3.38849e+27
3.84929e+27
4.20221e+27
4.47789e+27
4.6535e+27
4.67222e+27
-8.49412e+22
-1.90475e+23
-3.82944e+23
-7.6529e+23
-1.5872e+24
-2.39467e+24
9.67364e+25
6.64821e+26
1.08547e+27
1.40304e+27
1.67532e+27
1.94452e+27
2.23005e+27
2.52135e+27
2.79868e+27
-9.67613e+22
-2.1932e+23
-4.45168e+23
-8.88842e+23
-1.7833e+24
-2.67935e+24
3.25349e+25
1.52509e+26
2.72504e+26
3.72278e+26
4.62546e+26
5.60033e+26
6.67773e+26
7.82471e+26
9.00991e+26
-1.0919e+23
-2.49578e+23
-5.10722e+23
-1.02365e+24
-2.07168e+24
-3.24244e+24
-2.7522e+23
1.21811e+25
2.90133e+25
4.62289e+25
6.3703e+25
8.2795e+25
1.03939e+26
1.26885e+26
1.51423e+26
-1.20288e+23
-2.81805e+23
-5.92296e+23
-1.20021e+24
-2.33751e+24
-4.04016e+24
-5.79292e+24
-6.56345e+24
-6.2981e+24
-5.47595e+24
-4.31879e+24
-2.92577e+24
-1.29084e+24
6.06082e+23
2.7896e+24
-1.06407e+23
-2.44952e+23
-4.88524e+23
-8.85688e+23
-1.47216e+24
-2.2151e+24
-2.91592e+24
-3.37216e+24
-3.64231e+24
-3.841e+24
-4.00169e+24
-4.1473e+24
-4.27727e+24
-4.37997e+24
-4.44826e+24
-6.89878e+22
-1.5048e+23
-2.72684e+23
-4.3188e+23
-6.07775e+23
-7.77058e+23
-9.08618e+23
-9.83854e+23
-1.02059e+24
-1.0473e+24
-1.07377e+24
-1.09986e+24
-1.12398e+24
-1.14439e+24
-1.16075e+24
-2.86459e+22
-5.94918e+22
-9.85808e+22
-1.40175e+23
-1.76313e+23
-2.04277e+23
-2.22353e+23
-2.30468e+23
-2.31893e+23
-2.30701e+23
-2.2887e+23
-2.2656e+23
-2.23433e+23
-2.19337e+23
-2.14399e+23
-6.6619e+21
-1.4184e+22
-2.19543e+22
-2.89353e+22
-3.41827e+22
-3.77329e+22
-3.97954e+22
-4.06161e+22
-4.06028e+22
-4.01968e+22
-3.96147e+22
-3.88625e+22
-3.79001e+22
-3.67184e+22
-3.53466e+22
3.33474e+20
-8.58691e+20
-1.98863e+21
-2.84745e+21
-3.42235e+21
-3.7908e+21
-4.00502e+21
-4.10985e+21
-4.15331e+21
-4.16447e+21
-4.14906e+21
-4.10455e+21
-4.02946e+21
-3.92552e+21
-3.79499e+21
8.28064e+20
6.84075e+20
4.80239e+20
3.21856e+20
2.02503e+20
1.14342e+20
5.00207e+19
3.1506e+18
-3.13642e+19
-5.70473e+19
-7.61071e+19
-9.00661e+19
-1.00009e+20
-1.06803e+20
-1.10462e+20
3.27521e+20
3.17221e+20
2.6426e+20
2.15884e+20
1.74892e+20
1.41849e+20
1.15533e+20
9.44966e+19
7.82337e+19
6.60403e+19
5.65741e+19
4.8861e+19
4.23923e+19
3.68736e+19
3.22367e+19
7.14867e+19
7.40159e+19
6.45388e+19
5.44746e+19
4.51763e+19
3.72413e+19
3.06663e+19
2.52871e+19
2.10897e+19
1.7891e+19
1.5325e+19
1.31721e+19
1.13352e+19
9.75849e+18
8.41636e+18
8.60479e+18
9.49098e+18
8.70273e+18
7.63779e+18
6.52721e+18
5.49935e+18
4.5985e+18
3.85824e+18
3.28457e+18
2.83296e+18
2.4542e+18
2.12461e+18
1.83519e+18
1.58122e+18
1.35998e+18
4.39001e+17
5.23004e+17
5.08738e+17
4.68711e+17
4.17087e+17
3.64263e+17
3.1502e+17
2.73487e+17
2.40565e+17
2.13184e+17
1.88704e+17
1.66248e+17
1.4566e+17
1.26966e+17
1.10191e+17
-2.86207e+16
-1.90985e+16
-1.34525e+16
-9.59079e+15
-6.79607e+15
-4.74786e+15
-3.24178e+15
-2.13826e+15
-1.33375e+15
-7.48611e+14
-3.24052e+14
-1.94334e+13
1.92626e+14
3.34586e+14
4.15115e+14
-1.45988e+16
-9.6561e+15
-6.25341e+15
-4.38814e+15
-3.25793e+15
-2.51158e+15
-1.99511e+15
-1.63583e+15
-1.37658e+15
-1.17505e+15
-1.00807e+15
-8.64838e+14
-7.40309e+14
-6.31623e+14
-5.38701e+14
-3.70117e+15
-2.60342e+15
-1.62119e+15
-1.04318e+15
-6.9636e+14
-4.82569e+14
-3.47148e+14
-2.59905e+14
-2.01393e+14
-1.59582e+14
-1.2812e+14
-1.03705e+14
-8.44128e+13
-6.89796e+13
-5.67546e+13
-5.24812e+14
-4.1028e+14
-2.7829e+14
-1.89705e+14
-1.3151e+14
-9.35669e+13
-6.87854e+13
-5.23717e+13
-4.08278e+13
-3.22029e+13
-2.55392e+13
-2.03154e+13
-1.61915e+13
-1.29251e+13
-1.03535e+13
-4.44681e+13
-3.3816e+13
-2.33543e+13
-1.64521e+13
-1.17701e+13
-8.64805e+12
-6.59685e+12
-5.2024e+12
-4.17307e+12
-3.36727e+12
-2.72164e+12
-2.20024e+12
-1.77803e+12
-1.4365e+12
-1.16153e+12
-2.9264e+12
-1.90961e+12
-1.07038e+12
-6.61735e+11
-4.3755e+11
-3.0817e+11
-2.30887e+11
-1.80836e+11
-1.4468e+11
-1.16727e+11
-9.45281e+10
-7.66968e+10
-6.22777e+10
-5.06173e+10
-4.11499e+10
2.94254e+11
7.88203e+10
2.24176e+10
6.1382e+09
1.80444e+09
5.96788e+08
3.27678e+08
4.4841e+08
7.06043e+08
9.27382e+08
1.04697e+09
1.07073e+09
1.02721e+09
9.40153e+08
8.50907e+08
1.81024e+11
9.41968e+10
4.49173e+10
2.32891e+10
1.29975e+10
7.73087e+09
4.87484e+09
3.23699e+09
2.23792e+09
1.59082e+09
1.15299e+09
8.48376e+08
6.32111e+08
4.75926e+08
3.65137e+08
2.74116e+10
1.73582e+10
9.56059e+09
5.60746e+09
3.48738e+09
2.29685e+09
1.58762e+09
1.13328e+09
8.24498e+08
6.06072e+08
4.48108e+08
3.32739e+08
2.47974e+08
1.85548e+08
1.39744e+08
1.35049e+09
1.04975e+09
6.71094e+08
4.41032e+08
3.0143e+08
2.14909e+08
1.58596e+08
1.19607e+08
9.09991e+07
6.93412e+07
5.28114e+07
4.01727e+07
3.0505e+07
2.31546e+07
1.76032e+07
-5.35889e+07
-3.09933e+07
-1.47275e+07
-6.88778e+06
-3.08268e+06
-1.18286e+06
-229076
234890
439229
504241
495586
450065
389288
326586
267405
-1.09626e+07
-7.12217e+06
-4.37967e+06
-2.80076e+06
-1.88014e+06
-1.31829e+06
-957985
-713938
-538333
-406929
-307127
-231179
-173626
-130318
-98366.7
-2.23123e+06
-1.12209e+06
-545382
-295702
-176308
-113640
-78045
-56186.5
-41612.6
-31244.1
-23586.5
-17836.1
-13499
-10232
-7828.19
-415426
-229670
-114039
-61498.2
-35864.8
-22329.4
-14651.2
-9993.01
-6976.67
-4931.11
-3509.46
-2510.72
-1805.87
-1307.44
-959.654
-49374.8
-26499.8
-13570.5
-7626.68
-4666.06
-3044.85
-2082.62
-1469.82
-1054.24
-760.78
-549.961
-398.034
-288.814
-210.742
-155.621
-5930.17
-2646.16
-1135.87
-573.477
-328.064
-205.141
-136.771
-95.1662
-67.7816
-48.7868
-35.2817
-25.6021
-18.659
-13.7049
-10.1962
-293.656
-186.28
-85.0314
-45.6311
-26.5906
-16.3647
-10.4604
-6.83989
-4.51788
-2.99794
-1.99905
-1.34217
-0.909186
-0.624316
-0.433799
121.199
45.4597
16.3138
6.27745
2.56069
1.07953
0.462811
0.200218
0.087616
0.0390536
0.0179565
0.00866495
0.00435464
0.00200128
0.00139545
25.2891
12.4385
5.5097
2.73599
1.49076
0.873609
0.541832
0.349979
0.231921
0.156156
0.106351
0.0731292
0.0507567
0.0356009
0.0253537
1.717
0.967914
0.483211
0.266416
0.159019
0.100733
0.0666881
0.0454463
0.0314641
0.0219753
0.0154465
0.0109241
0.00778205
0.0055955
0.00406583
0.0370791
0.0130255
0.00547226
0.00321647
0.00222895
0.00163396
0.00122484
0.000923333
0.000693066
0.000516963
0.000384166
0.000285477
0.000212882
0.000159728
0.000120186
-0.00249078
-0.00173939
-0.00119474
-0.000717592
-0.000445177
-0.000289811
-0.000196902
-0.000137867
-9.81051e-05
-7.0366e-05
-5.07286e-05
-3.67313e-05
-2.67192e-05
-1.95266e-05
-1.43901e-05
-0.0023973
-0.000900577
-0.000339896
-0.000144024
-6.9126e-05
-3.7079e-05
-2.18807e-05
-1.39142e-05
-9.31546e-06
-6.44369e-06
-4.55118e-06
-3.25909e-06
-2.35838e-06
-1.7222e-06
-1.27877e-06
-0.000489564
-0.000216461
-8.69072e-05
-3.96862e-05
-2.02256e-05
-1.1275e-05
-6.73729e-06
-4.22934e-06
-2.74342e-06
-1.82084e-06
-1.22867e-06
-8.38945e-07
-5.78774e-07
-4.03639e-07
-2.856e-07
-4.2169e-05
-1.98564e-05
-8.54531e-06
-4.14936e-06
-2.24925e-06
-1.32814e-06
-8.33912e-07
-5.45075e-07
-3.65339e-07
-2.49242e-07
-1.7232e-07
-1.20286e-07
-8.46547e-08
-6.00648e-08
-4.29488e-08
-3.66832e-06
-1.21859e-06
-4.21281e-07
-1.78448e-07
-9.1197e-08
-5.27378e-08
-3.30264e-08
-2.17113e-08
-1.46911e-08
-1.0141e-08
-7.10532e-09
-5.02952e-09
-3.58905e-09
-2.58038e-09
-1.86462e-09
-3.35133e-07
-1.05282e-07
-2.79263e-08
-1.05883e-08
-4.96221e-09
-2.58298e-09
-1.42752e-09
-8.15222e-10
-4.74035e-10
-2.79279e-10
-1.66261e-10
-9.96e-11
-5.99125e-11
-3.63907e-11
-2.19375e-11
5.94897e-08
1.66607e-08
4.99424e-09
1.47702e-09
4.61568e-10
1.47298e-10