/*--------------------------------*- C++ -*----------------------------------*\
  =========                 |
  \\      /  F ield         | OpenFOAM: The Open Source CFD Toolbox
   \\    /   O peration     | Website:  https://openfoam.org
    \\  /    A nd           | Version:  8
     \\/     M anipulation  |
\*---------------------------------------------------------------------------*/
FoamFile
{
    version     2.0;
    format      ascii;
    class       surfaceScalarField;
    location    "6.1952";
    object      phi;
}
// * * * * * * * * * * * * * * * * * * * * * * * * * * * * * * * * * * * * * //

dimensions      [0 3 -1 0 0 0 0];

internalField   nonuniform List<scalar> 
75200
(
6.15948e-10
6.15948e-10
1.28704e-08
-6.84401e-10
-6.84401e-10
4.53054e-10
6.02449e-10
2.42659e-08
-7.00256e-10
2.37855e-10
5.96764e-10
3.27532e-08
-7.2505e-10
-3.59501e-17
6.18537e-10
3.72775e-08
-7.64413e-10
-2.37855e-10
6.18537e-10
3.72775e-08
-7.64413e-10
-4.53054e-10
5.96764e-10
3.27532e-08
-7.2505e-10
-6.15948e-10
6.02449e-10
2.42659e-08
-7.00256e-10
6.15948e-10
1.28704e-08
-6.84401e-10
-6.84401e-10
6.02449e-10
4.53054e-10
2.42659e-08
-7.00256e-10
4.3184e-10
4.3184e-10
3.44955e-08
2.21318e-10
4.19439e-10
4.2123e-08
-3.77085e-17
4.28342e-10
4.61958e-08
-2.21318e-10
4.28342e-10
4.61958e-08
-4.3184e-10
4.19439e-10
4.2123e-08
-6.02449e-10
4.3184e-10
3.44955e-08
4.53054e-10
2.42659e-08
-7.00256e-10
5.96764e-10
2.37855e-10
3.27532e-08
-7.2505e-10
4.19439e-10
2.21318e-10
4.2123e-08
2.13311e-10
2.13311e-10
4.9125e-08
-4.63058e-17
2.16336e-10
5.28689e-08
-2.13311e-10
2.16336e-10
5.28689e-08
-4.19439e-10
2.13311e-10
4.9125e-08
-5.96764e-10
2.21318e-10
4.2123e-08
2.37855e-10
3.27532e-08
-7.2505e-10
6.18537e-10
-3.18926e-17
3.72775e-08
-7.64413e-10
4.28342e-10
-3.8054e-17
4.61958e-08
2.16336e-10
-5.16895e-17
5.28689e-08
-4.85754e-17
-5.48518e-17
5.64392e-08
-2.16336e-10
-5.5862e-17
5.64392e-08
-4.28342e-10
-5.57962e-17
5.28689e-08
-6.18537e-10
-5.36783e-17
4.61958e-08
-4.58121e-17
3.72775e-08
-7.64413e-10
6.18537e-10
-2.37855e-10
3.72775e-08
-7.64413e-10
4.28342e-10
-2.21318e-10
4.61958e-08
2.16336e-10
-2.13311e-10
5.28689e-08
-4.87833e-17
-2.16336e-10
5.64392e-08
-2.16336e-10
-2.16336e-10
5.64392e-08
-4.28342e-10
-2.13311e-10
5.28689e-08
-6.18537e-10
-2.21319e-10
4.61958e-08
-2.37855e-10
3.72775e-08
-7.64413e-10
5.96764e-10
-4.53054e-10
3.27532e-08
-7.2505e-10
4.19439e-10
-4.3184e-10
4.2123e-08
2.13311e-10
-4.19439e-10
4.9125e-08
-5.0978e-17
-4.28342e-10
5.28689e-08
-2.13311e-10
-4.28342e-10
5.28689e-08
-4.19439e-10
-4.19439e-10
4.9125e-08
-5.96764e-10
-4.3184e-10
4.2123e-08
-4.53054e-10
3.27532e-08
-7.2505e-10
6.02449e-10
-6.15948e-10
2.42659e-08
-7.00256e-10
4.3184e-10
-6.02449e-10
3.44955e-08
2.21318e-10
-5.96764e-10
4.2123e-08
-5.01118e-17
-6.18537e-10
4.61958e-08
-2.21319e-10
-6.18537e-10
4.61958e-08
-4.3184e-10
-5.96764e-10
4.2123e-08
-6.02449e-10
-6.02449e-10
3.44955e-08
-6.15947e-10
2.42659e-08
-7.00256e-10
6.15948e-10
1.28704e-08
-6.84401e-10
-6.84401e-10
4.53054e-10
2.42659e-08
-7.00256e-10
2.37855e-10
3.27532e-08
-7.2505e-10
-4.5395e-17
3.72775e-08
-7.64413e-10
-2.37855e-10
3.72775e-08
-7.64413e-10
-4.53054e-10
3.27532e-08
-7.2505e-10
-6.15947e-10
2.42659e-08
-7.00256e-10
1.28704e-08
-6.84401e-10
-6.84401e-10
1.64241e-09
1.64241e-09
1.3183e-08
-1.7987e-09
-1.7987e-09
1.24071e-09
1.61803e-09
2.48629e-08
-1.81333e-09
6.63639e-10
1.58332e-09
3.35677e-08
-1.82075e-09
1.29441e-17
1.60028e-09
3.82059e-08
-1.86509e-09
-6.63639e-10
1.60028e-09
3.82059e-08
-1.86509e-09
-1.24071e-09
1.58332e-09
3.35677e-08
-1.82075e-09
-1.64241e-09
1.61803e-09
2.48629e-08
-1.81333e-09
1.64241e-09
1.3183e-08
-1.7987e-09
-1.7987e-09
1.61803e-09
1.24071e-09
2.48629e-08
-1.81333e-09
1.20077e-09
1.20077e-09
3.533e-08
6.30084e-10
1.15621e-09
4.31208e-08
4.5892e-18
1.15443e-09
4.72717e-08
-6.30084e-10
1.15443e-09
4.72717e-08
-1.20077e-09
1.15621e-09
4.31208e-08
-1.61803e-09
1.20077e-09
3.533e-08
1.24071e-09
2.48629e-08
-1.81333e-09
1.58332e-09
6.63639e-10
3.35677e-08
-1.82075e-09
1.15621e-09
6.30084e-10
4.31208e-08
6.01509e-10
6.01509e-10
5.02344e-08
5.98397e-18
5.97344e-10
5.40275e-08
-6.01509e-10
5.97344e-10
5.40275e-08
-1.15621e-09
6.01509e-10
5.02344e-08
-1.58332e-09
6.30084e-10
4.31208e-08
6.63639e-10
3.35677e-08
-1.82075e-09
1.60028e-09
1.69933e-17
3.82059e-08
-1.86509e-09
1.15443e-09
5.32866e-18
4.72717e-08
5.97344e-10
5.92015e-18
5.40275e-08
7.749e-18
6.10266e-18
5.76339e-08
-5.97344e-10
7.92952e-18
5.76339e-08
-1.15443e-09
9.32963e-18
5.40275e-08
-1.60028e-09
9.23912e-18
4.72717e-08
9.70377e-18
3.82059e-08
-1.86509e-09
1.60028e-09
-6.63639e-10
3.82059e-08
-1.86509e-09
1.15443e-09
-6.30084e-10
4.72717e-08
5.97344e-10
-6.01509e-10
5.40275e-08
8.94328e-18
-5.97344e-10
5.76339e-08
-5.97344e-10
-5.97344e-10
5.76339e-08
-1.15443e-09
-6.01509e-10
5.40275e-08
-1.60028e-09
-6.30084e-10
4.72717e-08
-6.63639e-10
3.82059e-08
-1.86509e-09
1.58332e-09
-1.24071e-09
3.35677e-08
-1.82075e-09
1.15621e-09
-1.20077e-09
4.31208e-08
6.01509e-10
-1.15621e-09
5.02344e-08
1.05858e-17
-1.15443e-09
5.40275e-08
-6.01509e-10
-1.15443e-09
5.40275e-08
-1.15621e-09
-1.15621e-09
5.02344e-08
-1.58332e-09
-1.20077e-09
4.31208e-08
-1.24071e-09
3.35677e-08
-1.82075e-09
1.61803e-09
-1.64241e-09
2.48629e-08
-1.81333e-09
1.20077e-09
-1.61803e-09
3.533e-08
6.30084e-10
-1.58332e-09
4.31208e-08
7.89479e-18
-1.60028e-09
4.72717e-08
-6.30084e-10
-1.60028e-09
4.72717e-08
-1.20077e-09
-1.58332e-09
4.31208e-08
-1.61803e-09
-1.61803e-09
3.533e-08
-1.64241e-09
2.48629e-08
-1.81333e-09
1.64241e-09
1.3183e-08
-1.7987e-09
-1.7987e-09
1.24071e-09
2.48629e-08
-1.81333e-09
6.63639e-10
3.35677e-08
-1.82075e-09
1.02044e-17
3.82059e-08
-1.86509e-09
-6.63639e-10
3.82059e-08
-1.86509e-09
-1.24071e-09
3.35677e-08
-1.82075e-09
-1.64241e-09
2.48629e-08
-1.81333e-09
1.3183e-08
-1.7987e-09
-1.7987e-09
2.04542e-09
2.04542e-09
1.35559e-08
-2.23186e-09
-2.23186e-09
1.55635e-09
2.004e-09
2.55479e-08
-2.19993e-09
8.32946e-10
1.94904e-09
3.44889e-08
-2.14689e-09
1.55938e-17
1.91748e-09
3.92525e-08
-2.13113e-09
-8.32946e-10
1.91748e-09
3.92525e-08
-2.13113e-09
-1.55635e-09
1.94904e-09
3.44889e-08
-2.14689e-09
-2.04542e-09
2.004e-09
2.55479e-08
-2.19993e-09
2.04542e-09
1.35559e-08
-2.23186e-09
-2.23186e-09
2.004e-09
1.55635e-09
2.55479e-08
-2.19993e-09
1.52032e-09
1.52032e-09
3.62974e-08
8.13953e-10
1.47652e-09
4.42997e-08
1.27927e-17
1.44523e-09
4.85579e-08
-8.13953e-10
1.44523e-09
4.85579e-08
-1.52032e-09
1.47652e-09
4.42997e-08
-2.004e-09
1.52032e-09
3.62974e-08
1.55635e-09
2.55479e-08
-2.19993e-09
1.94904e-09
8.32946e-10
3.44889e-08
-2.14689e-09
1.47652e-09
8.13953e-10
4.42997e-08
7.9332e-10
7.9332e-10
5.16008e-08
1.06162e-17
7.76052e-10
5.549e-08
-7.9332e-10
7.76052e-10
5.549e-08
-1.47652e-09
7.9332e-10
5.16008e-08
-1.94904e-09
8.13953e-10
4.42997e-08
8.32946e-10
3.44889e-08
-2.14689e-09
1.91748e-09
9.28253e-18
3.92525e-08
-2.13113e-09
1.44523e-09
5.05975e-18
4.85579e-08
7.76052e-10
3.7144e-18
5.549e-08
6.60263e-18
-1.23099e-18
5.9186e-08
-7.76052e-10
-2.54644e-18
5.9186e-08
-1.44523e-09
-6.31058e-19
5.549e-08
-1.91748e-09
3.16037e-18
4.85579e-08
8.99578e-18
3.92525e-08
-2.13113e-09
1.91748e-09
-8.32946e-10
3.92525e-08
-2.13113e-09
1.44523e-09
-8.13953e-10
4.85579e-08
7.76052e-10
-7.9332e-10
5.549e-08
4.66521e-18
-7.76052e-10
5.9186e-08
-7.76052e-10
-7.76052e-10
5.9186e-08
-1.44523e-09
-7.9332e-10
5.549e-08
-1.91748e-09
-8.13953e-10
4.85579e-08
-8.32946e-10
3.92525e-08
-2.13113e-09
1.94904e-09
-1.55635e-09
3.44889e-08
-2.14689e-09
1.47652e-09
-1.52032e-09
4.42997e-08
7.9332e-10
-1.47652e-09
5.16008e-08
6.60618e-18
-1.44523e-09
5.549e-08
-7.9332e-10
-1.44523e-09
5.549e-08
-1.47652e-09
-1.47652e-09
5.16008e-08
-1.94904e-09
-1.52032e-09
4.42997e-08
-1.55635e-09
3.44889e-08
-2.14689e-09
2.004e-09
-2.04542e-09
2.55479e-08
-2.19993e-09
1.52032e-09
-2.004e-09
3.62974e-08
8.13953e-10
-1.94904e-09
4.42997e-08
1.0341e-17
-1.91748e-09
4.85579e-08
-8.13953e-10
-1.91748e-09
4.85579e-08
-1.52032e-09
-1.94904e-09
4.42997e-08
-2.004e-09
-2.004e-09
3.62974e-08
-2.04542e-09
2.55479e-08
-2.19993e-09
2.04542e-09
1.35559e-08
-2.23186e-09
-2.23186e-09
1.55635e-09
2.55479e-08
-2.19993e-09
8.32946e-10
3.44889e-08
-2.14689e-09
1.41017e-17
3.92525e-08
-2.13113e-09
-8.32946e-10
3.92525e-08
-2.13113e-09
-1.55635e-09
3.44889e-08
-2.14689e-09
-2.04542e-09
2.55479e-08
-2.19993e-09
1.35559e-08
-2.23186e-09
-2.23186e-09
1.93023e-09
1.93023e-09
1.39138e-08
-2.10918e-09
-2.10918e-09
1.46289e-09
1.85315e-09
2.6196e-08
-2.03395e-09
7.87858e-10
1.80937e-09
3.53428e-08
-1.98823e-09
3.62226e-17
1.76755e-09
4.02198e-08
-1.94697e-09
-7.87858e-10
1.76755e-09
4.02198e-08
-1.94697e-09
-1.46289e-09
1.80937e-09
3.53428e-08
-1.98823e-09
-1.93023e-09
1.85315e-09
2.6196e-08
-2.03395e-09
1.93023e-09
1.39138e-08
-2.10918e-09
-2.10918e-09
1.85315e-09
1.46289e-09
2.6196e-08
-2.03395e-09
1.40772e-09
1.40772e-09
3.71882e-08
7.62442e-10
1.37572e-09
4.53786e-08
4.16513e-17
1.34161e-09
4.97463e-08
-7.62442e-10
1.34161e-09
4.97463e-08
-1.40772e-09
1.37572e-09
4.53786e-08
-1.85315e-09
1.40772e-09
3.71882e-08
1.46289e-09
2.6196e-08
-2.03395e-09
1.80937e-09
7.87858e-10
3.53428e-08
-1.98823e-09
1.37572e-09
7.62442e-10
4.53786e-08
7.46004e-10
7.46004e-10
5.28603e-08
4.83781e-17
7.27289e-10
5.68503e-08
-7.46004e-10
7.27289e-10
5.68503e-08
-1.37572e-09
7.46004e-10
5.28603e-08
-1.80937e-09
7.62442e-10
4.53786e-08
7.87858e-10
3.53428e-08
-1.98823e-09
1.76755e-09
3.71648e-17
4.02198e-08
-1.94697e-09
1.34161e-09
4.49643e-17
4.97463e-08
7.27289e-10
5.4525e-17
5.68503e-08
5.02571e-17
5.67075e-17
6.06406e-08
-7.27289e-10
5.85207e-17
6.06406e-08
-1.34161e-09
5.98355e-17
5.68503e-08
-1.76755e-09
5.55481e-17
4.97463e-08
4.32117e-17
4.02198e-08
-1.94697e-09
1.76755e-09
-7.87858e-10
4.02198e-08
-1.94697e-09
1.34161e-09
-7.62442e-10
4.97463e-08
7.27289e-10
-7.46004e-10
5.68503e-08
5.25694e-17
-7.27289e-10
6.06406e-08
-7.27289e-10
-7.27289e-10
6.06406e-08
-1.34161e-09
-7.46004e-10
5.68503e-08
-1.76755e-09
-7.62442e-10
4.97463e-08
-7.87858e-10
4.02198e-08
-1.94697e-09
1.80937e-09
-1.46289e-09
3.53428e-08
-1.98823e-09
1.37572e-09
-1.40772e-09
4.53786e-08
7.46004e-10
-1.37572e-09
5.28603e-08
5.53021e-17
-1.34161e-09
5.68503e-08
-7.46004e-10
-1.34161e-09
5.68503e-08
-1.37572e-09
-1.37572e-09
5.28603e-08
-1.80937e-09
-1.40772e-09
4.53786e-08
-1.46289e-09
3.53428e-08
-1.98823e-09
1.85315e-09
-1.93023e-09
2.6196e-08
-2.03395e-09
1.40772e-09
-1.85315e-09
3.71882e-08
7.62442e-10
-1.80937e-09
4.53786e-08
5.23839e-17
-1.76755e-09
4.97463e-08
-7.62442e-10
-1.76755e-09
4.97463e-08
-1.40772e-09
-1.80937e-09
4.53786e-08
-1.85315e-09
-1.85315e-09
3.71882e-08
-1.93023e-09
2.6196e-08
-2.03395e-09
1.93023e-09
1.39138e-08
-2.10918e-09
-2.10918e-09
1.46289e-09
2.6196e-08
-2.03395e-09
7.87858e-10
3.53428e-08
-1.98823e-09
4.31936e-17
4.02198e-08
-1.94697e-09
-7.87858e-10
4.02198e-08
-1.94697e-09
-1.46289e-09
3.53428e-08
-1.98823e-09
-1.93023e-09
2.6196e-08
-2.03395e-09
1.39138e-08
-2.10918e-09
-2.10918e-09
1.71161e-09
1.71161e-09
1.42347e-08
-1.87207e-09
-1.87207e-09
1.28636e-09
1.62482e-09
2.67845e-08
-1.78807e-09
6.88341e-10
1.58181e-09
3.61161e-08
-1.75708e-09
4.27373e-18
1.55021e-09
4.10861e-08
-1.72819e-09
-6.88341e-10
1.55021e-09
4.10861e-08
-1.72819e-09
-1.28636e-09
1.58181e-09
3.61161e-08
-1.75708e-09
-1.71161e-09
1.62482e-09
2.67845e-08
-1.78807e-09
1.71161e-09
1.42347e-08
-1.87207e-09
-1.87207e-09
1.62482e-09
1.28636e-09
2.67845e-08
-1.78807e-09
1.22034e-09
1.22034e-09
3.79972e-08
6.51812e-10
1.18828e-09
4.63407e-08
4.30181e-18
1.16045e-09
5.07878e-08
-6.51812e-10
1.16045e-09
5.07878e-08
-1.22034e-09
1.18828e-09
4.63407e-08
-1.62482e-09
1.22034e-09
3.79972e-08
1.28636e-09
2.67845e-08
-1.78807e-09
1.58181e-09
6.88341e-10
3.61161e-08
-1.75708e-09
1.18828e-09
6.51812e-10
4.63407e-08
6.38397e-10
6.38397e-10
5.396e-08
4.33256e-18
6.24071e-10
5.80251e-08
-6.38397e-10
6.24071e-10
5.80251e-08
-1.18828e-09
6.38397e-10
5.396e-08
-1.58181e-09
6.51812e-10
4.63407e-08
6.88341e-10
3.61161e-08
-1.75708e-09
1.55021e-09
8.5175e-18
4.10861e-08
-1.72819e-09
1.16045e-09
9.38703e-18
5.07878e-08
6.24071e-10
1.36184e-17
5.80251e-08
4.53653e-18
1.38972e-17
6.18887e-08
-6.24071e-10
1.39606e-17
6.18887e-08
-1.16045e-09
1.27141e-17
5.80251e-08
-1.55021e-09
8.74147e-18
5.07878e-08
5.54601e-18
4.10861e-08
-1.72819e-09
1.55021e-09
-6.88341e-10
4.10861e-08
-1.72819e-09
1.16045e-09
-6.51812e-10
5.07878e-08
6.24071e-10
-6.38397e-10
5.80251e-08
3.46963e-18
-6.24071e-10
6.18887e-08
-6.24071e-10
-6.24071e-10
6.18887e-08
-1.16045e-09
-6.38397e-10
5.80251e-08
-1.55021e-09
-6.51812e-10
5.07878e-08
-6.88341e-10
4.10861e-08
-1.72819e-09
1.58181e-09
-1.28636e-09
3.61161e-08
-1.75708e-09
1.18828e-09
-1.22034e-09
4.63407e-08
6.38397e-10
-1.18828e-09
5.396e-08
4.35938e-18
-1.16045e-09
5.80251e-08
-6.38397e-10
-1.16045e-09
5.80251e-08
-1.18828e-09
-1.18828e-09
5.396e-08
-1.58181e-09
-1.22034e-09
4.63407e-08
-1.28636e-09
3.61161e-08
-1.75708e-09
1.62482e-09
-1.71161e-09
2.67845e-08
-1.78807e-09
1.22034e-09
-1.62482e-09
3.79972e-08
6.51812e-10
-1.58181e-09
4.63407e-08
1.32415e-18
-1.55021e-09
5.07878e-08
-6.51812e-10
-1.55021e-09
5.07878e-08
-1.22034e-09
-1.58181e-09
4.63407e-08
-1.62482e-09
-1.62482e-09
3.79972e-08
-1.71161e-09
2.67845e-08
-1.78807e-09
1.71161e-09
1.42347e-08
-1.87207e-09
-1.87207e-09
1.28636e-09
2.67845e-08
-1.78807e-09
6.88341e-10
3.61161e-08
-1.75708e-09
-7.13744e-19
4.10861e-08
-1.72819e-09
-6.88341e-10
4.10861e-08
-1.72819e-09
-1.28636e-09
3.61161e-08
-1.75708e-09
-1.71161e-09
2.67845e-08
-1.78807e-09
1.42347e-08
-1.87207e-09
-1.87207e-09
1.54562e-09
1.54562e-09
1.45113e-08
-1.68392e-09
-1.68392e-09
1.16522e-09
1.46645e-09
2.7302e-08
-1.60355e-09
6.26115e-10
1.42473e-09
3.68089e-08
-1.57846e-09
-3.67273e-18
1.40055e-09
4.18701e-08
-1.55845e-09
-6.26115e-10
1.40055e-09
4.18701e-08
-1.55845e-09
-1.16522e-09
1.42473e-09
3.68089e-08
-1.57846e-09
-1.54562e-09
1.46645e-09
2.7302e-08
-1.60355e-09
1.54562e-09
1.45113e-08
-1.68392e-09
-1.68392e-09
1.46645e-09
1.16522e-09
2.7302e-08
-1.60355e-09
1.10324e-09
1.10324e-09
3.87236e-08
5.87943e-10
1.06683e-09
4.72138e-08
-2.59274e-18
1.0421e-09
5.17342e-08
-5.87943e-10
1.0421e-09
5.17342e-08
-1.10324e-09
1.06683e-09
4.72138e-08
-1.46645e-09
1.10324e-09
3.87236e-08
1.16522e-09
2.7302e-08
-1.60355e-09
1.42473e-09
6.26115e-10
3.68089e-08
-1.57846e-09
1.06683e-09
5.87943e-10
4.72138e-08
5.69061e-10
5.69061e-10
5.49556e-08
-2.22706e-18
5.55187e-10
5.90811e-08
-5.69061e-10
5.55187e-10
5.90811e-08
-1.06683e-09
5.69061e-10
5.49556e-08
-1.42473e-09
5.87943e-10
4.72138e-08
6.26115e-10
3.68089e-08
-1.57846e-09
1.40055e-09
-9.77299e-18
4.18701e-08
-1.55845e-09
1.0421e-09
-5.98603e-18
5.17342e-08
5.55187e-10
-6.35817e-18
5.90811e-08
-3.60128e-18
-8.0292e-18
6.29991e-08
-5.55187e-10
-8.2708e-18
6.29991e-08
-1.0421e-09
-9.19038e-18
5.90811e-08
-1.40055e-09
-9.98782e-18
5.17342e-08
-1.08924e-17
4.18701e-08
-1.55845e-09
1.40055e-09
-6.26115e-10
4.18701e-08
-1.55845e-09
1.0421e-09
-5.87943e-10
5.17342e-08
5.55187e-10
-5.69061e-10
5.90811e-08
-3.33597e-18
-5.55187e-10
6.29991e-08
-5.55187e-10
-5.55187e-10
6.29991e-08
-1.0421e-09
-5.69061e-10
5.90811e-08
-1.40055e-09
-5.87943e-10
5.17342e-08
-6.26115e-10
4.18701e-08
-1.55845e-09
1.42473e-09
-1.16522e-09
3.68089e-08
-1.57846e-09
1.06683e-09
-1.10324e-09
4.72138e-08
5.69061e-10
-1.06683e-09
5.49556e-08
-5.08123e-18
-1.0421e-09
5.90811e-08
-5.69061e-10
-1.0421e-09
5.90811e-08
-1.06683e-09
-1.06683e-09
5.49556e-08
-1.42473e-09
-1.10324e-09
4.72138e-08
-1.16522e-09
3.68089e-08
-1.57846e-09
1.46645e-09
-1.54562e-09
2.7302e-08
-1.60355e-09
1.10324e-09
-1.46645e-09
3.87236e-08
5.87943e-10
-1.42473e-09
4.72138e-08
-5.36896e-18
-1.40055e-09
5.17342e-08
-5.87943e-10
-1.40055e-09
5.17342e-08
-1.10324e-09
-1.42473e-09
4.72138e-08
-1.46645e-09
-1.46645e-09
3.87236e-08
-1.54562e-09
2.7302e-08
-1.60355e-09
1.54562e-09
1.45113e-08
-1.68392e-09
-1.68392e-09
1.16522e-09
2.7302e-08
-1.60355e-09
6.26115e-10
3.68089e-08
-1.57846e-09
-6.86916e-18
4.18701e-08
-1.55845e-09
-6.26115e-10
4.18701e-08
-1.55845e-09
-1.16522e-09
3.68089e-08
-1.57846e-09
-1.54562e-09
2.7302e-08
-1.60355e-09
1.45113e-08
-1.68392e-09
-1.68392e-09
1.38688e-09
1.38688e-09
1.47472e-08
-1.50482e-09
-1.50482e-09
1.0504e-09
1.32284e-09
2.77469e-08
-1.43125e-09
5.68204e-10
1.28899e-09
3.74103e-08
-1.40819e-09
9.37299e-18
1.26795e-09
4.25561e-08
-1.38567e-09
-5.68204e-10
1.26795e-09
4.25561e-08
-1.38567e-09
-1.0504e-09
1.28899e-09
3.74103e-08
-1.40819e-09
-1.38688e-09
1.32284e-09
2.77469e-08
-1.43125e-09
1.38688e-09
1.47472e-08
-1.50482e-09
-1.50482e-09
1.32284e-09
1.0504e-09
2.77469e-08
-1.43125e-09
1.00578e-09
1.00578e-09
3.93577e-08
5.41393e-10
9.77417e-10
4.79898e-08
1.12081e-17
9.58177e-10
5.25854e-08
-5.41393e-10
9.58177e-10
5.25854e-08
-1.00578e-09
9.77417e-10
4.79898e-08
-1.32284e-09
1.00578e-09
3.93577e-08
1.0504e-09
2.77469e-08
-1.43125e-09
1.28899e-09
5.68204e-10
3.74103e-08
-1.40819e-09
9.77417e-10
5.41393e-10
4.79898e-08
5.25618e-10
5.25618e-10
5.58592e-08
1.14229e-17
5.14617e-10
6.00502e-08
-5.25618e-10
5.14617e-10
6.00502e-08
-9.77417e-10
5.25618e-10
5.58592e-08
-1.28899e-09
5.41393e-10
4.79898e-08
5.68204e-10
3.74103e-08
-1.40819e-09
1.26795e-09
1.15365e-17
4.25561e-08
-1.38567e-09
9.58177e-10
1.20101e-17
5.25854e-08
5.14617e-10
1.28236e-17
6.00502e-08
1.18055e-17
1.25553e-17
6.40284e-08
-5.14617e-10
1.12474e-17
6.40284e-08
-9.58177e-10
8.40628e-18
6.00502e-08
-1.26795e-09
6.32132e-18
5.25854e-08
6.2811e-18
4.25561e-08
-1.38567e-09
1.26795e-09
-5.68204e-10
4.25561e-08
-1.38567e-09
9.58177e-10
-5.41393e-10
5.25854e-08
5.14617e-10
-5.25618e-10
6.00502e-08
9.94215e-18
-5.14617e-10
6.40284e-08
-5.14617e-10
-5.14617e-10
6.40284e-08
-9.58177e-10
-5.25618e-10
6.00502e-08
-1.26795e-09
-5.41393e-10
5.25854e-08
-5.68204e-10
4.25561e-08
-1.38567e-09
1.28899e-09
-1.0504e-09
3.74103e-08
-1.40819e-09
9.77417e-10
-1.00578e-09
4.79898e-08
5.25618e-10
-9.77417e-10
5.58592e-08
7.881e-18
-9.58177e-10
6.00502e-08
-5.25618e-10
-9.58177e-10
6.00502e-08
-9.77417e-10
-9.77417e-10
5.58592e-08
-1.28899e-09
-1.00578e-09
4.79898e-08
-1.0504e-09
3.74103e-08
-1.40819e-09
1.32284e-09
-1.38688e-09
2.77469e-08
-1.43125e-09
1.00578e-09
-1.32284e-09
3.93577e-08
5.41393e-10
-1.28899e-09
4.79898e-08
4.74679e-18
-1.26795e-09
5.25854e-08
-5.41393e-10
-1.26795e-09
5.25854e-08
-1.00578e-09
-1.28899e-09
4.79898e-08
-1.32284e-09
-1.32284e-09
3.93577e-08
-1.38688e-09
2.77469e-08
-1.43125e-09
1.38688e-09
1.47472e-08
-1.50482e-09
-1.50482e-09
1.0504e-09
2.77469e-08
-1.43125e-09
5.68204e-10
3.74103e-08
-1.40819e-09
5.17466e-18
4.25561e-08
-1.38567e-09
-5.68204e-10
4.25561e-08
-1.38567e-09
-1.0504e-09
3.74103e-08
-1.40819e-09
-1.38688e-09
2.77469e-08
-1.43125e-09
1.47472e-08
-1.50482e-09
-1.50482e-09
1.20962e-09
1.20962e-09
1.49488e-08
-1.31046e-09
-1.31046e-09
9.16381e-10
1.15633e-09
2.81271e-08
-1.24328e-09
4.96623e-10
1.12955e-09
3.79238e-08
-1.2233e-09
-8.54448e-18
1.11049e-09
4.31418e-08
-1.19965e-09
-4.96623e-10
1.11049e-09
4.31418e-08
-1.19965e-09
-9.16381e-10
1.12955e-09
3.79238e-08
-1.2233e-09
-1.20962e-09
1.15633e-09
2.81271e-08
-1.24328e-09
1.20962e-09
1.49488e-08
-1.31046e-09
-1.31046e-09
1.15633e-09
9.16381e-10
2.81271e-08
-1.24328e-09
8.84526e-10
8.84526e-10
3.99013e-08
4.78945e-10
8.65557e-10
4.86594e-08
-1.06537e-17
8.50355e-10
5.33245e-08
-4.78945e-10
8.50355e-10
5.33245e-08
-8.84526e-10
8.65557e-10
4.86594e-08
-1.15633e-09
8.84526e-10
3.99013e-08
9.16381e-10
2.81271e-08
-1.24328e-09
1.12955e-09
4.96623e-10
3.79238e-08
-1.2233e-09
8.65557e-10
4.78945e-10
4.86594e-08
4.69752e-10
4.69752e-10
5.66508e-08
-1.27226e-17
4.61582e-10
6.09088e-08
-4.69752e-10
4.61582e-10
6.09088e-08
-8.65557e-10
4.69752e-10
5.66508e-08
-1.12955e-09
4.78945e-10
4.86594e-08
4.96623e-10
3.79238e-08
-1.2233e-09
1.11049e-09
-1.17407e-17
4.31418e-08
-1.19965e-09
8.50355e-10
-1.14793e-17
5.33245e-08
4.61582e-10
-1.38913e-17
6.09088e-08
-1.54772e-17
-1.60032e-17
6.49515e-08
-4.61582e-10
-1.68483e-17
6.49515e-08
-8.50355e-10
-1.61126e-17
6.09088e-08
-1.11049e-09
-1.27848e-17
5.33245e-08
-8.67156e-18
4.31418e-08
-1.19965e-09
1.11049e-09
-4.96623e-10
4.31418e-08
-1.19965e-09
8.50355e-10
-4.78945e-10
5.33245e-08
4.61582e-10
-4.69752e-10
6.09088e-08
-1.65934e-17
-4.61582e-10
6.49515e-08
-4.61582e-10
-4.61582e-10
6.49515e-08
-8.50355e-10
-4.69752e-10
6.09088e-08
-1.11049e-09
-4.78945e-10
5.33245e-08
-4.96623e-10
4.31418e-08
-1.19965e-09
1.12955e-09
-9.16381e-10
3.79238e-08
-1.2233e-09
8.65557e-10
-8.84526e-10
4.86594e-08
4.69752e-10
-8.65557e-10
5.66508e-08
-1.68694e-17
-8.50355e-10
6.09088e-08
-4.69752e-10
-8.50355e-10
6.09088e-08
-8.65557e-10
-8.65557e-10
5.66508e-08
-1.12955e-09
-8.84526e-10
4.86594e-08
-9.16381e-10
3.79238e-08
-1.2233e-09
1.15633e-09
-1.20962e-09
2.81271e-08
-1.24328e-09
8.84526e-10
-1.15633e-09
3.99013e-08
4.78945e-10
-1.12955e-09
4.86594e-08
-1.26578e-17
-1.11049e-09
5.33245e-08
-4.78945e-10
-1.11049e-09
5.33245e-08
-8.84526e-10
-1.12955e-09
4.86594e-08
-1.15633e-09
-1.15633e-09
3.99013e-08
-1.20962e-09
2.81271e-08
-1.24328e-09
1.20962e-09
1.49488e-08
-1.31046e-09
-1.31046e-09
9.16381e-10
2.81271e-08
-1.24328e-09
4.96623e-10
3.79238e-08
-1.2233e-09
-9.75267e-18
4.31418e-08
-1.19965e-09
-4.96623e-10
4.31418e-08
-1.19965e-09
-9.16381e-10
3.79238e-08
-1.2233e-09
-1.20962e-09
2.81271e-08
-1.24328e-09
1.49488e-08
-1.31046e-09
-1.31046e-09
1.05015e-09
1.05015e-09
1.51245e-08
-1.138e-09
-1.138e-09
7.93849e-10
1.00193e-09
2.84585e-08
-1.07706e-09
4.29388e-10
9.77833e-10
3.83707e-08
-1.06022e-09
2.22332e-17
9.61404e-10
4.36504e-08
-1.04055e-09
-4.29388e-10
9.61404e-10
4.36504e-08
-1.04055e-09
-7.93849e-10
9.77833e-10
3.83707e-08
-1.06022e-09
-1.05015e-09
1.00193e-09
2.84585e-08
-1.07706e-09
1.05015e-09
1.51245e-08
-1.138e-09
-1.138e-09
1.00193e-09
7.93849e-10
2.84585e-08
-1.07706e-09
7.65367e-10
7.65367e-10
4.03745e-08
4.13377e-10
7.49342e-10
4.92399e-08
2.58397e-17
7.35584e-10
5.39637e-08
-4.13377e-10
7.35584e-10
5.39637e-08
-7.65367e-10
7.49342e-10
4.92399e-08
-1.00193e-09
7.65367e-10
4.03745e-08
7.93849e-10
2.84585e-08
-1.07706e-09
9.77833e-10
4.29388e-10
3.83707e-08
-1.06022e-09
7.49342e-10
4.13377e-10
4.92399e-08
4.07018e-10
4.07018e-10
5.73354e-08
3.01327e-17
4.00106e-10
6.16513e-08
-4.07017e-10
4.00106e-10
6.16513e-08
-7.49342e-10
4.07018e-10
5.73354e-08
-9.77833e-10
4.13377e-10
4.92399e-08
4.29388e-10
3.83707e-08
-1.06022e-09
9.61404e-10
2.17782e-17
4.36504e-08
-1.04055e-09
7.35584e-10
2.44436e-17
5.39637e-08
4.00106e-10
2.76011e-17
6.16513e-08
3.22113e-17
2.99755e-17
6.57517e-08
-4.00106e-10
3.06086e-17
6.57517e-08
-7.35584e-10
2.94075e-17
6.16513e-08
-9.61404e-10
2.58345e-17
5.39637e-08
2.07964e-17
4.36504e-08
-1.04055e-09
9.61404e-10
-4.29388e-10
4.36504e-08
-1.04055e-09
7.35584e-10
-4.13377e-10
5.39637e-08
4.00106e-10
-4.07017e-10
6.16513e-08
3.37067e-17
-4.00106e-10
6.57517e-08
-4.00106e-10
-4.00106e-10
6.57517e-08
-7.35584e-10
-4.07017e-10
6.16513e-08
-9.61404e-10
-4.13377e-10
5.39637e-08
-4.29388e-10
4.36504e-08
-1.04055e-09
9.77833e-10
-7.93849e-10
3.83707e-08
-1.06022e-09
7.49342e-10
-7.65367e-10
4.92399e-08
4.07018e-10
-7.49342e-10
5.73354e-08
3.25813e-17
-7.35584e-10
6.16513e-08
-4.07017e-10
-7.35584e-10
6.16513e-08
-7.49342e-10
-7.49342e-10
5.73354e-08
-9.77833e-10
-7.65367e-10
4.92399e-08
-7.93849e-10
3.83707e-08
-1.06022e-09
1.00193e-09
-1.05015e-09
2.84585e-08
-1.07706e-09
7.65367e-10
-1.00193e-09
4.03745e-08
4.13377e-10
-9.77833e-10
4.92399e-08
2.90951e-17
-9.61404e-10
5.39637e-08
-4.13377e-10
-9.61404e-10
5.39637e-08
-7.65367e-10
-9.77833e-10
4.92399e-08
-1.00193e-09
-1.00193e-09
4.03745e-08
-1.05015e-09
2.84585e-08
-1.07706e-09
1.05015e-09
1.51245e-08
-1.138e-09
-1.138e-09
7.93849e-10
2.84585e-08
-1.07706e-09
4.29388e-10
3.83707e-08
-1.06022e-09
2.48993e-17
4.36504e-08
-1.04055e-09
-4.29388e-10
4.36504e-08
-1.04055e-09
-7.93849e-10
3.83707e-08
-1.06022e-09
-1.05015e-09
2.84585e-08
-1.07706e-09
1.51245e-08
-1.138e-09
-1.138e-09
9.3292e-10
9.3292e-10
1.52816e-08
-1.01147e-09
-1.01147e-09
7.04285e-10
8.8787e-10
2.87557e-08
-9.56393e-10
3.80322e-10
8.64622e-10
3.87718e-08
-9.41753e-10
-2.85415e-18
8.51619e-10
4.41066e-08
-9.27544e-10
-3.80322e-10
8.51619e-10
4.41066e-08
-9.27544e-10
-7.04285e-10
8.64622e-10
3.87718e-08
-9.41753e-10
-9.3292e-10
8.8787e-10
2.87557e-08
-9.56393e-10
9.3292e-10
1.52816e-08
-1.01147e-09
-1.01147e-09
8.8787e-10
7.04285e-10
2.87557e-08
-9.56393e-10
6.75869e-10
6.75869e-10
4.07985e-08
3.63172e-10
6.59162e-10
4.9758e-08
-4.62299e-18
6.46274e-10
5.45322e-08
-3.63172e-10
6.46274e-10
5.45322e-08
-6.75869e-10
6.59162e-10
4.9758e-08
-8.8787e-10
6.75869e-10
4.07985e-08
7.04285e-10
2.87557e-08
-9.56393e-10
8.64622e-10
3.80322e-10
3.87718e-08
-9.41753e-10
6.59162e-10
3.63172e-10
4.9758e-08
3.56213e-10
3.56213e-10
5.79413e-08
-7.35452e-18
3.49364e-10
6.23044e-08
-3.56213e-10
3.49364e-10
6.23044e-08
-6.59162e-10
3.56213e-10
5.79413e-08
-8.64622e-10
3.63172e-10
4.9758e-08
3.80322e-10
3.87718e-08
-9.41753e-10
8.51619e-10
-5.24286e-18
4.41066e-08
-9.27544e-10
6.46274e-10
-5.18e-18
5.45322e-08
3.49364e-10
-5.66127e-18
6.23044e-08
-9.97565e-18
-7.71144e-18
6.64505e-08
-3.49364e-10
-9.03122e-18
6.64505e-08
-6.46274e-10
-8.18695e-18
6.23044e-08
-8.51619e-10
-5.93883e-18
5.45322e-08
-2.59909e-18
4.41066e-08
-9.27544e-10
8.51619e-10
-3.80322e-10
4.41066e-08
-9.27544e-10
6.46274e-10
-3.63172e-10
5.45322e-08
3.49364e-10
-3.56213e-10
6.23044e-08
-1.21798e-17
-3.49364e-10
6.64505e-08
-3.49364e-10
-3.49364e-10
6.64505e-08
-6.46274e-10
-3.56213e-10
6.23044e-08
-8.51619e-10
-3.63172e-10
5.45322e-08
-3.80322e-10
4.41066e-08
-9.27544e-10
8.64622e-10
-7.04285e-10
3.87718e-08
-9.41753e-10
6.59162e-10
-6.75869e-10
4.9758e-08
3.56213e-10
-6.59162e-10
5.79413e-08
-1.09004e-17
-6.46274e-10
6.23044e-08
-3.56213e-10
-6.46274e-10
6.23044e-08
-6.59162e-10
-6.59162e-10
5.79413e-08
-8.64622e-10
-6.75869e-10
4.9758e-08
-7.04285e-10
3.87718e-08
-9.41753e-10
8.8787e-10
-9.3292e-10
2.87557e-08
-9.56393e-10
6.75869e-10
-8.8787e-10
4.07985e-08
3.63172e-10
-8.64622e-10
4.9758e-08
-8.18494e-18
-8.51619e-10
5.45322e-08
-3.63172e-10
-8.51619e-10
5.45322e-08
-6.75869e-10
-8.64622e-10
4.9758e-08
-8.8787e-10
-8.8787e-10
4.07985e-08
-9.3292e-10
2.87557e-08
-9.56393e-10
9.3292e-10
1.52816e-08
-1.01147e-09
-1.01147e-09
7.04285e-10
2.87557e-08
-9.56393e-10
3.80322e-10
3.87718e-08
-9.41753e-10
-5.38129e-18
4.41066e-08
-9.27544e-10
-3.80322e-10
4.41066e-08
-9.27544e-10
-7.04285e-10
3.87718e-08
-9.41753e-10
-9.3292e-10
2.87557e-08
-9.56393e-10
1.52816e-08
-1.01147e-09
-1.01147e-09
8.57192e-10
8.57192e-10
1.54258e-08
-9.29279e-10
-9.29279e-10
6.47623e-10
8.15796e-10
2.90288e-08
-8.79324e-10
3.49857e-10
7.93873e-10
3.9141e-08
-8.6535e-10
1.58629e-17
7.84039e-10
4.4527e-08
-8.54573e-10
-3.49857e-10
7.84039e-10
4.4527e-08
-8.54573e-10
-6.47623e-10
7.93873e-10
3.9141e-08
-8.6535e-10
-8.57192e-10
8.15796e-10
2.90288e-08
-8.79324e-10
8.57192e-10
1.54258e-08
-9.29279e-10
-9.29279e-10
8.15796e-10
6.47623e-10
2.90288e-08
-8.79324e-10
6.20686e-10
6.20686e-10
4.11887e-08
3.3331e-10
6.04078e-10
5.02352e-08
1.74719e-17
5.94078e-10
5.50555e-08
-3.3331e-10
5.94078e-10
5.50555e-08
-6.20686e-10
6.04078e-10
5.02352e-08
-8.15796e-10
6.20686e-10
4.11887e-08
6.47623e-10
2.90288e-08
-8.79324e-10
7.93873e-10
3.49857e-10
3.9141e-08
-8.6535e-10
6.04078e-10
3.3331e-10
5.02352e-08
3.25473e-10
3.25473e-10
5.84985e-08
2.13146e-17
3.19955e-10
6.2904e-08
-3.25473e-10
3.19955e-10
6.2904e-08
-6.04078e-10
3.25473e-10
5.84985e-08
-7.93873e-10
3.3331e-10
5.02352e-08
3.49857e-10
3.9141e-08
-8.6535e-10
7.84039e-10
1.1494e-17
4.4527e-08
-8.54573e-10
5.94078e-10
1.3692e-17
5.50555e-08
3.19955e-10
1.54744e-17
6.2904e-08
2.21493e-17
1.69186e-17
6.70904e-08
-3.19955e-10
1.82518e-17
6.70904e-08
-5.94078e-10
1.853e-17
6.2904e-08
-7.84039e-10
1.67893e-17
5.50555e-08
1.3939e-17
4.4527e-08
-8.54573e-10
7.84039e-10
-3.49857e-10
4.4527e-08
-8.54573e-10
5.94078e-10
-3.3331e-10
5.50555e-08
3.19955e-10
-3.25473e-10
6.2904e-08
2.43544e-17
-3.19955e-10
6.70904e-08
-3.19955e-10
-3.19955e-10
6.70904e-08
-5.94078e-10
-3.25473e-10
6.2904e-08
-7.84039e-10
-3.3331e-10
5.50555e-08
-3.49857e-10
4.4527e-08
-8.54573e-10
7.93873e-10
-6.47623e-10
3.9141e-08
-8.6535e-10
6.04078e-10
-6.20686e-10
5.02352e-08
3.25473e-10
-6.04078e-10
5.84985e-08
2.34748e-17
-5.94078e-10
6.2904e-08
-3.25473e-10
-5.94078e-10
6.2904e-08
-6.04078e-10
-6.04078e-10
5.84985e-08
-7.93873e-10
-6.20686e-10
5.02352e-08
-6.47623e-10
3.9141e-08
-8.6535e-10
8.15796e-10
-8.57192e-10
2.90288e-08
-8.79324e-10
6.20686e-10
-8.15796e-10
4.11887e-08
3.33311e-10
-7.93873e-10
5.02352e-08
2.25602e-17
-7.84039e-10
5.50555e-08
-3.3331e-10
-7.84039e-10
5.50555e-08
-6.20686e-10
-7.93873e-10
5.02352e-08
-8.15796e-10
-8.15796e-10
4.11887e-08
-8.57192e-10
2.90288e-08
-8.79324e-10
8.57192e-10
1.54258e-08
-9.29279e-10
-9.29279e-10
6.47623e-10
2.90288e-08
-8.79324e-10
3.49857e-10
3.9141e-08
-8.6535e-10
2.03984e-17
4.4527e-08
-8.54573e-10
-3.49857e-10
4.4527e-08
-8.54573e-10
-6.47623e-10
3.9141e-08
-8.6535e-10
-8.57192e-10
2.90288e-08
-8.79324e-10
1.54258e-08
-9.29279e-10
-9.29279e-10
8.02693e-10
8.02693e-10
1.55606e-08
-8.70094e-10
-8.70094e-10
6.07189e-10
7.64907e-10
2.92839e-08
-8.24535e-10
3.28263e-10
7.44352e-10
3.9486e-08
-8.10403e-10
5.64349e-18
7.3593e-10
4.492e-08
-8.00617e-10
-3.28263e-10
7.3593e-10
4.492e-08
-8.00617e-10
-6.07189e-10
7.44352e-10
3.9486e-08
-8.10403e-10
-8.02693e-10
7.64907e-10
2.92839e-08
-8.24535e-10
8.02693e-10
1.55606e-08
-8.70094e-10
-8.70094e-10
7.64907e-10
6.07189e-10
2.92839e-08
-8.24535e-10
5.82602e-10
5.82602e-10
4.15533e-08
3.13493e-10
5.6697e-10
5.06817e-08
6.22729e-18
5.59166e-10
5.55457e-08
-3.13493e-10
5.59166e-10
5.55457e-08
-5.82602e-10
5.6697e-10
5.06817e-08
-7.64907e-10
5.82602e-10
4.15533e-08
6.07189e-10
2.92839e-08
-8.24535e-10
7.44352e-10
3.28263e-10
3.9486e-08
-8.10403e-10
5.6697e-10
3.13493e-10
5.06817e-08
3.05612e-10
3.05612e-10
5.90212e-08
4.71777e-18
3.01306e-10
6.34675e-08
-3.05612e-10
3.01306e-10
6.34675e-08
-5.6697e-10
3.05612e-10
5.90212e-08
-7.44352e-10
3.13493e-10
5.06817e-08
3.28263e-10
3.9486e-08
-8.10403e-10
7.3593e-10
3.0872e-18
4.492e-08
-8.00617e-10
5.59166e-10
2.89906e-18
5.55457e-08
3.01306e-10
3.07886e-18
6.34675e-08
2.82765e-18