/*--------------------------------*- C++ -*----------------------------------*\
  =========                 |
  \\      /  F ield         | OpenFOAM: The Open Source CFD Toolbox
   \\    /   O peration     | Website:  https://openfoam.org
    \\  /    A nd           | Version:  8
     \\/     M anipulation  |
\*---------------------------------------------------------------------------*/
FoamFile
{
    version     2.0;
    format      ascii;
    class       volVectorField;
    location    "6.1952";
    object      U;
}
// * * * * * * * * * * * * * * * * * * * * * * * * * * * * * * * * * * * * * //

dimensions      [0 1 -1 0 0 0 0];

internalField   nonuniform List<vector> 
25600
(
(-0.00039389 -0.00039389 0.0568161)
(-0.000302964 -0.000402354 0.0568158)
(-0.000179449 -0.000402557 0.0568144)
(-6.13842e-05 -0.000404597 0.0568134)
(6.13842e-05 -0.000404597 0.0568134)
(0.000179449 -0.000402557 0.0568144)
(0.000302964 -0.000402354 0.0568158)
(0.00039389 -0.00039389 0.0568161)
(-0.000402354 -0.000302964 0.0568158)
(-0.000293334 -0.000293334 0.0568137)
(-0.000170761 -0.000282546 0.0568114)
(-5.6055e-05 -0.000275297 0.05681)
(5.6055e-05 -0.000275297 0.05681)
(0.000170761 -0.000282546 0.0568114)
(0.000293334 -0.000293334 0.0568137)
(0.000402354 -0.000302964 0.0568158)
(-0.000402557 -0.000179449 0.0568144)
(-0.000282546 -0.000170761 0.0568114)
(-0.000162406 -0.000162406 0.0568086)
(-5.28038e-05 -0.000157825 0.0568068)
(5.28038e-05 -0.000157825 0.0568068)
(0.000162406 -0.000162406 0.0568086)
(0.000282546 -0.000170761 0.0568114)
(0.000402557 -0.000179449 0.0568144)
(-0.000404597 -6.13842e-05 0.0568134)
(-0.000275297 -5.6055e-05 0.05681)
(-0.000157825 -5.28038e-05 0.0568068)
(-5.119e-05 -5.119e-05 0.0568049)
(5.11901e-05 -5.119e-05 0.0568049)
(0.000157825 -5.28038e-05 0.0568068)
(0.000275297 -5.6055e-05 0.05681)
(0.000404597 -6.13842e-05 0.0568134)
(-0.000404597 6.13842e-05 0.0568134)
(-0.000275297 5.6055e-05 0.05681)
(-0.000157825 5.28038e-05 0.0568068)
(-5.119e-05 5.11901e-05 0.0568049)
(5.11901e-05 5.11901e-05 0.0568049)
(0.000157825 5.28038e-05 0.0568068)
(0.000275297 5.6055e-05 0.05681)
(0.000404597 6.13842e-05 0.0568134)
(-0.000402557 0.000179449 0.0568144)
(-0.000282546 0.000170761 0.0568114)
(-0.000162406 0.000162406 0.0568086)
(-5.28038e-05 0.000157825 0.0568068)
(5.28038e-05 0.000157825 0.0568068)
(0.000162406 0.000162406 0.0568086)
(0.000282546 0.000170761 0.0568114)
(0.000402557 0.000179449 0.0568144)
(-0.000402354 0.000302964 0.0568158)
(-0.000293334 0.000293334 0.0568137)
(-0.000170761 0.000282546 0.0568114)
(-5.6055e-05 0.000275297 0.05681)
(5.6055e-05 0.000275297 0.05681)
(0.000170761 0.000282546 0.0568114)
(0.000293334 0.000293334 0.0568137)
(0.000402354 0.000302964 0.0568158)
(-0.00039389 0.00039389 0.0568161)
(-0.000302964 0.000402354 0.0568158)
(-0.000179449 0.000402557 0.0568144)
(-6.13842e-05 0.000404597 0.0568134)
(6.13842e-05 0.000404597 0.0568134)
(0.000179449 0.000402557 0.0568144)
(0.000302964 0.000402354 0.0568158)
(0.00039389 0.00039389 0.0568161)
(-0.00087588 -0.00087588 0.0578648)
(-0.000681938 -0.00094237 0.0578175)
(-0.000416487 -0.000979977 0.057783)
(-0.000143583 -0.00100026 0.0577644)
(0.000143583 -0.00100026 0.0577644)
(0.000416487 -0.000979977 0.057783)
(0.000681938 -0.00094237 0.0578175)
(0.00087588 -0.00087588 0.0578648)
(-0.00094237 -0.000681938 0.0578175)
(-0.000707788 -0.000707788 0.0577404)
(-0.000424938 -0.000712517 0.0576892)
(-0.000141716 -0.000709217 0.0576656)
(0.000141716 -0.000709217 0.0576656)
(0.000424938 -0.000712517 0.0576892)
(0.000707788 -0.000707788 0.0577404)
(0.00094237 -0.000681938 0.0578175)
(-0.000979977 -0.000416487 0.057783)
(-0.000712517 -0.000424938 0.0576892)
(-0.000421108 -0.000421108 0.0576312)
(-0.000138906 -0.000416134 0.057605)
(0.000138906 -0.000416134 0.057605)
(0.000421108 -0.000421108 0.0576312)
(0.000712517 -0.000424938 0.0576892)
(0.000979977 -0.000416487 0.057783)
(-0.00100026 -0.000143583 0.0577644)
(-0.000709217 -0.000141716 0.0576656)
(-0.000416134 -0.000138906 0.057605)
(-0.000136234 -0.000136234 0.0575776)
(0.000136234 -0.000136234 0.0575776)
(0.000416134 -0.000138906 0.057605)
(0.000709217 -0.000141716 0.0576656)
(0.00100026 -0.000143583 0.0577644)
(-0.00100026 0.000143583 0.0577644)
(-0.000709217 0.000141716 0.0576656)
(-0.000416134 0.000138906 0.057605)
(-0.000136234 0.000136234 0.0575776)
(0.000136234 0.000136234 0.0575776)
(0.000416134 0.000138906 0.057605)
(0.000709217 0.000141716 0.0576656)
(0.00100026 0.000143583 0.0577644)
(-0.000979977 0.000416487 0.057783)
(-0.000712517 0.000424938 0.0576892)
(-0.000421108 0.000421108 0.0576312)
(-0.000138906 0.000416134 0.057605)
(0.000138906 0.000416134 0.057605)
(0.000421108 0.000421108 0.0576312)
(0.000712517 0.000424938 0.0576892)
(0.000979977 0.000416487 0.057783)
(-0.00094237 0.000681938 0.0578175)
(-0.000707788 0.000707788 0.0577404)
(-0.000424938 0.000712517 0.0576892)
(-0.000141716 0.000709217 0.0576656)
(0.000141716 0.000709217 0.0576656)
(0.000424938 0.000712517 0.0576892)
(0.000707788 0.000707788 0.0577404)
(0.00094237 0.000681938 0.0578175)
(-0.00087588 0.00087588 0.0578648)
(-0.000681938 0.00094237 0.0578175)
(-0.000416487 0.000979977 0.057783)
(-0.000143583 0.00100026 0.0577644)
(0.000143583 0.00100026 0.0577644)
(0.000416487 0.000979977 0.057783)
(0.000681938 0.00094237 0.0578175)
(0.00087588 0.00087588 0.0578648)
(-0.000934921 -0.000934921 0.0594976)
(-0.000709975 -0.00102674 0.0593999)
(-0.000441971 -0.00110991 0.05933)
(-0.000156056 -0.00116027 0.0592902)
(0.000156056 -0.00116027 0.0592902)
(0.000441971 -0.00110991 0.05933)
(0.000709975 -0.00102674 0.0593999)
(0.000934921 -0.000934921 0.0594976)
(-0.00102674 -0.000709975 0.0593999)
(-0.000777532 -0.000777532 0.0592404)
(-0.000489712 -0.000830153 0.059126)
(-0.000169288 -0.000848834 0.0590667)
(0.000169288 -0.000848834 0.0590667)
(0.000489712 -0.000830153 0.059126)
(0.000777532 -0.000777532 0.0592404)
(0.00102674 -0.000709975 0.0593999)
(-0.00110991 -0.000441971 0.05933)
(-0.000830153 -0.000489712 0.059126)
(-0.00051194 -0.00051194 0.0589863)
(-0.000173121 -0.000515262 0.0589171)
(0.000173121 -0.000515262 0.0589171)
(0.00051194 -0.00051194 0.0589863)
(0.000830153 -0.000489712 0.059126)
(0.00110991 -0.000441971 0.05933)
(-0.00116027 -0.000156056 0.0592902)
(-0.000848834 -0.000169288 0.0590667)
(-0.000515262 -0.000173121 0.0589171)
(-0.000172563 -0.000172563 0.0588446)
(0.000172563 -0.000172563 0.0588446)
(0.000515262 -0.000173121 0.0589171)
(0.000848834 -0.000169288 0.0590667)
(0.00116027 -0.000156056 0.0592902)
(-0.00116027 0.000156056 0.0592902)
(-0.000848834 0.000169288 0.0590667)
(-0.000515262 0.000173121 0.0589171)
(-0.000172563 0.000172563 0.0588446)
(0.000172563 0.000172563 0.0588446)
(0.000515262 0.000173121 0.0589171)
(0.000848834 0.000169288 0.0590667)
(0.00116027 0.000156056 0.0592902)
(-0.00110991 0.000441971 0.05933)
(-0.000830153 0.000489712 0.059126)
(-0.00051194 0.00051194 0.0589863)
(-0.000173121 0.000515262 0.0589171)
(0.000173121 0.000515262 0.0589171)
(0.00051194 0.00051194 0.0589863)
(0.000830153 0.000489712 0.059126)
(0.00110991 0.000441971 0.05933)
(-0.00102674 0.000709975 0.0593999)
(-0.000777532 0.000777532 0.0592404)
(-0.000489712 0.000830153 0.059126)
(-0.000169288 0.000848834 0.0590667)
(0.000169288 0.000848834 0.0590667)
(0.000489712 0.000830153 0.059126)
(0.000777532 0.000777532 0.0592404)
(0.00102674 0.000709975 0.0593999)
(-0.000934921 0.000934921 0.0594976)
(-0.000709975 0.00102674 0.0593999)
(-0.000441972 0.00110991 0.05933)
(-0.000156056 0.00116027 0.0592902)
(0.000156056 0.00116027 0.0592902)
(0.000441971 0.00110991 0.05933)
(0.000709975 0.00102674 0.0593999)
(0.000934921 0.000934921 0.0594976)
(-0.00083548 -0.00083548 0.0612735)
(-0.000604392 -0.000918823 0.0611615)
(-0.000372407 -0.00100719 0.0610866)
(-0.000128533 -0.00105863 0.0610431)
(0.000128533 -0.00105863 0.0610431)
(0.000372407 -0.00100719 0.0610866)
(0.000604392 -0.000918823 0.0611615)
(0.00083548 -0.00083548 0.0612735)
(-0.000918823 -0.000604392 0.0611615)
(-0.000682268 -0.000682268 0.0609797)
(-0.000425716 -0.000749922 0.0608474)
(-0.000146355 -0.000783333 0.0607746)
(0.000146354 -0.000783333 0.0607746)
(0.000425716 -0.000749922 0.0608474)
(0.000682268 -0.000682268 0.0609797)
(0.000918823 -0.000604392 0.0611615)
(-0.00100719 -0.000372407 0.0610866)
(-0.000749922 -0.000425716 0.0608474)
(-0.000465804 -0.000465804 0.0606767)
(-0.00015881 -0.000483344 0.0605883)
(0.00015881 -0.000483344 0.0605883)
(0.000465804 -0.000465804 0.0606767)
(0.000749922 -0.000425716 0.0608474)
(0.00100719 -0.000372407 0.0610866)
(-0.00105863 -0.000128533 0.0610431)
(-0.000783333 -0.000146355 0.0607746)
(-0.000483344 -0.00015881 0.0605883)
(-0.000163775 -0.000163775 0.0604944)
(0.000163775 -0.000163775 0.0604944)
(0.000483344 -0.00015881 0.0605883)
(0.000783333 -0.000146355 0.0607746)
(0.00105863 -0.000128533 0.0610431)
(-0.00105863 0.000128533 0.0610431)
(-0.000783333 0.000146354 0.0607746)
(-0.000483344 0.00015881 0.0605883)
(-0.000163775 0.000163775 0.0604944)
(0.000163775 0.000163775 0.0604944)
(0.000483344 0.00015881 0.0605883)
(0.000783333 0.000146354 0.0607746)
(0.00105863 0.000128533 0.0610431)
(-0.00100719 0.000372407 0.0610866)
(-0.000749922 0.000425716 0.0608474)
(-0.000465804 0.000465804 0.0606767)
(-0.00015881 0.000483344 0.0605883)
(0.00015881 0.000483344 0.0605883)
(0.000465804 0.000465804 0.0606767)
(0.000749922 0.000425716 0.0608474)
(0.00100719 0.000372407 0.0610866)
(-0.000918823 0.000604392 0.0611615)
(-0.000682268 0.000682268 0.0609797)
(-0.000425716 0.000749922 0.0608474)
(-0.000146355 0.000783333 0.0607746)
(0.000146354 0.000783333 0.0607746)
(0.000425716 0.000749922 0.0608474)
(0.000682268 0.000682268 0.0609797)
(0.000918823 0.000604392 0.0611615)
(-0.00083548 0.00083548 0.0612735)
(-0.000604392 0.000918823 0.0611615)
(-0.000372407 0.00100719 0.0610866)
(-0.000128533 0.00105863 0.0610431)
(0.000128533 0.00105863 0.0610431)
(0.000372407 0.00100719 0.0610866)
(0.000604392 0.000918823 0.0611615)
(0.00083548 0.00083548 0.0612735)
(-0.000739483 -0.000739483 0.0628458)
(-0.000526709 -0.000811976 0.0627304)
(-0.000323327 -0.00088765 0.0626552)
(-0.000108198 -0.000927285 0.0626141)
(0.000108198 -0.000927285 0.0626141)
(0.000323327 -0.00088765 0.0626552)
(0.000526709 -0.000811976 0.0627304)
(0.000739483 -0.000739483 0.0628458)
(-0.000811976 -0.000526709 0.0627304)
(-0.00059556 -0.00059556 0.0625437)
(-0.000362139 -0.000651569 0.0624112)
(-0.000121659 -0.00068308 0.062339)
(0.000121659 -0.00068308 0.062339)
(0.000362139 -0.000651569 0.0624112)
(0.00059556 -0.00059556 0.0625437)
(0.000811976 -0.000526709 0.0627304)
(-0.00088765 -0.000323327 0.0626552)
(-0.000651569 -0.000362139 0.0624112)
(-0.000399359 -0.000399359 0.062236)
(-0.000135256 -0.000420598 0.0621436)
(0.000135256 -0.000420598 0.0621436)
(0.000399359 -0.000399359 0.062236)
(0.000651569 -0.000362139 0.0624112)
(0.00088765 -0.000323327 0.0626552)
(-0.000927285 -0.000108198 0.0626141)
(-0.00068308 -0.000121659 0.062339)
(-0.000420598 -0.000135256 0.0621436)
(-0.000142489 -0.000142489 0.0620425)
(0.000142489 -0.000142489 0.0620425)
(0.000420598 -0.000135256 0.0621436)
(0.00068308 -0.000121659 0.062339)
(0.000927285 -0.000108198 0.0626141)
(-0.000927285 0.000108198 0.0626141)
(-0.00068308 0.000121659 0.062339)
(-0.000420598 0.000135256 0.0621436)
(-0.000142489 0.000142489 0.0620425)
(0.000142489 0.000142489 0.0620425)
(0.000420598 0.000135256 0.0621436)
(0.00068308 0.000121659 0.062339)
(0.000927285 0.000108198 0.0626141)
(-0.00088765 0.000323327 0.0626552)
(-0.000651569 0.000362139 0.0624112)
(-0.000399359 0.000399359 0.062236)
(-0.000135256 0.000420598 0.0621436)
(0.000135256 0.000420598 0.0621436)
(0.000399359 0.000399359 0.062236)
(0.000651569 0.000362139 0.0624112)
(0.00088765 0.000323327 0.0626552)
(-0.000811976 0.000526709 0.0627304)
(-0.00059556 0.000595559 0.0625437)
(-0.000362139 0.000651569 0.0624112)
(-0.000121659 0.00068308 0.062339)
(0.000121659 0.00068308 0.062339)
(0.000362139 0.000651569 0.0624112)
(0.00059556 0.00059556 0.0625437)
(0.000811976 0.000526709 0.0627304)
(-0.000739483 0.000739483 0.0628458)
(-0.000526709 0.000811976 0.0627304)
(-0.000323327 0.00088765 0.0626552)
(-0.000108198 0.000927285 0.0626141)
(0.000108198 0.000927285 0.0626141)
(0.000323327 0.00088765 0.0626552)
(0.000526709 0.000811976 0.0627304)
(0.000739483 0.000739483 0.0628458)
(-0.000667377 -0.000667377 0.0642001)
(-0.000478194 -0.00073338 0.0640861)
(-0.000297725 -0.000800878 0.0640118)
(-9.86704e-05 -0.000833137 0.0639738)
(9.86704e-05 -0.000833137 0.0639738)
(0.000297725 -0.000800878 0.0640118)
(0.000478194 -0.00073338 0.0640861)
(0.000667377 -0.000667377 0.0642001)
(-0.00073338 -0.000478194 0.0640861)
(-0.000542069 -0.000542069 0.0639044)
(-0.000328246 -0.000588133 0.0637805)
(-0.000109041 -0.000614103 0.063716)
(0.000109041 -0.000614103 0.063716)
(0.000328246 -0.000588133 0.0637805)
(0.000542069 -0.000542069 0.0639044)
(0.00073338 -0.000478194 0.0640861)
(-0.000800878 -0.000297725 0.0640118)
(-0.000588133 -0.000328246 0.0637805)
(-0.000357303 -0.000357303 0.0636196)
(-0.000119956 -0.000375331 0.0635362)
(0.000119956 -0.000375331 0.0635362)
(0.000357303 -0.000357303 0.0636196)
(0.000588133 -0.000328246 0.0637805)
(0.000800878 -0.000297725 0.0640118)
(-0.000833137 -9.86704e-05 0.0639738)
(-0.000614103 -0.000109041 0.063716)
(-0.000375331 -0.000119956 0.0635362)
(-0.000126484 -0.000126484 0.0634438)
(0.000126484 -0.000126484 0.0634438)
(0.000375331 -0.000119956 0.0635362)
(0.000614103 -0.000109041 0.063716)
(0.000833137 -9.86704e-05 0.0639738)
(-0.000833137 9.86704e-05 0.0639738)
(-0.000614103 0.000109041 0.063716)
(-0.000375331 0.000119956 0.0635362)
(-0.000126484 0.000126484 0.0634438)
(0.000126484 0.000126484 0.0634438)
(0.000375331 0.000119956 0.0635362)
(0.000614103 0.000109041 0.063716)
(0.000833137 9.86704e-05 0.0639738)
(-0.000800878 0.000297725 0.0640118)
(-0.000588133 0.000328246 0.0637805)
(-0.000357303 0.000357303 0.0636196)
(-0.000119956 0.000375331 0.0635362)
(0.000119956 0.000375331 0.0635362)
(0.000357303 0.000357303 0.0636196)
(0.000588133 0.000328246 0.0637805)
(0.000800878 0.000297725 0.0640118)
(-0.00073338 0.000478194 0.0640861)
(-0.000542069 0.000542069 0.0639044)
(-0.000328246 0.000588133 0.0637805)
(-0.000109041 0.000614103 0.063716)
(0.000109041 0.000614103 0.063716)
(0.000328246 0.000588133 0.0637805)
(0.000542069 0.000542069 0.0639044)
(0.00073338 0.000478194 0.0640861)
(-0.000667377 0.000667377 0.0642001)
(-0.000478194 0.00073338 0.0640861)
(-0.000297725 0.000800878 0.0640118)
(-9.86704e-05 0.000833137 0.0639738)
(9.86704e-05 0.000833137 0.0639738)
(0.000297725 0.000800878 0.0640118)
(0.000478194 0.00073338 0.0640861)
(0.000667377 0.000667377 0.0642001)
(-0.000593694 -0.000593694 0.0653239)
(-0.000426951 -0.000654081 0.065204)
(-0.000269501 -0.000717532 0.065122)
(-8.92225e-05 -0.000748326 0.0650802)
(8.92225e-05 -0.000748326 0.0650802)
(0.000269501 -0.000717532 0.065122)
(0.000426951 -0.000654081 0.065204)
(0.000593694 -0.000593694 0.0653239)
(-0.000654081 -0.000426951 0.065204)
(-0.000490263 -0.000490263 0.0650136)
(-0.000300525 -0.000535201 0.0648826)
(-0.000100368 -0.000560697 0.0648152)
(0.000100367 -0.000560697 0.0648152)
(0.000300525 -0.000535201 0.0648826)
(0.000490263 -0.000490263 0.0650136)
(0.000654081 -0.000426951 0.065204)
(-0.000717532 -0.000269501 0.065122)
(-0.000535201 -0.000300525 0.0648826)
(-0.000328027 -0.000328027 0.0647164)
(-0.000110392 -0.000344303 0.0646309)
(0.000110392 -0.000344303 0.0646309)
(0.000328027 -0.000328027 0.0647164)
(0.000535201 -0.000300525 0.0648826)
(0.000717532 -0.000269501 0.065122)
(-0.000748326 -8.92225e-05 0.0650802)
(-0.000560697 -0.000100368 0.0648152)
(-0.000344303 -0.000110392 0.0646309)
(-0.000116051 -0.000116051 0.0645366)
(0.000116051 -0.000116051 0.0645366)
(0.000344303 -0.000110392 0.0646309)
(0.000560697 -0.000100368 0.0648152)
(0.000748326 -8.92225e-05 0.0650802)
(-0.000748326 8.92225e-05 0.0650802)
(-0.000560697 0.000100367 0.0648152)
(-0.000344303 0.000110392 0.0646309)
(-0.000116051 0.000116051 0.0645366)
(0.000116051 0.000116051 0.0645366)
(0.000344303 0.000110392 0.0646309)
(0.000560697 0.000100368 0.0648152)
(0.000748326 8.92225e-05 0.0650802)
(-0.000717532 0.000269501 0.065122)
(-0.000535201 0.000300525 0.0648826)
(-0.000328027 0.000328027 0.0647164)
(-0.000110392 0.000344303 0.0646309)
(0.000110392 0.000344303 0.0646309)
(0.000328027 0.000328027 0.0647164)
(0.000535201 0.000300525 0.0648826)
(0.000717532 0.000269501 0.065122)
(-0.000654081 0.000426951 0.065204)
(-0.000490263 0.000490263 0.0650136)
(-0.000300525 0.000535201 0.0648826)
(-0.000100368 0.000560697 0.0648152)
(0.000100368 0.000560697 0.0648152)
(0.000300525 0.000535201 0.0648826)
(0.000490263 0.000490263 0.0650136)
(0.000654081 0.000426951 0.065204)
(-0.000593694 0.000593694 0.0653239)
(-0.000426951 0.000654081 0.065204)
(-0.000269501 0.000717532 0.065122)
(-8.92225e-05 0.000748326 0.0650802)
(8.92225e-05 0.000748326 0.0650802)
(0.000269501 0.000717532 0.065122)
(0.000426951 0.000654081 0.065204)
(0.000593694 0.000593694 0.0653239)
(-0.000515119 -0.000515119 0.0663032)
(-0.000369334 -0.000567701 0.0661845)
(-0.000233902 -0.000624319 0.0661024)
(-7.68504e-05 -0.00065313 0.0660608)
(7.68504e-05 -0.00065313 0.0660608)
(0.000233902 -0.000624319 0.0661024)
(0.000369334 -0.000567701 0.0661845)
(0.000515119 -0.000515119 0.0663032)
(-0.000567701 -0.000369334 0.0661845)
(-0.000427838 -0.000427838 0.0659967)
(-0.000263623 -0.000470904 0.0658677)
(-8.84085e-05 -0.000497047 0.0658016)
(8.84085e-05 -0.000497047 0.0658016)
(0.000263623 -0.000470904 0.0658677)
(0.000427838 -0.000427838 0.0659967)
(0.000567701 -0.000369334 0.0661845)
(-0.000624319 -0.000233902 0.0661024)
(-0.000470904 -0.000263623 0.0658677)
(-0.000291461 -0.000291461 0.0657055)
(-9.86548e-05 -0.000307938 0.0656224)
(9.86548e-05 -0.000307938 0.0656224)
(0.000291462 -0.000291461 0.0657055)
(0.000470904 -0.000263623 0.0658677)
(0.000624319 -0.000233902 0.0661024)
(-0.00065313 -7.68504e-05 0.0660608)
(-0.000497047 -8.84085e-05 0.0658016)
(-0.000307938 -9.86548e-05 0.0656224)
(-0.000104243 -0.000104243 0.065531)
(0.000104243 -0.000104243 0.065531)
(0.000307939 -9.86548e-05 0.0656224)
(0.000497047 -8.84085e-05 0.0658016)
(0.00065313 -7.68504e-05 0.0660608)
(-0.00065313 7.68504e-05 0.0660608)
(-0.000497047 8.84085e-05 0.0658016)
(-0.000307938 9.86548e-05 0.0656224)
(-0.000104243 0.000104243 0.065531)
(0.000104243 0.000104243 0.065531)
(0.000307939 9.86548e-05 0.0656224)
(0.000497047 8.84085e-05 0.0658016)
(0.00065313 7.68504e-05 0.0660608)
(-0.000624319 0.000233902 0.0661024)
(-0.000470904 0.000263623 0.0658677)
(-0.000291461 0.000291462 0.0657055)
(-9.86548e-05 0.000307939 0.0656224)
(9.86548e-05 0.000307939 0.0656224)
(0.000291462 0.000291461 0.0657055)
(0.000470904 0.000263623 0.0658677)
(0.000624319 0.000233902 0.0661024)
(-0.000567701 0.000369334 0.0661845)
(-0.000427838 0.000427838 0.0659967)
(-0.000263623 0.000470904 0.0658677)
(-8.84085e-05 0.000497047 0.0658016)
(8.84085e-05 0.000497047 0.0658016)
(0.000263623 0.000470904 0.0658677)
(0.000427838 0.000427838 0.0659967)
(0.000567701 0.000369334 0.0661845)
(-0.000515119 0.000515119 0.0663032)
(-0.000369334 0.000567701 0.0661845)
(-0.000233902 0.000624319 0.0661024)
(-7.68504e-05 0.00065313 0.0660608)
(7.68504e-05 0.00065313 0.0660608)
(0.000233902 0.000624319 0.0661024)
(0.000369334 0.000567701 0.0661845)
(0.000515119 0.000515119 0.0663032)
(-0.000449754 -0.000449754 0.067125)
(-0.000321965 -0.000494003 0.0670036)
(-0.000203391 -0.000541586 0.0669177)
(-6.60764e-05 -0.000566337 0.0668741)
(6.60764e-05 -0.000566337 0.0668741)
(0.000203391 -0.000541586 0.0669177)
(0.000321965 -0.000494003 0.0670036)
(0.000449754 -0.000449754 0.067125)
(-0.000494003 -0.000321965 0.0670036)
(-0.000371572 -0.000371572 0.0668123)
(-0.000227701 -0.000408631 0.0666795)
(-7.60832e-05 -0.000432999 0.0666108)
(7.60832e-05 -0.000432999 0.0666108)
(0.000227701 -0.000408631 0.0666795)
(0.000371572 -0.000371572 0.0668123)
(0.000494003 -0.000321965 0.0670036)
(-0.000541586 -0.000203391 0.0669177)
(-0.000408631 -0.000227701 0.0666795)
(-0.000252905 -0.000252905 0.0665128)
(-8.56798e-05 -0.000268696 0.0664265)
(8.56798e-05 -0.000268696 0.0664265)
(0.000252905 -0.000252905 0.0665128)
(0.000408631 -0.000227701 0.0666795)
(0.000541586 -0.000203391 0.0669177)
(-0.000566337 -6.60764e-05 0.0668741)
(-0.000432999 -7.60832e-05 0.0666108)
(-0.000268696 -8.56798e-05 0.0664265)
(-9.10638e-05 -9.10638e-05 0.0663315)
(9.10638e-05 -9.10638e-05 0.0663315)
(0.000268696 -8.56798e-05 0.0664265)
(0.000432999 -7.60833e-05 0.0666108)
(0.000566337 -6.60765e-05 0.0668741)
(-0.000566337 6.60764e-05 0.0668741)
(-0.000432999 7.60832e-05 0.0666108)
(-0.000268696 8.56798e-05 0.0664265)
(-9.10638e-05 9.10638e-05 0.0663315)
(9.10638e-05 9.10638e-05 0.0663315)
(0.000268696 8.56798e-05 0.0664265)
(0.000432999 7.60832e-05 0.0666108)
(0.000566337 6.60764e-05 0.0668741)
(-0.000541586 0.000203391 0.0669177)
(-0.000408631 0.000227701 0.0666795)
(-0.000252905 0.000252905 0.0665128)
(-8.56798e-05 0.000268696 0.0664265)
(8.56798e-05 0.000268696 0.0664265)
(0.000252905 0.000252905 0.0665128)
(0.000408631 0.000227701 0.0666795)
(0.000541586 0.000203391 0.0669177)
(-0.000494003 0.000321965 0.0670036)
(-0.000371572 0.000371572 0.0668123)
(-0.000227701 0.000408631 0.0666795)
(-7.60833e-05 0.000432999 0.0666108)
(7.60832e-05 0.000432999 0.0666108)
(0.000227701 0.000408631 0.0666795)
(0.000371572 0.000371572 0.0668123)
(0.000494003 0.000321965 0.0670036)
(-0.000449754 0.000449754 0.067125)
(-0.000321965 0.000494003 0.0670036)
(-0.000203391 0.000541586 0.0669177)
(-6.60765e-05 0.000566337 0.0668741)
(6.60764e-05 0.000566337 0.0668741)
(0.000203391 0.000541586 0.0669177)
(0.000321965 0.000494003 0.0670036)
(0.000449754 0.000449754 0.067125)
(-0.000404773 -0.000404773 0.0678702)
(-0.000290863 -0.000442396 0.0677528)
(-0.00018351 -0.000482279 0.0676699)
(-5.92871e-05 -0.000502974 0.0676285)
(5.92871e-05 -0.000502974 0.0676285)
(0.00018351 -0.000482279 0.0676699)
(0.000290863 -0.000442396 0.0677528)
(0.000404773 -0.000404773 0.0678702)
(-0.000442396 -0.000290863 0.0677528)
(-0.000332121 -0.000332121 0.0675699)
(-0.000202208 -0.000362526 0.0674447)
(-6.71064e-05 -0.000383597 0.0673808)
(6.71064e-05 -0.000383597 0.0673808)
(0.000202208 -0.000362526 0.0674447)
(0.000332121 -0.000332121 0.0675699)
(0.000442396 -0.000290863 0.0677528)
(-0.000482279 -0.00018351 0.0676699)
(-0.000362526 -0.000202208 0.0674447)
(-0.000222971 -0.000222971 0.0672893)
(-7.52431e-05 -0.00023689 0.0672093)
(7.52431e-05 -0.00023689 0.0672093)
(0.000222971 -0.000222971 0.0672893)
(0.000362526 -0.000202208 0.0674447)
(0.000482279 -0.00018351 0.0676699)
(-0.000502974 -5.92871e-05 0.0676285)
(-0.000383597 -6.71064e-05 0.0673808)
(-0.00023689 -7.52431e-05 0.0672093)
(-8.00492e-05 -8.00492e-05 0.0671212)
(8.00492e-05 -8.00492e-05 0.0671212)
(0.00023689 -7.52431e-05 0.0672093)
(0.000383597 -6.71064e-05 0.0673808)
(0.000502974 -5.92871e-05 0.0676285)
(-0.000502974 5.92871e-05 0.0676285)
(-0.000383597 6.71064e-05 0.0673808)
(-0.00023689 7.52431e-05 0.0672093)
(-8.00492e-05 8.00492e-05 0.0671212)
(8.00492e-05 8.00492e-05 0.0671212)
(0.00023689 7.52431e-05 0.0672093)
(0.000383597 6.71064e-05 0.0673808)
(0.000502974 5.92871e-05 0.0676285)
(-0.000482279 0.00018351 0.0676699)
(-0.000362526 0.000202208 0.0674447)
(-0.000222971 0.000222971 0.0672893)
(-7.52431e-05 0.00023689 0.0672093)
(7.52431e-05 0.00023689 0.0672093)
(0.000222971 0.000222971 0.0672893)
(0.000362526 0.000202208 0.0674447)
(0.000482279 0.00018351 0.0676699)
(-0.000442396 0.000290863 0.0677528)
(-0.000332121 0.000332121 0.0675699)
(-0.000202208 0.000362526 0.0674447)
(-6.71064e-05 0.000383597 0.0673808)
(6.71064e-05 0.000383597 0.0673808)
(0.000202208 0.000362526 0.0674447)
(0.000332121 0.000332121 0.0675699)
(0.000442396 0.000290863 0.0677528)
(-0.000404773 0.000404773 0.0678702)
(-0.000290863 0.000442396 0.0677528)
(-0.00018351 0.000482279 0.0676699)
(-5.92871e-05 0.000502974 0.0676285)
(5.92871e-05 0.000502974 0.0676285)
(0.00018351 0.000482279 0.0676699)
(0.000290863 0.000442396 0.0677528)
(0.000404773 0.000404773 0.0678702)
(-0.000376332 -0.000376332 0.0685216)
(-0.000272341 -0.000409819 0.0684015)
(-0.000172105 -0.000445024 0.0683146)
(-5.57625e-05 -0.0004634 0.0682709)
(5.57625e-05 -0.0004634 0.0682709)
(0.000172105 -0.000445024 0.0683146)
(0.000272341 -0.000409819 0.0684015)
(0.000376332 -0.000376332 0.0685216)
(-0.000409819 -0.000272341 0.0684015)
(-0.00030834 -0.00030834 0.0682151)
(-0.000187851 -0.000334633 0.0680864)
(-6.22202e-05 -0.000353093 0.0680208)
(6.22202e-05 -0.000353093 0.0680208)
(0.000187851 -0.000334633 0.0680864)
(0.00030834 -0.00030834 0.0682151)
(0.000409819 -0.000272341 0.0684015)
(-0.000445024 -0.000172105 0.0683146)
(-0.000334633 -0.000187851 0.0680864)
(-0.000205149 -0.000205149 0.0679285)
(-6.90085e-05 -0.00021719 0.0678471)
(6.90085e-05 -0.00021719 0.0678471)
(0.000205149 -0.000205149 0.0679285)
(0.000334633 -0.000187851 0.0680864)
(0.000445024 -0.000172105 0.0683146)
(-0.0004634 -5.57625e-05 0.0682709)
(-0.000353093 -6.22202e-05 0.0680208)
(-0.00021719 -6.90085e-05 0.0678471)
(-7.31763e-05 -7.31763e-05 0.0677577)
(7.31763e-05 -7.31763e-05 0.0677577)
(0.00021719 -6.90085e-05 0.0678471)
(0.000353093 -6.22202e-05 0.0680208)
(0.0004634 -5.57625e-05 0.0682709)
(-0.0004634 5.57625e-05 0.0682709)
(-0.000353093 6.22202e-05 0.0680208)
(-0.00021719 6.90085e-05 0.0678471)
(-7.31763e-05 7.31763e-05 0.0677577)
(7.31763e-05 7.31763e-05 0.0677577)
(0.00021719 6.90085e-05 0.0678471)
(0.000353093 6.22202e-05 0.0680208)
(0.0004634 5.57625e-05 0.0682709)
(-0.000445024 0.000172105 0.0683146)
(-0.000334633 0.000187851 0.0680864)
(-0.000205149 0.000205149 0.0679285)
(-6.90085e-05 0.00021719 0.0678471)
(6.90085e-05 0.00021719 0.0678471)
(0.000205149 0.000205149 0.0679285)
(0.000334633 0.000187851 0.0680864)
(0.000445024 0.000172105 0.0683146)
(-0.000409819 0.000272341 0.0684015)
(-0.00030834 0.00030834 0.0682151)
(-0.000187851 0.000334633 0.0680864)
(-6.22202e-05 0.000353093 0.0680208)
(6.22202e-05 0.000353093 0.0680208)
(0.000187851 0.000334633 0.0680864)
(0.00030834 0.00030834 0.0682151)
(0.000409819 0.000272341 0.0684015)
(-0.000376332 0.000376332 0.0685216)
(-0.000272341 0.000409819 0.0684015)
(-0.000172105 0.000445024 0.0683146)
(-5.57625e-05 0.0004634 0.0682709)
(5.57625e-05 0.0004634 0.0682709)
(0.000172105 0.000445024 0.0683146)
(0.000272341 0.000409819 0.0684015)
(0.000376332 0.000376332 0.0685216)
(-0.000354794 -0.000354794 0.0691506)
(-0.000258148 -0.000385552 0.0690341)
(-0.000163367 -0.000417854 0.0689495)
(-5.32027e-05 -0.000435172 0.0689071)
(5.32027e-05 -0.000435172 0.0689071)
(0.000163367 -0.000417854 0.0689495)
(0.000258148 -0.000385552 0.0690341)
(0.000354794 -0.000354794 0.0691506)
(-0.000385552 -0.000258148 0.0690341)
(-0.000290857 -0.000290857 0.0688541)
(-0.000177957 -0.000315007 0.0687306)
(-5.90589e-05 -0.000331945 0.0686683)
(5.90589e-05 -0.000331945 0.0686683)
(0.000177957 -0.000315007 0.0687306)
(0.000290857 -0.000290857 0.0688541)
(0.000385552 -0.000258148 0.0690341)
(-0.000417854 -0.000163367 0.0689495)
(-0.000315007 -0.000177957 0.0687306)
(-0.000193233 -0.000193233 0.068581)
(-6.49593e-05 -0.000203931 0.0685047)
(6.49593e-05 -0.000203931 0.0685047)
(0.000193233 -0.000193233 0.068581)
(0.000315007 -0.000177957 0.0687306)
(0.000417854 -0.000163367 0.0689495)
(-0.000435172 -5.32027e-05 0.0689071)
(-0.000331945 -5.90589e-05 0.0686683)
(-0.000203931 -6.49593e-05 0.0685047)
(-6.86087e-05 -6.86087e-05 0.0684211)
(6.86087e-05 -6.86087e-05 0.0684211)
(0.000203931 -6.49593e-05 0.0685047)
(0.000331945 -5.90589e-05 0.0686683)
(0.000435172 -5.32027e-05 0.0689071)
(-0.000435172 5.32027e-05 0.0689071)
(-0.000331945 5.90589e-05 0.0686683)
(-0.000203931 6.49593e-05 0.0685047)
(-6.86087e-05 6.86087e-05 0.0684211)
(6.86087e-05 6.86087e-05 0.0684211)
(0.000203931 6.49593e-05 0.0685047)
(0.000331945 5.90589e-05 0.0686683)
(0.000435172 5.32027e-05 0.0689071)
(-0.000417854 0.000163367 0.0689495)
(-0.000315007 0.000177957 0.0687306)
(-0.000193233 0.000193233 0.068581)
(-6.49593e-05 0.000203931 0.0685047)
(6.49593e-05 0.000203931 0.0685047)
(0.000193233 0.000193233 0.068581)
(0.000315007 0.000177957 0.0687306)
(0.000417854 0.000163367 0.0689495)
(-0.000385552 0.000258148 0.0690341)
(-0.000290857 0.000290857 0.0688541)
(-0.000177957 0.000315007 0.0687306)
(-5.90589e-05 0.000331945 0.0686683)
(5.90589e-05 0.000331945 0.0686683)
(0.000177957 0.000315007 0.0687306)
(0.000290857 0.000290857 0.0688541)
(0.000385552 0.000258148 0.0690341)
(-0.000354794 0.000354794 0.0691506)
(-0.000258148 0.000385552 0.0690341)
(-0.000163367 0.000417854 0.0689495)
(-5.32027e-05 0.000435172 0.0689071)
(5.32027e-05 0.000435172 0.0689071)
(0.000163367 0.000417854 0.0689495)
(0.000258148 0.000385552 0.0690341)
(0.000354794 0.000354794 0.0691506)
(-0.000337639 -0.000337639 0.0697204)
(-0.000246332 -0.000366142 0.0696006)
(-0.000155796 -0.000396287 0.0695118)
(-5.09329e-05 -0.000412871 0.0694667)
(5.09329e-05 -0.000412871 0.0694667)
(0.000155796 -0.000396287 0.0695118)
(0.000246332 -0.000366142 0.0696006)
(0.000337639 -0.000337639 0.0697204)
(-0.000366142 -0.000246332 0.0696006)
(-0.000276468 -0.000276468 0.0694152)
(-0.000169673 -0.000299247 0.0692858)
(-5.64182e-05 -0.000315283 0.06922)
(5.64182e-05 -0.000315283 0.06922)
(0.000169673 -0.000299247 0.0692858)
(0.000276468 -0.000276468 0.0694152)
(0.000366142 -0.000246332 0.0696006)
(-0.000396287 -0.000155796 0.0695118)
(-0.000299247 -0.000169673 0.0692858)
(-0.000183809 -0.000183809 0.0691298)
(-6.18184e-05 -0.000193753 0.0690497)
(6.18183e-05 -0.000193753 0.0690497)
(0.000183809 -0.000183809 0.0691298)
(0.000299247 -0.000169673 0.0692858)
(0.000396287 -0.000155796 0.0695118)
(-0.000412871 -5.09329e-05 0.0694667)
(-0.000315283 -5.64182e-05 0.06922)
(-0.000193753 -6.18184e-05 0.0690497)
(-6.51642e-05 -6.51642e-05 0.0689623)
(6.51641e-05 -6.51642e-05 0.0689623)
(0.000193753 -6.18184e-05 0.0690497)
(0.000315283 -5.64182e-05 0.06922)
(0.000412871 -5.09329e-05 0.0694667)