/*--------------------------------*- C++ -*----------------------------------*\
  =========                 |
  \\      /  F ield         | OpenFOAM: The Open Source CFD Toolbox
   \\    /   O peration     | Website:  https://openfoam.org
    \\  /    A nd           | Version:  7
     \\/     M anipulation  |
\*---------------------------------------------------------------------------*/
FoamFile
{
    version     2.0;
    format      ascii;
    class       volScalarField;
    location    "1.8";
    object      T;
}
// * * * * * * * * * * * * * * * * * * * * * * * * * * * * * * * * * * * * * //

dimensions      [0 0 0 1 0 0 0];

internalField   nonuniform List<scalar> 
32100
(
-3.51616e+43
-4.77094e+42
6.44891e+41
-1.62837e+40
-5.56242e+39
7.15514e+38
6.15013e+37
-1.17219e+37
5.23933e+35
1.00074e+35
-8.2533e+33
-1.44661e+32
9.04496e+29
1.8202e+30
5.0347e+29
-5.4648e+42
6.96839e+41
-1.59121e+40
-5.89488e+39
7.30491e+38
6.44058e+37
-1.20441e+37
5.25023e+35
9.74559e+34
-1.59129e+34
-3.68277e+33
-2.33815e+32
1.50586e+31
1.79948e+30
4.75061e+29
7.56457e+41
-1.55536e+40
-6.36971e+39
7.53703e+38
6.8053e+37
-1.25083e+37
5.38911e+35
1.03633e+35
-1.53621e+34
-2.28568e+33
-9.88079e+32
-1.33555e+32
2.36598e+31
1.12822e+30
3.8368e+29
-1.5334e+40
-7.43602e+39
7.60392e+38
7.74326e+37
-1.29857e+37
4.68058e+35
1.17625e+35
-1.21451e+34
-1.26279e+33
4.02196e+31
-2.53702e+32
-3.16478e+31
2.20243e+31
4.89697e+29
2.63213e+29
-1.01048e+40
4.19914e+38
6.51291e+37
-9.12937e+36
5.14158e+35
4.73205e+34
-3.69723e+33
1.38518e+33
2.55603e+32
-3.41675e+31
-1.55563e+31
1.03093e+31
1.46752e+31
1.60685e+28
1.30971e+29
-1.2129e+39
-2.87692e+38
-3.05231e+37
4.78612e+36
1.39709e+35
-7.8402e+34
8.74188e+33
2.82473e+33
-1.27419e+31
6.64841e+30
1.80544e+31
1.36611e+31
7.288e+30
-2.56773e+29
2.91841e+28
-1.80325e+39
-3.82057e+38
-1.73208e+37
4.16615e+36
5.30313e+34
-6.44711e+34
8.93863e+33
2.52672e+33
1.369e+31
-1.71465e+30
1.05254e+31
6.81091e+30
2.51233e+30
-3.35963e+29
-2.10556e+28
-1.78622e+39
-3.53594e+38
-1.93662e+37
3.78203e+36
1.11699e+35
-6.20253e+34
7.27788e+33
2.52943e+33
3.41133e+31
-9.24161e+30
4.20335e+30
1.6439e+30
3.74196e+29
-2.77217e+29
-2.94521e+28
-1.62954e+39
-3.40362e+38
-2.10827e+37
3.51737e+36
1.57199e+35
-6.06693e+34
5.91278e+33
2.49726e+33
5.62559e+31
-1.15753e+31
1.98583e+30
-5.39998e+28
-1.92256e+29
-1.66771e+29
-1.89066e+28
-1.49542e+39
-3.26233e+38
-2.25417e+37
3.21162e+36
1.98904e+35
-5.82051e+34
4.54272e+33
2.43871e+33
7.94814e+31
-1.17165e+31
1.6106e+30
-1.13797e+29
-1.90852e+29
-7.43142e+28
-7.19714e+27
-1.3709e+39
-3.12217e+38
-2.3925e+37
2.88422e+36
2.38399e+35
-5.501e+34
3.21184e+33
2.35688e+33
1.01319e+32
-1.12871e+31
1.40647e+30
1.46548e+28
-1.0188e+29
-2.33178e+28
-8.72486e+26
-1.25594e+39
-2.99743e+38
-2.49922e+37
2.53673e+36
2.7402e+35
-5.11332e+34
1.95222e+33
2.25449e+33
1.20805e+32
-1.04953e+31
1.1233e+30
7.79499e+28
-5.13625e+28
-5.40379e+27
8.00099e+26
-1.15332e+39
-2.85253e+38
-2.47271e+37
2.18402e+36
3.00256e+35
-4.66717e+34
8.08152e+32
2.13559e+33
1.37203e+32
-9.3598e+30
8.4059e+29
8.81624e+28
-3.46046e+28
-2.02506e+27
4.7392e+26
-1.03273e+39
-2.37642e+38
-2.10621e+37
1.61473e+36
2.90413e+35
-4.11754e+34
-5.96471e+31
1.99908e+33
1.49579e+32
-7.98031e+30
6.30781e+29
9.93594e+28
-2.34229e+28
-1.43243e+27
2.58038e+26
-7.26525e+38
-1.78155e+38
-1.78856e+37
1.11275e+36
2.56383e+35
-3.17014e+34
-7.00243e+32
1.75221e+33
1.57654e+32
-6.67894e+30
4.66911e+29
1.23511e+29
-2.35028e+28
-1.7619e+27
1.78173e+26
-5.18338e+38
-1.45496e+38
-1.64641e+37
8.07029e+35
2.36296e+35
-2.42565e+34
-1.37745e+33
1.5217e+33
1.68526e+32
-5.40769e+30
2.80811e+29
1.49457e+29
-2.75807e+28
-2.62865e+27
1.58778e+26
-4.40459e+38
-1.31222e+38
-1.58661e+37
6.00438e+35
2.33268e+35
-2.01215e+34
-2.05057e+33
1.37732e+33
1.82536e+32
-3.87782e+30
7.17776e+28
1.66283e+29
-2.71945e+28
-3.53101e+27
1.54313e+26
-3.88047e+38
-1.22955e+38
-1.58954e+37
4.23765e+35
2.36708e+35
-1.6358e+34
-2.61629e+33
1.25409e+33
1.97186e+32
-1.97111e+30
-1.4018e+29
1.76209e+29
-2.36145e+28
-4.21213e+27
1.34397e+26
-3.44915e+38
-1.15483e+38
-1.59014e+37
2.4186e+35
2.38662e+35
-1.22305e+34
-3.12081e+33
1.12958e+33
2.11514e+32
3.11461e+29
-3.42038e+29
1.79212e+29
-1.83987e+28
-4.64689e+27
9.23794e+25
-3.07832e+38
-1.08187e+38
-1.58429e+37
5.00067e+34
2.38352e+35
-7.69991e+33
-3.55895e+33
9.92989e+32
2.24506e+32
2.95392e+30
-5.21395e+29
1.78314e+29
-1.30308e+28
-5.0129e+27
3.22714e+25
-2.73639e+38
-1.00597e+38
-1.56734e+37
-1.47141e+35
2.3513e+35
-2.80182e+33
-3.91041e+33
8.4193e+32
2.35727e+32
5.95722e+30
-6.72019e+29
1.69959e+29
-7.23834e+27
-5.21413e+27
-4.17263e+25
-2.40858e+38
-9.24968e+37
-1.54249e+37
-3.46625e+35
2.28385e+35
2.4127e+33
-4.14925e+33
6.78361e+32
2.45283e+32
9.36496e+30
-7.86413e+29
1.53945e+29
-1.36804e+27
-5.11803e+27
-1.18792e+26
-2.09857e+38
-8.42654e+37
-1.51241e+37
-5.46187e+35
2.17724e+35
7.86248e+33
-4.25059e+33
5.03495e+32
2.5316e+32
1.32699e+31
-8.57285e+29
1.33969e+29
3.92897e+27
-4.90013e+27
-1.90158e+26
-1.81102e+38
-7.61739e+37
-1.47619e+37
-7.43809e+35
2.0251e+35
1.34046e+34
-4.19516e+33
3.18565e+32
2.58866e+32
1.77608e+31
-8.75705e+29
1.10549e+29
8.83114e+27
-4.66774e+27
-2.55323e+26
-1.55115e+38
-6.85883e+37
-1.43609e+37
-9.38894e+35
1.82497e+35
1.88907e+34
-3.96395e+33
1.24706e+32
2.61527e+32
2.2846e+31
-8.22711e+29
8.26641e+28
1.36437e+28
-4.43462e+27
-3.19855e+26
-1.31908e+38
-6.15192e+37
-1.38928e+37
-1.12885e+36
1.57428e+35
2.41646e+34
-3.53513e+33
-7.55398e+31
2.60005e+32
2.85569e+31
-6.71126e+29
4.91637e+28
1.86572e+28
-4.20229e+27
-3.94436e+26
-1.11763e+38
-5.49295e+37
-1.33661e+37
-1.31323e+36
1.26982e+35
2.90492e+34
-2.88929e+33
-2.77742e+32
2.52898e+32
3.49016e+31
-3.83962e+29
7.58419e+27
2.37267e+28
-3.86515e+27
-4.79951e+26
-9.46867e+37
-4.90677e+37
-1.28593e+37
-1.49564e+36
9.07717e+34
3.33241e+34
-2.00592e+33
-4.75601e+32
2.38204e+32
4.21185e+31
8.19464e+28
-4.16648e+28
2.79241e+28
-3.29625e+27
-5.59064e+26
-8.00334e+37
-4.40042e+37
-1.24143e+37
-1.67744e+36
4.83072e+34
3.67577e+34
-8.68911e+32
-6.60914e+32
2.14211e+32
4.99835e+31
7.79027e+29
-9.58224e+28
3.10747e+28
-2.55103e+27
-6.29007e+26
-6.70926e+37
-3.93777e+37
-1.19675e+37
-1.85135e+36
-7.08395e+32
3.90365e+34
5.39492e+32
-8.21832e+32
1.79827e+32
5.8157e+31
1.7647e+30
-1.52058e+29
3.29556e+28
-1.62654e+27
-6.89911e+26
-5.54594e+37
-3.46455e+37
-1.13603e+37
-2.00448e+36
-5.61235e+34
3.97567e+34
2.23317e+33
-9.42284e+32
1.33164e+32
6.66049e+31
3.12808e+30
-2.02895e+29
3.19655e+28
-5.06647e+26
-7.24953e+26
-4.52656e+37
-2.97673e+37
-1.05048e+37
-2.13296e+36
-1.17577e+35
3.84579e+34
4.20688e+33
-9.97833e+32
7.20733e+31
7.47378e+31
5.00762e+30
-2.36909e+29
2.80052e+28
6.81578e+26
-7.4643e+26
-3.69362e+37
-2.54245e+37
-9.65572e+36
-2.23516e+36
-1.84509e+35
3.45841e+34
6.41712e+33
-9.53888e+32
-4.81857e+30
8.17236e+31
7.60573e+30
-2.48334e+29
2.22962e+28
2.03985e+27
-7.90885e+26
-3.02153e+37
-2.21278e+37
-9.05856e+36
-2.3197e+36
-2.57103e+35
2.755e+34
8.7679e+33
-7.71567e+32
-9.57239e+31
8.58788e+31
1.1146e+31
-2.1134e+29
1.27306e+28
3.94435e+27
-8.69409e+26
-2.45801e+37
-1.94806e+37
-8.58829e+36
-2.39474e+36
-3.36141e+35
1.66323e+34
1.106e+34
-4.11537e+32
-1.94568e+32
8.49501e+31
1.58644e+31
-5.72893e+28
-5.17405e+27
6.60059e+27
-9.47888e+26
-1.98336e+37
-1.68763e+37
-8.01876e+36
-2.46183e+36
-4.22015e+35
9.1077e+32
1.28907e+34
1.54234e+32
-2.90541e+32
7.58057e+31
2.18154e+31
3.30603e+29
-3.58151e+28
9.98114e+27
-9.38285e+26
-1.58673e+37
-1.4413e+37
-7.40376e+36
-2.52595e+36
-5.15482e+35
-2.03683e+34
1.39018e+34
9.32422e+32
-3.67242e+32
5.5387e+31
2.85461e+31
1.16514e+30
-8.14334e+28
1.34075e+28
-6.48503e+26
-1.25363e+37
-1.22839e+37
-6.85395e+36
-2.58455e+36
-6.15401e+35
-4.7428e+34
1.379e+34
1.9072e+33
-4.0156e+32
2.20327e+31
3.48782e+31
2.60679e+30
-1.28806e+29
1.45931e+28
1.96366e+26
-9.74945e+36
-1.0448e+37
-6.35163e+36
-2.62225e+36
-7.14146e+35
-7.94686e+34
1.2131e+34
3.02819e+33
-3.65186e+32
-2.33141e+31
3.90184e+31
4.75049e+30
-1.46498e+29
1.01653e+28
1.83533e+27
-7.43033e+36
-8.84466e+36
-5.8786e+36
-2.6331e+36
-7.95206e+35
-1.15107e+35
8.48608e+33
4.1858e+33
-2.33426e+32
-7.51718e+31
3.90624e+31
7.57514e+30
-7.70019e+28
-4.55148e+27
4.39048e+27
-5.51826e+36
-7.3698e+36
-5.37607e+36
-2.59404e+36
-8.53533e+35
-1.52516e+35
2.59672e+33
5.16359e+33
4.64221e+30
-1.24595e+32
3.37471e+31
1.08821e+31
1.95011e+29
-3.54147e+28
7.36126e+27
-3.98488e+36
-5.965e+36
-4.8053e+36
-2.48495e+36
-8.9756e+35
-1.8988e+35
-5.44144e+33
5.79664e+33
3.46303e+32
-1.62791e+32
2.29183e+31
1.38837e+31
6.76819e+29
-7.16187e+28
8.52681e+27
-2.82819e+36
-4.68776e+36
-4.1691e+36
-2.33008e+36
-9.2962e+35
-2.25723e+35
-1.52584e+34
5.83034e+33
7.7796e+32
-1.8085e+32
7.69333e+30
1.51481e+31
1.27259e+30
-9.8714e+28
6.22404e+27
-1.99618e+36
-3.62937e+36
-3.54093e+36
-2.16972e+36
-9.50049e+35
-2.5908e+35
-2.63322e+34
5.25272e+33
1.18655e+33
-1.71765e+32
-9.08099e+30
1.50991e+31
1.92721e+30
-1.09363e+29
8.85198e+26
-1.41242e+36
-2.81173e+36
-3.0045e+36
-2.01969e+36
-9.61764e+35
-2.90035e+35
-3.82115e+34
4.11806e+33
1.51564e+33
-1.30542e+32
-2.52808e+31
1.39655e+31
2.30365e+30
-1.08423e+29
-1.56872e+28
-1.00449e+36
-2.19569e+36
-2.56367e+36
-1.87736e+36
-9.68522e+35
-3.19509e+35
-5.07954e+34
2.55912e+33
1.78418e+33
-7.32834e+31
-3.51598e+31
1.11505e+31
2.19907e+30
-4.33933e+28
-1.47147e+28
-7.13372e+35
-1.72384e+36
-2.2055e+36
-1.74991e+36
-9.72127e+35
-3.48579e+35
-6.42726e+34
6.76401e+32
1.98033e+33
-1.47631e+31
-4.04492e+31
8.46891e+30
1.95706e+30
-6.58263e+27
-7.7737e+27
-5.0374e+35
-1.352e+36
-1.90319e+36
-1.63528e+36
-9.71113e+35
-3.75917e+35
-7.85811e+34
-1.58725e+33
2.17211e+33
4.31143e+31
-4.60793e+31
6.76818e+30
1.86416e+30
9.5938e+27
-6.36389e+27
-3.49256e+35
-1.04893e+36
-1.62688e+36
-1.5183e+36
-9.6005e+35
-3.98331e+35
-9.2802e+34
-4.30515e+33
2.3366e+33
1.08139e+32
-5.09129e+31
5.5707e+30
1.90372e+30
2.22838e+28
-6.62481e+27
-2.37751e+35
-8.0257e+35
-1.37607e+36
-1.40016e+36
-9.4034e+35
-4.16672e+35
-1.06732e+35
-7.50116e+33
2.42309e+33
1.82387e+32
-5.5033e+31
4.51503e+30
1.98691e+30
3.66105e+28
-7.29544e+27
-1.58198e+35
-6.0689e+35
-1.16112e+36
-1.2895e+36
-9.18104e+35
-4.34744e+35
-1.21897e+35
-1.1257e+34
2.42852e+33
2.65201e+32
-5.78994e+31
3.44563e+30
2.02849e+30
5.27293e+28
-6.67759e+27
-1.02226e+35
-4.51972e+35
-9.73799e+35
-1.17384e+36
-8.94419e+35
-4.52979e+35
-1.39058e+35
-1.58246e+34
2.33689e+33
3.5571e+32
-5.85596e+31
2.30064e+30
1.95695e+30
6.73409e+28
-2.98507e+27
-6.4627e+34
-3.28533e+35
-7.96129e+35
-1.05104e+36
-8.67526e+35
-4.71489e+35
-1.57614e+35
-2.13866e+34
2.10873e+33
4.51607e+32
-5.67832e+31
1.20586e+30
1.77186e+30
7.72326e+28
3.60079e+27
-3.97964e+34
-2.33055e+35
-6.33729e+35
-9.3158e+35
-8.42742e+35
-4.90879e+35
-1.77771e+35
-2.80403e+34
1.69625e+33
5.47123e+32
-5.28587e+31
3.32002e+29
1.50381e+30
8.23235e+28
1.40055e+28
-2.32234e+34
-1.61664e+35
-4.98056e+35
-8.21182e+35
-8.16848e+35
-5.09135e+35
-1.9948e+35
-3.58828e+34
1.0524e+33
6.34644e+32
-4.68511e+31
-1.66389e+29
1.17095e+30
8.29036e+28
2.98271e+28
-1.24357e+34
-1.07929e+35
-3.82618e+35
-7.14206e+35
-7.80063e+35
-5.24512e+35
-2.2286e+35
-4.50284e+34
1.29014e+32
7.02661e+32
-3.8759e+31
-1.56568e+29
7.91099e+29
6.05115e+28
3.66581e+28
-5.78106e+33
-6.77923e+34
-2.83477e+35
-6.04918e+35
-7.32032e+35
-5.36151e+35
-2.48467e+35
-5.59671e+34
-1.11759e+33
7.15878e+32
-2.82138e+31
2.62306e+29
3.36778e+29
2.53823e+28
3.50266e+28
-2.11904e+33
-3.92817e+34
-2.00469e+35
-4.96954e+35
-6.72459e+35
-5.4139e+35
-2.74542e+35
-6.87722e+34
-2.70957e+33
6.68708e+32
-1.7449e+31
6.34153e+29
5.5087e+28
1.18317e+28
3.38346e+28
-4.39761e+32
-2.03045e+34
-1.32997e+35
-3.92631e+35
-6.0032e+35
-5.37844e+35
-3.00223e+35
-8.26164e+34
-4.70448e+33
6.10276e+32
-8.73649e+30
4.45879e+29
7.52442e+28
-1.66105e+28
3.6332e+28
1.2498e+32
-8.82239e+33
-8.05786e+34
-2.94801e+35
-5.18876e+35
-5.25136e+35
-3.25654e+35
-9.56992e+34
-7.28511e+33
7.38027e+32
-4.49161e+30
7.77466e+29
1.6761e+29
1.53345e+29
1.46803e+29
1.58686e+32
-2.71566e+33
-4.20676e+34
-2.06431e+35
-4.32449e+35
-5.03237e+35
-3.50075e+35
-1.05707e+35
-1.05363e+34
1.0982e+33
-1.05811e+31
-1.22072e+30
-1.61121e+30
-7.89163e+29
-9.13189e+28
3.03128e+29
-3.10378e+32
-1.64583e+34
-1.29299e+35
-3.43996e+35
-4.71725e+35
-3.72526e+35
-1.13052e+35
-1.3966e+34
3.67799e+32
4.96566e+31
5.9653e+30
9.90621e+30
4.55487e+30
1.18938e+30
-1.03831e+32
-1.18446e+32
-2.63619e+33
-6.52315e+34
-2.54697e+35
-4.29156e+35
-3.9178e+35
-1.24378e+35
-1.91528e+34
-2.4111e+33
3.48013e+32
1.26402e+32
1.25361e+32
9.88357e+31
4.02234e+31
-1.27082e+32
-3.4083e+32
1.37478e+33
-1.75722e+34
-1.65956e+35
-3.74445e+35
-4.04929e+35
-1.38314e+35
-2.41881e+34
-7.65375e+33
-2.95821e+33
-2.73152e+33
-3.92756e+33
-4.98745e+33
-2.90651e+33
-2.58576e+32
-5.39206e+32
1.10233e+33
7.23851e+33
-8.26359e+34
-3.09155e+35
-4.08213e+35
-1.48116e+35
-2.45446e+34
-8.03066e+33
-1.07373e+34
-9.87985e+33
-1.26288e+34
-9.98836e+33
-5.48827e+33
-1.50963e+33
-4.72908e+32
2.63951e+33
8.71596e+33
-2.25206e+34
-2.37672e+35
-3.94718e+35
-1.53862e+35
-2.37985e+34
-6.46049e+32
-2.28702e+33
-4.875e+33
-4.48959e+33
-3.81129e+33
-5.25138e+33
4.37514e+34
1.99586e+34
1.00454e+34
7.0644e+33
-2.05241e+34
-1.63736e+35
-3.58169e+35
-1.55982e+35
-2.71844e+34
2.37989e+31
-4.49739e+31
-4.40812e+32
-6.62058e+32
-1.17156e+33
-4.48686e+33
-1.78714e+35
-8.49824e+34
-2.018e+34
-9.20578e+32
-6.05743e+34
-1.92217e+35
-3.11422e+35
-1.51854e+35
-3.73366e+34
-1.47057e+34
-5.7476e+33
-2.72733e+33
-1.75119e+33
-1.28061e+33
-3.64075e+33
-4.7307e+36
-1.48038e+36
-7.29299e+35
-4.73504e+35
-3.12442e+35
-3.483e+35
-4.02048e+35
-1.44233e+35
-5.40867e+34
-2.39971e+34
-1.03663e+34
-4.82175e+33
-2.60985e+33
-1.4621e+33
-3.10908e+33
-2.76943e+37
-8.31596e+36
-5.95139e+36
-3.81042e+36
-2.56322e+36
-1.66175e+36
-9.11499e+35
-4.41862e+35
-1.66718e+35
-6.11672e+34
-2.32582e+34
-9.6147e+33
-4.42136e+33
-2.10084e+33
-2.58759e+33
1.2976e+39
2.38845e+38
5.11864e+37
1.21139e+37
1.70567e+36
-1.02636e+36
-1.24357e+36
-6.85794e+35
-2.99743e+35
-1.15483e+35
-4.41814e+34
-1.78591e+34
-7.80018e+33
-3.69146e+33
-5.31189e+33
-1.22491e+40
-7.44222e+38
2.8649e+38
1.4759e+38
5.91695e+37
1.65112e+37
1.76708e+36
-3.24949e+35
-2.63348e+35
-1.09205e+35
-3.6408e+34
-9.33522e+33
-1.02621e+33
2.61075e+32
-2.5912e+32
9.09014e+39
-9.81566e+39
-2.42565e+39
-2.82312e+38
4.07001e+37
2.4723e+37
3.76432e+36
-4.02721e+34
-1.89551e+35
-1.07443e+35
-5.85511e+34
-3.27693e+34
-1.68558e+34
-6.83038e+33
4.66707e+31
9.02527e+41
3.73492e+40
-1.18264e+40
-6.19684e+38
-1.12458e+38
3.29706e+36
3.33088e+36
1.89524e+35
-8.51287e+34
1.13382e+35
1.68598e+35
1.49903e+35
9.94428e+34
4.95336e+34
2.48134e+34
8.64375e+42
1.03129e+42
3.89693e+40
-1.44678e+40
2.13523e+39
-3.15527e+37
4.77324e+37
5.91522e+37
5.24193e+37
4.39152e+37
3.48082e+37
2.51721e+37
1.56798e+37
7.76517e+36
2.92691e+36
-1.48199e+44
9.01686e+42
9.38715e+41
-1.46948e+40
-1.03303e+40
3.02505e+39
6.78746e+38
6.11529e+38
4.91184e+38
3.70118e+38
2.69007e+38
1.86027e+38
1.1648e+38
6.21328e+37
2.30203e+37
1.94257e+45
-1.3244e+44
8.74358e+42
8.60609e+41
-7.49089e+39
-5.32107e+39
6.08548e+39
3.01191e+39
2.35199e+39
1.76216e+39
1.26639e+39
8.7053e+38
5.51726e+38
3.08839e+38
1.20094e+38
-8.25658e+45
1.73268e+45
-1.21115e+44
8.53711e+42
8.82486e+41
2.50649e+40
2.39144e+40
3.19112e+40
2.58545e+40
2.16671e+40
1.72103e+40
1.26569e+40
8.18315e+39
4.37532e+39
1.70317e+39
-6.66581e+46
-6.78314e+45
1.58095e+45
-1.13093e+44
8.55544e+42
9.84723e+41
5.38789e+40
-2.78706e+39
-3.19079e+40
-5.75863e+40
-6.51256e+40
-5.81799e+40
-4.13607e+40
-2.16502e+40
-8.61694e+39
3.64472e+46
-6.52466e+46
-5.82118e+45
1.48035e+45
-1.1141e+44
3.68604e+42
-3.45112e+42
-4.10698e+42
-3.78925e+42
-3.30675e+42
-2.74966e+42
-2.1585e+42
-1.53539e+42
-9.51506e+41
-4.68587e+41
8.63122e+48
1.33448e+47
-1.76556e+47
-1.87973e+46
4.21637e+45
-4.62627e+44
-8.99706e+43
-8.38536e+43
-6.67482e+43
-4.93365e+43
-3.44531e+43
-2.40525e+43
-1.65116e+43
-1.12439e+43
-8.55377e+42
-1.01509e+50
8.07616e+48
1.88452e+47
-1.67077e+47
-2.13611e+46
4.01958e+45
-5.55173e+44
-1.46067e+44
-1.11907e+44
-8.82997e+43
-6.30028e+43
-4.00415e+43
-2.52005e+43
-1.78257e+43
-1.12328e+43
2.65637e+50
-8.97367e+49
7.75231e+48
1.67499e+47
-1.72891e+47
-2.34129e+46
4.12473e+45
-8.35574e+43
1.45368e+44
1.08322e+44
6.62836e+43
3.13083e+43
8.01739e+42
-6.4791e+41
-5.27583e+41
1.09864e+52
1.95219e+50
-8.2846e+49
6.93266e+48
6.1425e+47
-1.66921e+47
-4.26226e+46
6.85518e+45
4.39298e+45
2.14043e+45
1.33504e+45
7.17291e+44
3.31423e+44
1.21905e+44
5.86352e+43
-7.48622e+52
1.03611e+52
1.56199e+50
-7.3893e+49
6.88598e+48
1.74769e+47
-9.4787e+46
-2.8732e+45
7.51888e+45
3.24994e+45
2.27577e+45
1.55525e+45
9.9428e+44
5.2711e+44
2.83307e+44
1.11364e+52
1.73895e+50
-8.30124e+49
8.2673e+48
3.85201e+47
-1.07854e+47
-3.19101e+45
1.39976e+46
5.79798e+45
3.423e+45
2.00069e+45
1.42667e+45
1.22172e+45
8.63225e+44
5.47774e+44
2.80564e+50
-9.96517e+49
6.03981e+48
7.12658e+47
2.5418e+46
1.67642e+46
1.95256e+46
1.25522e+46
7.75079e+45
4.4932e+45
2.42082e+45
1.53775e+45
1.31211e+45
9.73066e+44
6.23864e+44
-7.17032e+49
-3.27497e+48
2.75875e+47
1.84574e+47
9.81984e+46
5.42004e+46
2.98223e+46
1.69319e+46
9.80866e+45
5.63531e+45
3.35623e+45
2.49223e+45
1.41651e+45
6.96886e+44
2.79122e+44
3.2979e+48
6.84361e+47
2.67393e+47
1.16968e+47
5.28779e+46
2.64376e+46
1.40015e+46
7.62312e+45
4.13718e+45
2.47096e+45
1.65063e+45
1.67422e+45
-3.13593e+44
-2.24573e+44
-1.02816e+44
1.38795e+47
3.33904e+46
3.68109e+45
6.15115e+44
-8.19574e+44
-1.45591e+45
-1.54946e+45
-1.53317e+45
-2.24466e+45
-2.95449e+45
-1.77626e+44
3.15018e+44
7.82146e+43
1.1374e+43
4.52211e+42
-1.33909e+46
-3.06443e+45
-3.92157e+45
-3.48364e+45
-2.6505e+45
-1.96236e+45
-1.49861e+45
-1.2251e+45
-2.04353e+45
-3.2616e+45
-1.73616e+45
-1.70258e+45
-4.12174e+44
-1.92127e+44
-9.42358e+43
-6.62671e+45
-2.58847e+45
-9.35951e+44
-3.82743e+44
-1.57715e+44
-5.62232e+43
-1.46676e+44
-2.35245e+44
-3.77755e+43
-2.25282e+45
-1.57592e+45
-1.12257e+45
-7.03247e+44
-4.44701e+44
-2.67597e+44
9.87123e+44
3.751e+44
1.66014e+44
9.30323e+43
6.17169e+43
3.8145e+43
1.35796e+43
-3.59448e+42
-1.30836e+43
-8.04444e+43
-2.9766e+44
-3.06717e+44
-2.05841e+44
-1.33871e+44
-9.24785e+43
-6.41442e+43
-2.44491e+43
-1.18513e+43
-7.32625e+42
-5.23501e+42
-3.48596e+42
-9.44628e+41
1.03403e+42
1.3792e+42
5.04897e+42
-2.26857e+43
-3.63783e+43
-3.34147e+43
-2.7882e+43
-2.36465e+43
2.03842e+42
7.11936e+41
5.13491e+41
3.95592e+41
3.36366e+41
2.71122e+41
1.40761e+41
3.84209e+40
-7.34356e+39
3.49546e+41
1.89307e+42
2.0034e+42
1.51925e+42
1.15108e+42
9.13381e+41
3.23258e+41
1.10912e+41
6.59827e+40
5.19222e+40
4.43208e+40
3.60202e+40
2.60639e+40
1.53261e+40
-2.14829e+39
-5.50587e+39
1.27687e+41
2.06864e+41
1.97748e+41
1.66968e+41
1.3399e+41
3.05501e+40
1.42304e+40
3.66282e+39
-9.59947e+37
-1.40852e+39
-1.22379e+39
1.0639e+39
3.46476e+39
5.11655e+39
3.86605e+39
-1.6003e+40
-2.52936e+40
-2.32924e+40
-1.88612e+40
-1.45151e+40
-1.06661e+40
-4.2437e+39
-1.75619e+39
-8.9801e+38
-5.27721e+38
-2.94541e+38
-1.07132e+38
2.04508e+38
1.01875e+39
2.79213e+39
5.06248e+39
4.79493e+39
3.73758e+39
2.8369e+39
2.14995e+39
1.17448e+39
4.42853e+38
2.22906e+38
1.437e+38
1.0285e+38
6.33823e+37
1.69685e+37
-1.94185e+37
-2.37422e+37
6.62646e+37
2.8236e+38
3.48102e+38
3.03104e+38
2.40213e+38
1.85662e+38
-1.65773e+37
-6.03659e+36
-6.66418e+36
-5.80499e+36
-4.70161e+36
-2.48509e+36
5.77545e+35
6.81119e+35
-6.05821e+36
-2.26601e+37
-4.35672e+37
-4.39219e+37
-3.57481e+37
-2.70996e+37
-1.83015e+37
-7.85857e+36
-2.76839e+36
-1.67596e+36
-1.30794e+36
-1.07846e+36
-7.65269e+35
-2.65771e+35
4.91063e+35
1.46379e+36
1.84856e+36
1.05293e+36
-1.82321e+35
-9.55822e+35
-9.46251e+35
7.05868e+35
-7.03586e+35
-3.00064e+35
-6.76424e+34
6.24568e+33
2.3444e+34
-6.30676e+31
-5.75458e+34
-8.89032e+34
-2.27427e+34
1.36275e+35
1.55871e+35
-2.6377e+35
-8.52711e+35
-1.12952e+36
-2.01624e+35
2.23475e+35
8.67846e+34
3.7342e+34
2.06078e+34
1.30115e+34
7.13074e+33
-1.98559e+32
-1.43341e+34
-4.97341e+34
-1.76023e+35
-4.59292e+35
-8.50162e+35
-1.36294e+36
-1.80445e+36
-1.48365e+36
-1.83824e+34
-6.92203e+33
-3.79609e+33
-2.63301e+33
-1.94639e+33
-1.1608e+33
-1.85878e+32
3.10455e+32
-8.48789e+33
-1.06246e+35
-3.06068e+35
-6.1281e+35
-1.14116e+36
-1.85304e+36
-2.303e+36
-4.65251e+32
-2.02084e+32
-1.31564e+31
3.64846e+31
4.48963e+31
2.6903e+31
2.63809e+29
-1.68389e+32
-1.03851e+34
-1.33078e+35
-3.58963e+35
-6.63283e+35
-1.06359e+36
-1.60307e+36
-2.35906e+36
2.07379e+32
7.93012e+31
4.45515e+31
3.20397e+31
2.51596e+31
1.80858e+31
9.7052e+30
-2.32406e+32
-1.34102e+34
-1.77818e+35
-4.63415e+35
-8.33612e+35
-1.30962e+36
-1.91323e+36
-2.65085e+36
7.26655e+30
3.73076e+30
4.64839e+29
-6.7125e+29
-9.06428e+29
-4.87633e+29
2.27822e+30
-2.537e+32
-1.63187e+34
-2.26645e+35
-5.78233e+35
-1.02926e+36
-1.62162e+36
-2.38778e+36
-3.33225e+36
-3.83946e+30
-1.61864e+30
-7.24754e+29
-3.94001e+29
-2.44503e+29
-1.1122e+29
2.14624e+30
-2.83717e+32
-1.93671e+34
-2.72551e+35
-6.8573e+35
-1.22615e+36
-1.95555e+36
-2.91982e+36
-4.13623e+36
3.49846e+29
1.42139e+29
8.0325e+28
5.55194e+28
4.33248e+28
7.33894e+28
2.61867e+30
-3.18886e+32
-2.24772e+34
-2.91709e+35
-7.26797e+35
-1.34006e+36
-2.19249e+36
-3.34755e+36
-4.84815e+36
6.25094e+27
3.14183e+27
1.88514e+26
-6.351e+26
8.0216e+26
4.739e+28
3.11668e+30
-3.61028e+32
-2.61511e+34
-2.57637e+35
-6.39495e+35
-1.21469e+36
-2.05214e+36
-3.22116e+36
-4.78639e+36
-3.24012e+27
-1.34686e+27
-8.24751e+26
-5.89571e+26
1.0436e+27
5.02525e+28
3.80714e+30
-4.11585e+32
-1.42592e+34
-1.79171e+35
-4.77846e+35
-9.28721e+35
-1.57943e+36
-2.49383e+36
-3.73781e+36
-1.76109e+26
-1.36339e+26
-8.57401e+25
-1.903e+25
1.38828e+27
5.11375e+28
4.60617e+30
-5.00603e+32
-9.83733e+33
-1.01525e+35
-2.89441e+35
-5.70712e+35
-9.65052e+35
-1.51269e+36
-2.25984e+36
3.82966e+25
-2.53949e+25
-5.89577e+25
-2.0811e+25
1.27068e+27
4.954e+28
5.34939e+30
-6.01504e+32
-8.46413e+33
-4.45727e+34
-1.23096e+35
-2.53066e+35
-4.4275e+35
-7.05629e+35
-1.06444e+36
-4.78474e+25
-7.17317e+25
-8.61229e+25
-2.94624e+25
1.20728e+27
4.73707e+28
6.05604e+30
-6.88738e+32
-4.9841e+33
-1.66783e+34
-4.1498e+34
-8.58153e+34
-1.54688e+35
-2.53819e+35
-3.94062e+35
-4.7104e+25
-7.95879e+25
-9.43778e+25
-1.94675e+25
1.17147e+27
4.47577e+28
6.85649e+30
-9.70995e+31
-1.28085e+33
-4.38233e+33
-1.04765e+34
-2.10972e+34
-3.81475e+34
-6.40352e+34
-1.02023e+35
-5.55075e+25
-9.40899e+25
-1.0778e+26
-4.10067e+24
1.13094e+27
3.83897e+28
7.77659e+30
1.10384e+32
1.26084e+32
-1.57477e+32
-8.75246e+32
-2.22192e+33
-4.49523e+33
-8.14617e+33
-1.37921e+34
-6.46538e+25
-1.09912e+26
-1.22424e+26
1.65036e+25
1.11973e+27
2.68006e+28
8.83995e+30
9.45362e+31
2.21782e+32
3.65043e+32
5.19915e+32
6.7903e+32
8.35766e+32
9.71261e+32
1.04684e+33
-7.39687e+25
-1.25995e+26
-1.36553e+26
4.26242e+25
1.19328e+27
1.51982e+28
5.21636e+30
3.64792e+31
8.28938e+31
1.44633e+32
2.24041e+32
3.27537e+32
4.6434e+32
6.43308e+32
8.73695e+32
-8.43875e+25
-1.4386e+26
-1.50939e+26
7.95285e+25
1.37443e+27
1.03362e+28
7.08104e+29
7.01026e+30
1.59218e+31
2.7164e+31
4.14325e+31
6.02752e+31
8.58528e+31
1.20083e+32
1.65009e+32
-9.60195e+25
-1.64187e+26
-1.67365e+26
1.27516e+26
1.69554e+27
9.81662e+27
1.98608e+29
8.01255e+29
1.60057e+30
2.54575e+30
3.68937e+30
5.19996e+30
7.21523e+30
9.85035e+30
1.32474e+31
-1.08334e+26
-1.85745e+26
-1.843e+26
1.82024e+26
2.07612e+27
1.13868e+28
4.15487e+28
8.15346e+28
1.12942e+29
1.41783e+29
1.72374e+29
2.09557e+29
2.55488e+29
3.11143e+29
3.77816e+29
-1.20449e+26
-2.1438e+26
-2.32518e+26
1.14601e+26
1.52923e+27
4.89525e+27
1.00165e+28
1.51502e+28
1.89999e+28
2.18019e+28
2.40593e+28
2.62466e+28
2.84873e+28
3.07725e+28
3.3087e+28
-1.14058e+26
-2.22182e+26
-3.30819e+26
-3.55578e+26
-1.69016e+26
3.24587e+26
1.062e+27
1.84282e+27
2.52132e+27
3.07638e+27
3.5264e+27
3.90588e+27
4.22676e+27
4.48923e+27
4.69693e+27
-8.14892e+25
-1.6497e+26
-2.7284e+26
-3.82385e+26
-4.60407e+26
-4.85152e+26
-4.44806e+26
-3.51307e+26
-2.38238e+26
-1.28082e+26
-2.69419e+25
6.41704e+25
1.45039e+26
2.15322e+26
2.74686e+26
-3.79966e+25
-7.40675e+25
-1.20123e+26
-1.67954e+26
-2.06509e+26
-2.31961e+26
-2.42673e+26
-2.3981e+26
-2.28541e+26
-2.14164e+26
-1.99071e+26
-1.83649e+26
-1.67862e+26
-1.51864e+26
-1.36046e+26
-1.18742e+25
-2.02429e+25
-2.91361e+25
-3.76774e+25
-4.44093e+25
-4.91043e+25
-5.18599e+25
-5.29101e+25
-5.27687e+25
-5.20249e+25
-5.09761e+25
-4.9644e+25
-4.79929e+25
-4.60272e+25
-4.38099e+25
-2.2761e+24
-3.49724e+24
-4.28432e+24
-4.83227e+24
-5.16202e+24
-5.35889e+24
-5.45829e+24
-5.4874e+24
-5.48474e+24
-5.47182e+24
-5.44487e+24
-5.39224e+24
-5.30578e+24
-5.1831e+24
-5.02733e+24
-8.69353e+22
-3.53513e+23
-4.60369e+23
-4.7284e+23
-4.41336e+23
-3.96509e+23
-3.50781e+23
-3.10001e+23
-2.77482e+23
-2.53033e+23
-2.34215e+23
-2.18972e+23
-2.06093e+23
-1.94925e+23
-1.84817e+23
1.89004e+23
1.16578e+23
5.25117e+22
1.58791e+22
-3.19817e+21
-1.19232e+22
-1.47124e+22
-1.44181e+22
-1.29213e+22
-1.09935e+22
-8.81346e+21
-6.58455e+21
-4.48799e+21
-2.6435e+21
-1.00139e+21
8.01091e+22
7.18391e+22
5.41369e+22
3.98976e+22
2.91045e+22
2.12244e+22
1.55478e+22
1.14528e+22
8.53856e+21
6.48787e+21
5.01055e+21
3.91185e+21
3.08012e+21
2.44503e+21
1.97655e+21
1.37373e+22
1.45908e+22
1.2654e+22
1.0518e+22
8.54632e+21
6.87694e+21
5.51406e+21
4.44868e+21
3.64959e+21
3.04072e+21
2.55077e+21
2.14258e+21
1.79887e+21
1.50917e+21
1.26683e+21
5.90855e+20
9.44414e+20
1.00876e+21
9.54848e+20
8.51617e+20
7.38021e+20
6.30568e+20
5.39857e+20
4.67961e+20
4.08552e+20
3.56291e+20
3.0935e+20
2.67265e+20
2.29893e+20
1.97018e+20
-1.78873e+20
-1.2433e+20
-7.49129e+19
-4.35852e+19
-2.4176e+19
-1.22311e+19
-4.86097e+18
-2.74172e+17
2.59155e+18
4.31923e+18
5.27386e+18
5.70282e+18
5.77259e+18
5.60799e+18
5.27239e+18
-4.69037e+19
-3.55659e+19
-2.499e+19
-1.80741e+19
-1.33787e+19
-1.00998e+19
-7.78958e+18
-6.17877e+18
-5.01854e+18
-4.12817e+18
-3.41153e+18
-2.82132e+18
-2.33115e+18
-1.92314e+18
-1.58855e+18
-8.8447e+18
-6.29879e+18
-4.07108e+18
-2.73569e+18
-1.90772e+18
-1.378e+18
-1.03043e+18
-7.99413e+17
-6.38998e+17
-5.19578e+17
-4.25982e+17
-3.5063e+17
-2.89152e+17
-2.38641e+17
-1.97566e+17
-1.35142e+18
-9.9969e+17
-6.50712e+17
-4.31537e+17
-2.93509e+17
-2.05944e+17
-1.49803e+17
-1.13147e+17
-8.77338e+16
-6.89875e+16
-5.46367e+16
-4.34554e+16
-3.46619e+16
-2.77112e+16
-2.22519e+16
-1.30029e+17
-1.00561e+17
-6.81234e+16
-4.69156e+16
-3.28367e+16
-2.36463e+16
-1.7707e+16
-1.37292e+16
-1.08443e+16
-8.62773e+15
-6.88338e+15
-5.49844e+15
-4.39462e+15
-3.51484e+15
-2.81612e+15
-3.27012e+15
-3.55066e+15
-2.57577e+15
-1.89589e+15
-1.40594e+15
-1.07183e+15
-8.48567e+14
-6.88867e+14
-5.62959e+14
-4.59578e+14
-3.74415e+14
-3.04471e+14
-2.47162e+14
-2.00487e+14
-1.62371e+14
2.23698e+15
1.07893e+15
5.18006e+14
2.72077e+14
1.54938e+14
9.41847e+13
6.07597e+13
4.14403e+13
2.95546e+13
2.17084e+13
1.62281e+13
1.22615e+13
9.33022e+12
7.12572e+12
5.529e+12
6.29182e+14
3.53095e+14
1.80562e+14
9.99232e+13
5.92766e+13
3.74555e+13
2.50597e+13
1.75452e+13
1.26623e+13
9.30756e+12
6.92293e+12
5.19416e+12
3.92423e+12
2.98252e+12
2.29015e+12
7.97251e+13
5.10319e+13
2.85054e+13
1.69108e+13
1.06258e+13
7.0675e+12
4.93104e+12
3.55009e+12
2.603e+12
1.92727e+12
1.4346e+12
1.07198e+12
8.03595e+11
6.04566e+11
4.57482e+11
4.33272e+12
3.10577e+12
1.91864e+12
1.23721e+12
8.35919e+11
5.91376e+11
4.34104e+11
3.26211e+11
2.47574e+11
1.88304e+11
1.43195e+11
1.08776e+11
8.24929e+10
6.25371e+10
4.74928e+10
1.28622e+10
-3.90852e+08
-1.40444e+09
8.91728e+08
2.34658e+09
3.00133e+09
3.15982e+09
3.02701e+09
2.73503e+09
2.37435e+09
2.00334e+09
1.65345e+09
1.34074e+09
1.07402e+09
8.5146e+08
-2.45425e+10
-1.32629e+10
-7.80619e+09
-4.88671e+09
-3.26532e+09
-2.2986e+09
-1.68588e+09
-1.27288e+09
-9.74588e+08
-7.4842e+08
-5.73443e+08
-4.3765e+08
-3.32821e+08
-2.5256e+08
-1.92655e+08
-8.5616e+09
-4.11951e+09
-1.88096e+09
-9.57569e+08
-5.36669e+08
-3.25915e+08
-2.11986e+08
-1.45626e+08
-1.03761e+08
-7.55121e+07
-5.5608e+07
-4.12458e+07
-3.07559e+07
-2.30429e+07
-1.74859e+07
-1.39548e+09
-7.81233e+08
-3.899e+08
-2.12436e+08
-1.25162e+08
-7.8609e+07
-5.19188e+07
-3.55526e+07
-2.4856e+07
-1.75569e+07
-1.2469e+07
-8.89254e+06
-6.37167e+06
-4.59437e+06
-3.35627e+06
-1.15907e+08
-6.65838e+07
-3.53747e+07
-2.04987e+07
-1.28346e+07
-8.52381e+06
-5.90758e+06
-4.20986e+06
-3.04092e+06
-2.20608e+06
-1.60137e+06
-1.16284e+06
-846098
-618955
-457979
-9.27038e+06
-4.0662e+06
-1.74334e+06
-895683
-526493
-338978
-232253
-165467
-120191
-87918.6
-64433.4
-47276.1
-34781.2
-25765.6
-19309.1
-284237
-198054
-81449.4
-41851.2
-23363.2
-13606.7
-8095.75
-4816.68
-2810.85
-1591.27
-868.356
-451.494
-216.896
-90.3032
-18.683
256730
98584.1
36705
14984.2
6694.11
3230.67
1680.87
943.525
568.941
363.996
243.531
168.292
118.879
85.0126
62.9901
50848.8
24816.3
10928.1
5419.6
2953.75
1732.16
1075.28
695.183
461.078
310.707
211.779
145.745
101.246
71.0849
50.6712
3022.56
1794.61
911.412
509.394
306.469
194.997
129.387
88.2529
61.104
42.6613
29.9712
21.1844
15.0832
10.8403
7.87203
-55.8252
-23.8424
-7.12991
-1.27442
0.706426
1.25083
1.2762
1.12284
0.92176
0.728168
0.563155
0.43115
0.329253
0.251973
0.192341
-12.8559
-8.04211
-4.44082
-2.51995
-1.51079
-0.954562
-0.63033
-0.42932
-0.297645
-0.208527
-0.147277
-0.104761
-0.0750378
-0.0541227
-0.0393928
-2.56683
-1.05923
-0.448989
-0.21324
-0.11364
-0.066857
-0.0425854
-0.0286966
-0.0200159
-0.014246
-0.0102691
-0.00746592
-0.0054666
-0.00402916
-0.00300137
-0.578901
-0.262361
-0.106736
-0.0485164
-0.0244638
-0.0135075
-0.00801817
-0.00501766
-0.0032547
-0.00216468
-0.00146559
-0.00100477
-0.000696203
-0.000487699
-0.000347127
-0.0722572
-0.0327833
-0.013924
-0.00657884
-0.0034863
-0.00202536
-0.00125743
-0.000815765
-0.00054406
-0.000369843
-0.000254968
-0.000177534
-0.000124655
-8.82512e-05
-6.3038e-05
-0.0106756
-0.00355996
-0.00121587
-0.000499853
-0.000245933
-0.000137279
-8.35146e-05
-5.36883e-05
-3.57095e-05
-2.43114e-05
-1.68382e-05
-1.18018e-05
-8.34959e-06
-5.95887e-06
-4.28626e-06
-0.0011288
-0.000390889
-0.000120312
-4.93331e-05
-2.41093e-05
-1.30713e-05
-7.57989e-06
-4.58669e-06
-2.85487e-06
-1.81708e-06
-1.17837e-06
-7.75302e-07
-5.16377e-07
-3.48313e-07
-2.36839e-07
0.000121278
3.11409e-05
8.53946e-06