/*--------------------------------*- C++ -*----------------------------------*\
  =========                 |
  \\      /  F ield         | OpenFOAM: The Open Source CFD Toolbox
   \\    /   O peration     | Website:  https://openfoam.org
    \\  /    A nd           | Version:  7
     \\/     M anipulation  |
\*---------------------------------------------------------------------------*/
FoamFile
{
    version     2.0;
    format      ascii;
    class       volScalarField;
    location    "2.7";
    object      T;
}
// * * * * * * * * * * * * * * * * * * * * * * * * * * * * * * * * * * * * * //

dimensions      [0 0 0 1 0 0 0];

internalField   nonuniform List<scalar> 
32100
(
5.25882e+73
-7.15795e+72
2.5933e+71
5.05643e+70
-6.4779e+69
-6.6698e+68
1.11621e+68
-3.27776e+66
-1.12834e+66
1.48722e+65
5.75309e+63
-3.79319e+62
1.93643e+60
1.19899e+60
4.78393e+59
-7.84004e+72
2.62055e+71
5.44863e+70
-6.62388e+69
-7.02762e+68
1.14978e+68
-3.26205e+66
-1.16111e+66
1.56315e+65
1.25516e+64
1.11619e+63
-4.78591e+62
6.81875e+60
8.67597e+59
3.22189e+59
2.55567e+71
6.02987e+70
-6.85141e+69
-7.47037e+68
1.19796e+68
-3.32311e+66
-1.22449e+66
1.5688e+65
9.11344e+63
-2.48516e+63
-1.54786e+62
-2.9579e+62
7.97736e+60
1.12436e+60
2.6312e+59
6.86827e+70
-7.18834e+69
-8.50192e+68
1.27583e+68
-2.6351e+66
-1.37155e+66
1.38852e+65
1.0168e+64
-2.41548e+63
-1.68726e+62
-2.14313e+62
-1.34965e+62
7.95332e+60
1.54956e+60
1.89853e+59
-6.69416e+69
-1.0231e+69
9.65285e+67
-4.23564e+65
-7.84953e+65
5.28731e+64
-1.08429e+64
-1.95367e+63
1.30079e+62
-7.43557e+61
-8.31518e+61
-4.37559e+61
7.25789e+60
1.6119e+60
1.00138e+59
-5.89207e+68
4.40559e+67
-3.81918e+67
9.00132e+65
7.17348e+65
-9.00169e+64
-2.38769e+64
3.28855e+62
1.18146e+62
-3.32476e+61
-9.63227e+60
-6.55167e+60
5.64496e+60
1.25026e+60
2.43431e+58
5.79534e+68
-8.95828e+67
-3.64102e+67
2.09258e+66
5.77546e+65
-9.29777e+64
-2.1637e+64
7.21175e+61
1.0523e+62
-1.67404e+61
3.81981e+60
3.32065e+60
3.51914e+60
7.19994e+59
-2.19401e+58
3.85857e+68
-7.7066e+67
-3.41211e+67
1.53682e+66
5.74131e+65
-7.92833e+64
-2.17767e+64
-1.56399e+62
1.14014e+62
-1.56178e+61
3.47034e+60
3.2046e+60
1.65808e+60
2.86716e+59
-3.80142e+58
3.5023e+68
-6.39674e+67
-3.34834e+67
1.11228e+66
5.82239e+65
-6.77097e+64
-2.16976e+64
-3.56621e+62
1.16846e+62
-1.57079e+61
1.10884e+60
1.47725e+60
5.44285e+59
5.35632e+58
-3.32878e+58
3.18833e+68
-5.33958e+67
-3.25318e+67
7.00451e+65
5.82243e+65
-5.58909e+64
-2.14104e+64
-5.59485e+62
1.1753e+62
-1.4148e+61
-8.93844e+58
7.21513e+59
1.031e+59
-2.23723e+58
-2.06914e+58
2.88084e+68
-4.34998e+67
-3.14754e+67
2.88577e+65
5.77057e+65
-4.40939e+64
-2.09541e+64
-7.56931e+62
1.15358e+62
-1.17733e+61
-5.50748e+59
5.23023e+59
7.86767e+57
-2.47854e+58
-9.49392e+57
2.59617e+68
-3.51793e+67
-3.0184e+67
-1.06364e+65
5.67676e+65
-3.25882e+64
-2.03451e+64
-9.43479e+62
1.09853e+62
-9.26287e+60
-7.58545e+59
4.34693e+59
1.74367e+58
-1.12714e+58
-2.94429e+57
2.28967e+68
-3.02328e+67
-2.77517e+67
-4.20642e+65
5.50009e+65
-2.16869e+64
-1.9621e+64
-1.11357e+63
1.01104e+62
-6.91969e+60
-8.72027e+59
3.49043e+59
2.42223e+58
-3.407e+57
-4.8994e+56
1.76798e+68
-2.4067e+67
-2.19301e+67
-6.00116e+65
4.76773e+65
-1.26472e+64
-1.8604e+64
-1.25444e+63
8.91604e+61
-4.80808e+60
-9.82546e+59
2.92606e+59
2.12976e+58
-1.54343e+57
-5.03498e+55
1.04188e+68
-1.51305e+67
-1.72082e+67
-6.88181e+65
3.8031e+65
-5.03751e+63
-1.60463e+64
-1.30389e+63
7.46985e+61
-2.89864e+60
-1.12806e+60
2.96836e+59
2.5446e+58
-1.1743e+57
3.97757e+55
8.44529e+67
-7.41425e+66
-1.4679e+67
-7.8231e+65
3.20252e+65
2.1209e+63
-1.37163e+64
-1.35593e+63
6.09774e+61
-1.00792e+60
-1.28925e+60
3.03177e+59
3.57495e+58
-1.19214e+57
5.99385e+55
8.00247e+67
-3.56575e+66
-1.321e+67
-8.82284e+65
2.91381e+65
8.69527e+63
-1.25085e+64
-1.46262e+63
4.74159e+61
8.48642e+59
-1.41261e+60
2.74692e+59
4.36281e+58
-1.09471e+57
4.3952e+55
6.96715e+67
-1.41323e+66
-1.23652e+67
-9.98011e+65
2.7179e+65
1.42213e+64
-1.16117e+64
-1.58796e+63
3.13538e+61
2.68344e+60
-1.48554e+60
2.30881e+59
4.85811e+58
-7.49652e+56
4.57296e+54
6.09328e+67
2.48745e+65
-1.15178e+67
-1.11121e+66
2.49325e+65
1.94676e+64
-1.07253e+64
-1.72262e+63
1.22149e+61
4.44032e+60
-1.50662e+60
1.7987e+59
5.13512e+58
-2.18958e+56
-4.44252e+55
5.2993e+67
1.68052e+66
-1.06152e+67
-1.21655e+66
2.23547e+65
2.45412e+64
-9.74302e+63
-1.85294e+63
-1.0249e+61
6.027e+60
-1.47455e+60
1.28949e+59
5.41766e+58
4.34098e+56
-9.61892e+55
4.53827e+67
2.82607e+66
-9.65727e+66
-1.31043e+66
1.94833e+65
2.93365e+64
-8.63538e+63
-1.97151e+63
-3.61925e+61
7.38765e+60
-1.38896e+60
7.54925e+58
5.54091e+58
1.17219e+57
-1.43516e+56
3.82222e+67
3.70365e+66
-8.6867e+66
-1.39333e+66
1.63266e+65
3.37414e+64
-7.39314e+63
-2.07749e+63
-6.59018e+61
8.47512e+60
-1.25318e+60
2.16689e+58
5.37637e+58
1.89818e+57
-1.74352e+56
3.1761e+67
4.3489e+66
-7.73794e+66
-1.46209e+66
1.28965e+65
3.75923e+64
-6.01764e+63
-2.169e+63
-9.99421e+61
9.2287e+60
-1.071e+60
-2.88877e+58
5.17118e+58
2.59926e+57
-1.86546e+56
2.6058e+67
4.79613e+66
-6.81463e+66
-1.51359e+66
9.19216e+64
4.0565e+64
-4.51738e+63
-2.24324e+63
-1.38971e+62
9.52425e+60
-8.40602e+59
-7.67548e+58
4.99563e+58
3.32206e+57
-1.84781e+56
2.11334e+67
5.07758e+66
-5.93499e+66
-1.54887e+66
5.24731e+64
4.25214e+64
-2.89961e+63
-2.29267e+63
-1.83666e+62
9.15685e+60
-5.52719e+59
-1.23462e+59
4.81573e+58
4.1153e+57
-1.7352e+56
1.69359e+67
5.19905e+66
-5.09181e+66
-1.56562e+66
1.10647e+64
4.3379e+64
-1.17776e+63
-2.30612e+63
-2.34643e+62
7.90106e+60
-1.99694e+59
-1.70883e+59
4.61132e+58
5.05903e+57
-1.54691e+56
1.3462e+67
5.21011e+66
-4.28798e+66
-1.5644e+66
-3.19891e+64
4.2992e+64
6.2956e+62
-2.2744e+63
-2.92101e+62
5.45547e+60
2.25327e+59
-2.16761e+59
4.27159e+58
6.13304e+57
-1.22076e+56
1.05551e+67
5.17072e+66
-3.54412e+66
-1.54987e+66
-7.62789e+64
4.1181e+64
2.49882e+63
-2.18623e+63
-3.54982e+62
1.42869e+60
7.17588e+59
-2.53852e+59
3.656e+58
7.13934e+57
-6.7905e+55
8.03504e+66
5.05013e+66
-2.87189e+66
-1.52267e+66
-1.21251e+65
3.77983e+64
4.40007e+63
-2.03119e+63
-4.22484e+62
-4.78004e+60
1.256e+60
-2.79456e+59
2.81936e+58
8.10375e+57
8.06928e+54
5.85413e+66
4.76723e+66
-2.26907e+66
-1.47683e+66
-1.65894e+65
3.26546e+64
6.28851e+63
-1.79612e+63
-4.94712e+62
-1.37821e+61
1.80325e+60
-2.89523e+59
1.75581e+58
9.05945e+57
1.07028e+56
4.06956e+66
4.30359e+66
-1.72359e+66
-1.40582e+66
-2.09093e+65
2.55404e+64
8.10263e+63
-1.46327e+63
-5.70342e+62
-2.64712e+61
2.31225e+60
-2.73135e+59
4.26368e+57
9.71609e+57
2.24188e+56
2.745e+66
3.78706e+66
-1.21954e+66
-1.31325e+66
-2.49612e+65
1.62753e+64
9.74307e+63
-1.01136e+63
-6.45526e+62
-4.39067e+61
2.69469e+60
-2.23025e+59
-1.00682e+58
1.01165e+58
3.57824e+56
1.79817e+66
3.37512e+66
-7.67719e+65
-1.20284e+66
-2.857e+65
4.6844e+63
1.10556e+64
-4.19553e+62
-7.11714e+62
-6.74567e+61
2.7775e+60
-1.39418e+59
-2.61796e+58
1.07545e+58
5.41217e+56
1.01637e+66
3.05891e+66
-3.75099e+65
-1.0775e+66
-3.16904e+65
-9.33297e+63
1.18544e+64
3.15509e+62
-7.55457e+62
-9.82881e+61
2.22475e+60
5.04727e+56
-4.76717e+58
1.17338e+58
8.44485e+56
3.5471e+65
2.69385e+66
-5.16522e+64
-9.40726e+65
-3.43109e+65
-2.58393e+64
1.18825e+64
1.17117e+63
-7.59831e+62
-1.37276e+62
4.50101e+59
2.31906e+59
-7.4487e+58
1.2427e+58
1.354e+57
-1.34857e+65
2.25583e+66
2.06753e+65
-7.94988e+65
-3.63076e+65
-4.4754e+64
1.07594e+64
2.1003e+63
-7.05394e+62
-1.83702e+62
-3.47802e+60
5.81362e+59
-1.03541e+59
1.17245e+58
2.1813e+57
-4.819e+65
1.84565e+66
4.15429e+65
-6.45004e+65
-3.75416e+65
-6.54836e+64
8.29172e+63
3.03926e+63
-5.75077e+62
-2.34119e+62
-1.07305e+61
1.03971e+60
-1.24066e+59
7.56031e+57
3.43061e+57
-7.2763e+65
1.47813e+66
5.78711e+65
-4.92656e+65
-3.77911e+65
-8.67619e+64
4.40249e+63
3.8945e+63
-3.55795e+62
-2.82731e+62
-2.23838e+61
1.43043e+60
-1.09669e+59
-2.32492e+57
5.01378e+57
-8.82562e+65
1.12939e+66
6.90838e+65
-3.37366e+65
-3.66307e+65
-1.06301e+65
-9.82318e+62
4.53975e+63
-4.40564e+61
-3.19222e+62
-3.87472e+61
1.45357e+60
-3.13005e+58
-1.88921e+58
6.53778e+57
-9.54929e+65
7.95028e+65
7.4723e+65
-1.85852e+65
-3.3509e+65
-1.2222e+65
-7.75625e+63
4.81796e+63
3.42435e+62
-3.30011e+62
-5.90251e+61
7.10909e+59
1.46059e+59
-4.20103e+58
7.14222e+57
-9.43744e+65
4.7768e+65
7.37873e+65
-4.89136e+64
-2.8743e+65
-1.33243e+65
-1.55068e+64
4.53332e+63
7.67843e+62
-3.06153e+62
-8.12808e+61
-1.23068e+60
4.5671e+59
-6.61406e+58
4.98789e+57
-8.56494e+65
2.07738e+65
6.66814e+65
6.31958e+64
-2.32012e+65
-1.38695e+65
-2.35889e+64
3.6615e+63
1.20474e+63
-2.46946e+62
-1.01761e+62
-4.62277e+60
7.63816e+59
-6.97563e+58
-9.42682e+56
-7.27595e+65
1.71797e+64
5.56761e+65
1.461e+65
-1.74606e+65
-1.38498e+65
-3.13115e+64
2.1687e+63
1.62246e+63
-1.5528e+62
-1.13781e+62
-8.72407e+60
9.44735e+59
-4.34495e+58
-9.41377e+57
-5.96119e+65
-9.59622e+64
4.42937e+65
2.01526e+65
-1.18729e+65
-1.33176e+65
-3.81768e+64
1.93059e+62
1.82945e+63
-4.20848e+61
-1.18727e+62
-1.28984e+61
9.99459e+59
5.7927e+57
-1.87698e+58
-4.80692e+65
-1.5764e+65
3.43872e+65
2.33217e+65
-6.68247e+64
-1.23888e+65
-4.39066e+64
-2.008e+63
1.84597e+63
7.07535e+61
-1.20376e+62
-1.63577e+61
8.41851e+59
7.33605e+58
-3.93049e+58
-3.86188e+65
-1.91623e+65
2.57567e+65
2.46492e+65
-2.04165e+64
-1.11929e+65
-4.86346e+64
-4.28289e+63
1.77486e+63
1.70627e+62
-1.06778e+62
-1.72822e+61
5.06098e+59
1.06992e+59
-2.35534e+58
-3.0892e+65
-2.09636e+65
1.82074e+65
2.47147e+65
1.97477e+64
-9.83333e+64
-5.26479e+64
-6.68812e+63
1.62554e+63
2.57868e+62
-8.98534e+61
-1.70689e+61
2.3468e+59
9.11251e+58
-1.09794e+58
-2.4456e+65
-2.15215e+65
1.13488e+65
2.36653e+65
5.34037e+64
-8.30762e+64
-5.5749e+64
-9.20956e+63
1.45508e+63
3.34456e+62
-7.93534e+61
-1.75213e+61
6.65761e+58
8.68881e+58
-7.68968e+57
-1.90027e+65
-2.1035e+65
5.23987e+64
2.15984e+65
8.03814e+64
-6.58367e+64
-5.72297e+64
-1.17845e+64
1.22411e+63
4.11353e+62
-7.08773e+61
-1.84603e+61
-6.98793e+58
9.12123e+58
-7.63827e+57
-1.44674e+65
-1.96431e+65
2.59328e+63
1.89462e+65
1.01327e+65
-4.72111e+64
-5.69602e+64
-1.43382e+64
8.92198e+62
4.85878e+62
-6.23099e+61
-1.95545e+61
-2.06623e+59
9.84276e+58
-8.99435e+57
-1.07758e+65
-1.77341e+65
-3.68264e+64
1.58654e+65
1.1671e+65
-2.82116e+64
-5.57373e+64
-1.69189e+64
4.51582e+62
5.54659e+62
-5.26485e+61
-2.04079e+61
-3.48497e+59
9.8996e+58
-1.09816e+58
-7.80627e+64
-1.55318e+65
-6.84411e+64
1.22921e+65
1.26481e+65
-8.94332e+63
-5.36071e+64
-1.96729e+64
-1.1588e+62
6.14817e+62
-4.11311e+61
-2.04664e+61
-4.80358e+59
8.45678e+58
-1.34183e+58
-5.51747e+64
-1.30776e+65
-8.98297e+64
8.61987e+64
1.3094e+65
1.0788e+64
-4.98735e+64
-2.25367e+64
-8.32251e+62
6.64619e+62
-2.85232e+61
-1.95972e+61
-5.80108e+59
5.56205e+58
-1.84242e+58
-3.81092e+64
-1.06265e+65
-1.00192e+65
5.11233e+64
1.30593e+65
3.06422e+64
-4.42274e+64
-2.5331e+64
-1.71518e+63
6.98293e+62
-1.61644e+61
-1.79153e+61
-6.35644e+59
1.69463e+58
-3.10499e+58
-2.53625e+64
-8.40596e+64
-1.03077e+65
1.76256e+64
1.23338e+65
4.98053e+64
-3.63427e+64
-2.78551e+64
-2.77378e+63
7.11361e+62
-5.52198e+60
-1.54104e+61
-6.47196e+59
-2.42949e+58
-5.17032e+58
-1.59429e+64
-6.40811e+64
-1.00311e+65
-1.42077e+64
1.08078e+65
6.72426e+64
-2.60065e+64
-2.98709e+64
-4.00715e+63
7.00386e+62
1.38961e+60
-1.18907e+61
-6.33505e+59
-4.58752e+58
-5.71777e+58
-9.19985e+63
-4.62094e+64
-9.21955e+64
-4.21263e+64
8.61194e+64
8.15388e+64
-1.32271e+64
-3.13224e+64
-5.39828e+63
6.41933e+62
3.46338e+60
-7.13953e+60
-5.44976e+59
-4.8451e+58
-5.29768e+58
-4.73223e+63
-3.10227e+64
-7.96282e+64
-6.36558e+64
5.84297e+64
9.08672e+64
2.04133e+63
-3.1875e+64
-6.91173e+63
5.4009e+62
2.08536e+60
-2.34028e+60
-5.741e+59
-7.93798e+58
-5.44941e+58
-2.0865e+63
-1.8915e+64
-6.40433e+64
-7.75202e+64
2.69762e+64
9.36561e+64
1.96818e+64
-3.08488e+64
-8.56473e+63
4.18341e+62
8.3707e+59
6.00539e+59
-8.28136e+59
-1.64171e+59
-8.00245e+58
-7.05036e+62
-1.00454e+64
-4.70858e+64
-8.29206e+64
-5.4076e+63
8.85491e+64
3.90262e+64
-2.74616e+64
-1.04755e+64
4.00888e+62
1.27772e+61
6.96776e+59
-9.53261e+59
-4.08154e+59
-2.02898e+59
-1.08644e+62
-4.14798e+63
-3.03423e+64
-8.00646e+64
-3.64725e+64
7.40839e+64
5.87299e+64
-2.07662e+64
-1.22848e+64
4.85219e+62
3.91568e+61
-8.98041e+60
-3.87194e+60
-2.59192e+60
-1.03211e+60
1.90207e+61
-8.86656e+62
-1.53715e+64
-6.93224e+64
-6.40839e+64
4.88639e+64
7.61997e+64
-1.01273e+64
-1.2847e+64
-9.1839e+61
1.47876e+62
5.32738e+60
1.7737e+61
9.25816e+60
1.99452e+60
-3.4051e+61
1.18676e+62
-3.95057e+63
-5.11771e+64
-8.49527e+64
1.28234e+64
8.71128e+64
3.9979e+63
-1.36708e+64
-1.67876e+63
9.90612e+61
-6.32281e+61
-6.31548e+61
-3.19021e+61
-5.6291e+60
-4.15711e+61
-1.40012e+61
1.84183e+63
-2.74414e+64
-9.39249e+64
-3.04797e+64
8.70453e+64
2.10922e+64
-1.32665e+64
-3.67009e+63
-1.40839e+63
-1.12623e+63
-1.446e+63
-1.85508e+63
-1.1547e+63
3.57862e+61
-3.1981e+61
1.97127e+63
-5.74629e+63
-8.52719e+64
-7.31909e+64
7.36973e+64
3.77144e+64
-9.06662e+63
-3.64419e+63
-3.38341e+63
-3.27467e+63
-4.37732e+63
-3.76935e+63
-1.99228e+63
-8.39177e+61
-2.58511e+61
3.26794e+63
-1.8832e+63
-6.17664e+64
-1.02447e+65
4.94574e+64
4.8254e+64
-1.99901e+63
-1.30473e+63
-8.56955e+62
-1.99588e+63
-2.37677e+63
-1.74362e+63
-1.90769e+63
4.57461e+64
1.93187e+64
1.08355e+64
-1.23589e+64
-5.838e+64
-9.68051e+64
2.61917e+64
5.0479e+64
5.11955e+63
2.71003e+62
-3.53402e+62
-3.66788e+62
-3.90167e+62
-5.86037e+62
-1.67752e+63
-7.49618e+65
-2.99485e+65
-1.25616e+65
-6.32947e+64
-8.21574e+64
-7.7647e+64
4.3396e+64
4.88067e+64
1.29348e+64
4.2489e+62
-9.91607e+62
-8.75412e+62
-6.59025e+62
-5.09858e+62
-1.35576e+63
2.47585e+66
8.61996e+65
-4.13848e+64
-2.36324e+65
-2.04214e+65
2.0849e+64
1.63196e+65
8.20858e+64
1.84776e+64
1.84563e+63
-8.89543e+62
-9.91373e+62
-7.18415e+62
-4.82705e+62
-1.15671e+63
6.23654e+67
1.64547e+67
6.98156e+66
3.62332e+66
1.98395e+66
1.13997e+66
5.243e+65
1.60299e+65
3.19788e+64
9.7995e+62
-2.9122e+63
-2.181e+63
-1.28487e+63
-7.20218e+62
-1.07107e+63
6.31016e+67
4.39347e+67
4.52338e+67
2.56728e+67
1.48414e+67
8.60327e+66
3.59997e+66
9.5738e+65
2.15507e+65
4.34871e+64
8.20872e+63
1.90879e+63
8.83828e+62
5.91413e+62
1.72016e+63
-1.08151e+70
-1.39916e+69
-2.01532e+68
-1.1242e+67
1.93496e+67
1.4998e+67
5.8371e+66
1.64855e+66
4.22322e+65
1.13115e+65
3.61316e+64
1.54946e+64
8.47273e+63
5.49102e+63
9.21224e+63
1.2499e+71
4.62513e+68
-2.21318e+69
-5.36527e+68
-7.71118e+67
2.94652e+66
5.61992e+66
1.48876e+66
3.10626e+65
1.63904e+64
-4.85745e+64
-4.99459e+64
-3.43438e+64
-1.65357e+64
-5.56949e+63
-6.88923e+70
1.18016e+71
5.62207e+69
-6.04848e+68
-2.54497e+67
6.71133e+65
3.18743e+66
2.95822e+66
1.57709e+66
1.26817e+66
1.0309e+66
7.60471e+65
4.71619e+65
2.32696e+65
1.10857e+65
-9.39447e+72
-1.01107e+71
1.35609e+71
-1.04807e+70
3.49017e+68
1.8876e+68
1.5859e+67
8.17045e+66
5.98608e+66
2.69741e+66
1.13834e+66
4.84506e+65
3.1611e+65
2.8609e+65
1.70047e+65
-3.27225e+73
-9.15972e+72
9.42316e+70
1.17748e+71
-1.45072e+70
9.56617e+67
-2.78945e+68
-4.29406e+68
-3.90832e+68
-3.32016e+68
-2.65939e+68
-1.93248e+68
-1.20256e+68
-5.94709e+67
-2.07916e+67
9.48478e+74
-3.52535e+73
-8.42809e+72
1.02984e+71
9.89574e+70
-1.96972e+70
-4.3694e+69
-3.5939e+69
-2.82444e+69
-2.04605e+69
-1.43221e+69
-9.70064e+68
-6.10504e+68
-3.37653e+68
-1.28685e+68
-8.14815e+75
8.61524e+74
-3.58035e+73
-8.11994e+72
8.82987e+70
8.86672e+70
-1.935e+70
-1.24224e+69
1.07147e+69
2.25452e+69
2.70809e+69
2.40466e+69
1.58641e+69
6.7277e+68
2.12889e+68
1.22264e+76
-7.11264e+75
7.95756e+74
-3.58524e+73
-7.86799e+72
1.07861e+71
7.69267e+70
-4.77408e+70
-4.34611e+70
-4.73157e+70
-4.50128e+70
-3.70165e+70
-2.55845e+70
-1.39802e+70
-5.78124e+69
3.5466e+77
7.74323e+75
-6.38674e+75
7.51436e+74
-3.63085e+73
-8.44342e+72
-3.83221e+71
-2.32212e+71
-2.01554e+71
-7.64891e+70
-3.85907e+69
2.66754e+70
3.02393e+70
1.89327e+70
8.60438e+69
9.30057e+78
9.72825e+77
2.75877e+76
-1.90778e+76
2.24573e+75
-3.76936e+73
2.93546e+73
5.34951e+73
5.24221e+73
4.77957e+73
4.1408e+73
3.38932e+73
2.54327e+73
1.83528e+73
1.3578e+73
-1.761e+80
8.43702e+78
9.17916e+77
3.48663e+76
-1.89797e+76
2.72578e+75
4.05604e+74
3.65664e+74
3.36802e+74
2.79609e+74
1.95639e+74
1.30168e+74
8.8774e+73
6.00958e+73
3.592e+73
1.34e+81
-1.58785e+80
8.35474e+78
9.5568e+77
4.43929e+76
-1.54065e+76
4.46684e+75
1.87296e+75
1.36546e+75
1.03313e+75
7.43446e+74
4.96972e+74
2.96912e+74
1.57724e+74
8.78806e+73
-3.11853e+81
1.15041e+81
-1.49775e+80
6.60682e+78
1.54486e+78
1.68363e+77
4.19961e+75
1.25194e+76
9.32141e+75
5.46052e+75
3.37338e+75
1.95766e+75
1.00352e+75
4.46717e+74
2.15994e+74
-4.70303e+82
-2.16174e+81
1.02941e+81
-1.36764e+80
6.98873e+78
7.448e+77
4.86443e+76
4.26991e+75
1.04751e+76
5.97808e+75
4.01827e+75
2.75503e+75
1.76362e+75
9.85527e+74
5.5659e+74
-2.80941e+81
1.12694e+81
-1.53285e+80
7.72596e+78
9.76711e+77
8.12967e+76
3.71159e+75
1.4722e+76
8.12372e+75
5.21165e+75
3.51766e+75
2.70875e+75
2.02899e+75
1.39821e+75
9.32727e+74
1.37194e+81
-1.73683e+80
3.45339e+78
8.17888e+77
1.24676e+77
2.20817e+76
1.64009e+76
1.14207e+76
7.71607e+75
5.00654e+75
3.23112e+75
2.65082e+75
2.0784e+75
1.60321e+75
1.16087e+75
-1.22486e+80
-8.43631e+78
-7.1207e+77
-4.20731e+76
4.24588e+76
3.92735e+76
2.73978e+76
1.81182e+76
1.17349e+76
7.53665e+75
5.0837e+75
4.18832e+75
2.61213e+75
1.66404e+75
1.02208e+75
2.96338e+78
6.99819e+77
3.31543e+77
1.53714e+77
7.97268e+76
4.49422e+76
2.64217e+76
1.5963e+76
9.88569e+75
6.92322e+75
6.15591e+75
7.31463e+75
6.09826e+74
1.04858e+74
2.88457e+73
1.96642e+77
5.32497e+76
3.06897e+76
1.91941e+76
1.15356e+76
7.00358e+75
4.40669e+75
2.90408e+75
2.30851e+75
4.46301e+75
1.17901e+75
-1.35246e+74
2.37771e+73
3.22655e+72
6.96352e+71
2.15364e+76
8.22664e+75
1.97799e+75
1.77539e+74
-2.75678e+74
-3.53001e+74
-3.23155e+74
-3.03659e+74
-4.52383e+74
2.51152e+75
3.47837e+75
1.97621e+74
-1.23577e+74
-7.01792e+73
-3.58993e+73
-4.79474e+75
-1.78494e+75
-7.39337e+74
-3.91496e+74
-2.40251e+74
-1.35579e+74
-6.47969e+73
-8.17033e+72
1.43051e+74
6.0975e+74
2.8259e+75
1.88977e+75
1.08714e+75
6.12928e+74
3.44625e+74
3.97659e+74
1.42886e+74
7.16866e+73
4.69551e+73
3.53787e+73
2.44003e+73
7.87269e+72
-4.24827e+72
-8.39607e+72
-3.88834e+73
1.54025e+74
3.52163e+74
3.72721e+74
3.06081e+74
2.31727e+74
5.93157e+70
6.2737e+71
-9.98079e+71
-1.23733e+72
-1.29911e+72
-1.14909e+72
-2.95276e+71
3.42999e+71
4.55197e+71
8.69804e+71
-1.07435e+73
-1.46166e+73
-1.23909e+73
-9.93215e+72
-8.27548e+72
-3.06694e+72
-1.06634e+72
-6.27763e+71
-4.81398e+71
-4.03638e+71
-3.20934e+71
-2.06429e+71
-9.79649e+70
2.31575e+70
3.49238e+71
3.84537e+71
-5.77628e+70
-2.65494e+71
-2.87823e+71
-2.63244e+71
-2.54428e+71
-1.18033e+71
-3.27347e+70
-2.60086e+69
8.84651e+69
1.01274e+70
-5.17934e+69
-2.01782e+70
-2.86966e+70
-3.76723e+70
1.3701e+71
2.19936e+71
2.01782e+71
1.6568e+71
1.30902e+71
8.20557e+70
3.23655e+70
1.41928e+70
7.84954e+69
5.05514e+69
3.13988e+69
1.485e+69
-5.57482e+68
-5.35939e+69
-1.68791e+70
-3.30921e+70
-3.06509e+70
-2.33101e+70
-1.75739e+70
-1.33319e+70
-6.87714e+69
-2.54943e+69
-1.35995e+69
-9.24342e+68
-6.92453e+68
-4.42536e+68
-9.78019e+67
1.78488e+68
2.18996e+68
-4.83822e+68
-2.62049e+69
-3.30658e+69
-2.89256e+69
-2.29599e+69
-1.75383e+69
-1.12496e+68
-4.61703e+67
5.74148e+66
1.58396e+67
1.66928e+67
9.81627e+66
-3.21559e+66
2.93474e+66
5.80905e+67
1.89402e+68
3.61675e+68
3.55458e+68
2.82362e+68
2.14438e+68
1.60336e+68
6.65775e+67
2.2983e+67
1.43351e+67
1.15207e+67
9.60838e+66
6.80616e+66
2.58513e+66
-2.5901e+66
-8.00115e+66
-8.0453e+66
7.31088e+65
7.12509e+66
7.73977e+66
6.03817e+66
3.33982e+66
7.32381e+66
3.14852e+66
7.33891e+65
-5.11315e+64
-2.56308e+65
-8.55731e+64
3.70682e+65
5.79155e+65
-4.54969e+64
-2.03799e+66
-4.69116e+66
-4.97741e+66
-4.22922e+66
-3.66089e+66
-3.76992e+66
-2.34037e+66
-9.07866e+65
-3.7896e+65
-2.00944e+65
-1.21835e+65
-6.52237e+64
-1.93909e+63
1.13497e+65
3.27567e+65
5.66756e+65
6.46653e+65
4.88193e+65
2.54817e+65
-1.17602e+65
-8.45041e+65
2.23961e+65
8.42772e+64
4.37774e+64
2.90641e+64
2.08833e+64
1.20576e+64
1.57722e+63
-5.4993e+63
-1.15062e+62
3.23251e+64
7.91848e+64
7.1447e+64
7.64656e+63
-1.78173e+65
-6.47281e+65
2.38797e+62
1.81504e+62
-6.77473e+62
-7.83649e+62
-6.84808e+62
-3.56025e+62
6.59754e+61
-1.83396e+62
-2.04521e+63
-5.80977e+63
-9.35158e+63
-7.35468e+63
-7.46811e+63
-6.73987e+64
-3.08772e+65
-1.656e+63
-6.13772e+62
-3.60494e+62
-2.71384e+62
-2.19237e+62
-1.57601e+62
-6.39933e+61
6.63086e+61
2.31617e+62
4.80024e+62
7.90539e+62
1.55101e+63
3.97891e+63
8.13755e+63
8.56379e+63
-1.05387e+62
-4.905e+61
-1.06946e+61
2.3172e+60
5.5575e+60
2.42453e+60
-6.74594e+60
-2.05581e+61
-1.88896e+61
2.3362e+62
7.22927e+62
1.3337e+63
2.41246e+63
4.75749e+63
9.26468e+63
3.78998e+61
1.56715e+61
7.16409e+60
4.06214e+60
2.63899e+60
1.60544e+60
-3.88984e+59
-1.11712e+61
-2.32665e+61
2.37289e+62
7.27316e+62
1.33261e+63
2.17681e+63
3.50105e+63
5.67564e+63
-2.95331e+60
-1.15079e+60
-6.83393e+59
-4.98078e+59
-3.84442e+59
-3.01419e+59
-1.04104e+60
-1.08207e+61
-1.95007e+61
2.99395e+62
8.82472e+62
1.59822e+63
2.55604e+63
3.89049e+63
5.75982e+63
-1.58547e+59
-7.33369e+58
-2.01031e+58
-1.91999e+57
3.95849e+57
-3.3958e+58
-9.83458e+59
-1.24041e+61
-2.09798e+61
3.14168e+62
9.3944e+62
1.76793e+63
2.89533e+63
4.46154e+63
6.62488e+63
4.43307e+58
1.84052e+58
1.03095e+58
7.46562e+57
6.13807e+57
-3.17507e+58
-1.03691e+60
-1.4351e+61
-2.61122e+61
2.49584e+62
8.07687e+62
1.60187e+63
2.72374e+63
4.29514e+63
6.46152e+63
2.56757e+56
3.36051e+56
1.40586e+56
4.06209e+56
1.03682e+57
-3.11709e+58
-1.05888e+60
-1.66957e+61
-4.76526e+61
1.13585e+62
5.48885e+62
1.17381e+63
2.03614e+63
3.21743e+63
4.80842e+63
-5.11819e+56
-1.35126e+56
1.52583e+56
6.39562e+56
1.64284e+57
-2.4119e+58
-1.00436e+60
-1.96016e+61
-5.56076e+61
-8.73796e+60
2.45576e+62
6.25281e+62
1.12812e+63
1.78801e+63
2.6458e+63
8.48795e+55
1.48962e+56
3.30513e+56
8.13731e+56
2.02887e+57
-1.75753e+58
-8.75415e+59
-2.2611e+61
-6.09584e+61
-7.25688e+61
7.13961e+60
1.65967e+62
3.94129e+62
6.91045e+62
1.06905e+63
4.78802e+55
1.52628e+56
3.70639e+56
9.06889e+56
2.29793e+57
-1.31509e+58
-7.39342e+59
-2.72011e+61
-6.14159e+61
-8.195e+61
-7.79725e+61
-4.23121e+61
2.74707e+61
1.30803e+62
2.7266e+62
5.1839e+55
1.79429e+56
4.40935e+56
1.04646e+57
2.63592e+57
-1.00584e+58
-7.40999e+59
-2.20527e+61
-5.10393e+61
-7.10371e+61
-8.44908e+61
-8.98532e+61
-8.48855e+61
-6.76915e+61
-3.5075e+61
6.25705e+55
2.17309e+56
5.36504e+56
1.23716e+57
3.05577e+57
-5.64632e+57
-7.68224e+59
-1.38885e+61
-3.26206e+61
-4.75705e+61
-6.09491e+61
-7.26435e+61
-8.27008e+61
-9.0774e+61
-9.53222e+61
7.2882e+55
2.57489e+56
6.40582e+56
1.4481e+57
3.4487e+57
1.72733e+56
-8.51747e+59
-7.90317e+60
-1.59434e+61
-2.34886e+61
-3.10177e+61
-3.86107e+61
-4.65861e+61
-5.50231e+61
-6.35126e+61
8.35106e+55
2.99196e+56
7.48499e+56
1.66766e+57
3.79735e+57
5.66392e+57
-5.4319e+59
-3.18181e+60
-5.79676e+60
-8.43281e+60
-1.11742e+61
-1.41851e+61
-1.76228e+61
-2.1512e+61
-2.57843e+61
9.56732e+55
3.47217e+56
8.7329e+56
1.9228e+57
4.16243e+57
8.34999e+57
-1.03607e+59
-8.5252e+59
-1.53101e+60
-2.17973e+60
-2.85648e+60
-3.62979e+60
-4.55658e+60
-5.64418e+60
-6.88209e+60
1.09144e+56
4.01972e+56
1.02014e+57
2.23602e+57
4.64404e+57
8.65049e+57
-1.72131e+58
-1.3069e+59
-2.45624e+59
-3.49481e+59
-4.54703e+59
-5.79395e+59
-7.29969e+59
-9.0668e+59
-1.11029e+60
1.23273e+56
4.60272e+56
1.17977e+57
2.59599e+57
5.4458e+57
1.04306e+58
1.51251e+58
9.57199e+57
-1.1852e+56
-8.4305e+57
-1.62038e+58
-2.45205e+58
-3.39182e+58
-4.47112e+58
-5.73404e+58
1.3195e+56
5.14605e+56
1.36429e+57
3.04625e+57
6.06294e+57
1.03637e+58
1.46221e+58
1.64391e+58
1.63895e+58
1.60995e+58
1.59722e+58
1.61907e+58
1.67459e+58
1.75595e+58
1.85403e+58
8.59996e+55
3.81603e+56
1.01158e+57
2.09883e+57
3.68705e+57
5.5771e+57
7.13133e+57
7.84347e+57
7.98566e+57
7.9541e+57
7.87939e+57
7.83136e+57
7.82074e+57
7.83626e+57
7.87166e+57
9.55553e+54
1.40444e+56
4.07505e+56
8.09958e+56
1.29495e+57
1.78027e+57
2.16087e+57
2.37323e+57
2.45806e+57
2.49083e+57
2.5008e+57
2.49259e+57
2.46719e+57
2.42543e+57
2.37e+57
-3.48092e+55
-1.50071e+55
3.70603e+55
1.12973e+56
1.98025e+56
2.80014e+56
3.49286e+56
3.99846e+56
4.33392e+56
4.56229e+56
4.72439e+56
4.82912e+56
4.87516e+56
4.86503e+56
4.80393e+56
-3.01651e+55
-3.60475e+55
-3.53384e+55
-3.02743e+55
-2.19975e+55
-1.23178e+55
-2.50801e+54
6.5617e+54
1.44334e+55
2.11049e+55
2.67326e+55
3.14053e+55
3.51554e+55
3.80196e+55
4.00046e+55
-1.24416e+55
-1.57139e+55
-1.69962e+55
-1.71382e+55
-1.63412e+55
-1.50755e+55
-1.36016e+55
-1.20906e+55
-1.06784e+55
-9.41663e+54
-8.2876e+54
-7.26023e+54
-6.31559e+54
-5.44523e+54
-4.65798e+54
-3.31723e+54
-3.96949e+54
-4.03721e+54
-3.90553e+54
-3.65705e+54
-3.36633e+54
-3.06389e+54
-2.7719e+54
-2.51543e+54
-2.30083e+54
-2.11523e+54
-1.9464e+54
-1.7884e+54
-1.63886e+54
-1.49869e+54
-6.13907e+53
-7.09503e+53
-6.86211e+53
-6.31634e+53
-5.64818e+53
-4.98132e+53
-4.35668e+53
-3.78974e+53
-3.31675e+53
-2.94396e+53
-2.63519e+53
-2.36492e+53
-2.12289e+53
-1.90444e+53
-1.70851e+53
-7.84048e+52
-9.02802e+52
-8.6821e+52
-7.92605e+52
-7.00322e+52
-6.07969e+52
-5.22274e+52
-4.46068e+52
-3.83414e+52
-3.33696e+52
-2.9186e+52
-2.55113e+52
-2.22518e+52
-1.93612e+52
-1.68185e+52
-6.61256e+51
-7.07276e+51
-6.66386e+51
-6.12304e+51
-5.48842e+51
-4.83154e+51
-4.20046e+51
-3.64843e+51
-3.20331e+51
-2.83894e+51
-2.51825e+51
-2.22542e+51
-1.95685e+51
-1.71191e+51
-1.49089e+51
-5.24252e+50
-4.53734e+50
-3.25834e+50
-2.42503e+50
-1.87857e+50
-1.50969e+50
-1.24816e+50
-1.06215e+50
-9.31682e+49
-8.33417e+49
-7.50361e+49
-6.75171e+49
-6.05306e+49
-5.40212e+49
-4.79959e+49
8.98608e+48
-2.03045e+49
-2.19068e+49
-1.6799e+49
-1.13361e+49
-7.0944e+48
-4.10008e+48
-2.10332e+48
-7.78322e+47
1.24046e+47
7.33407e+47
1.12002e+48
1.33669e+48
1.42578e+48
1.43539e+48
2.97016e+49
1.78729e+49
9.17248e+48
4.7393e+48
2.47143e+48
1.28882e+48
6.54631e+47
3.0659e+47
1.19816e+47
2.62284e+46
-1.6118e+46
-3.14777e+46
-3.30292e+46
-2.84742e+46
-1.92045e+46
6.53663e+48
5.10259e+48
3.4177e+48
2.29344e+48
1.56274e+48
1.08929e+48
7.80025e+47
5.76601e+47
4.37646e+47
3.37233e+47
2.61816e+47
2.04123e+47
1.59613e+47
1.25107e+47
9.86444e+46
7.10928e+47
5.63975e+47
4.05822e+47
2.93026e+47
2.13689e+47
1.58836e+47
1.21325e+47
9.55315e+46
7.66624e+46
6.19898e+46
5.02338e+46
4.07173e+46
3.29877e+46
2.67108e+46
2.16512e+46
8.3598e+46
5.22309e+46
3.07035e+46
1.96383e+46
1.33267e+46
9.52326e+45
7.17102e+45
5.64281e+45
4.55436e+45
3.71734e+45
3.04757e+45
2.50196e+45
2.05384e+45
1.68525e+45
1.384e+45
9.24531e+45
6.62844e+45
3.77895e+45
2.23751e+45
1.37443e+45
8.84487e+44
5.99645e+44
4.23795e+44
3.06591e+44
2.24476e+44
1.65694e+44
1.23196e+44
9.22314e+43
6.96009e+43
5.29267e+43
-9.65331e+44
-2.58479e+44
-1.53986e+43
5.16583e+43
6.2388e+43
5.81366e+43
5.0671e+43
4.26364e+43
3.47793e+43
2.77369e+43
2.182e+43
1.70234e+43
1.32112e+43
1.02341e+43
7.87043e+42
-4.81905e+44
-2.75628e+44
-1.43189e+44
-7.92156e+43
-4.64782e+43
-2.87854e+43
-1.87281e+43
-1.26801e+43
-8.82194e+42
-6.23925e+42
-4.45859e+42
-3.21096e+42
-2.32778e+42
-1.69759e+42
-1.25569e+42
-7.24326e+43
-4.47863e+43
-2.51115e+43
-1.50694e+43
-9.61025e+42
-6.49134e+42
-4.59861e+42
-3.36015e+42
-2.49888e+42
-1.87492e+42
-1.41275e+42
-1.06736e+42
-8.08059e+41
-6.13258e+41
-4.67632e+41
-6.25589e+42
-3.87565e+42
-2.14992e+42
-1.29903e+42
-8.41988e+41
-5.79389e+41
-4.17749e+41
-3.10583e+41
-2.34349e+41
-1.77766e+41
-1.35105e+41
-1.02737e+41
-7.80873e+40
-5.93897e+40
-4.5279e+40
-7.90556e+40
-7.6991e+40
-4.57887e+40
-3.0432e+40
-2.17008e+40
-1.63633e+40
-1.27283e+40
-9.99416e+39
-7.81746e+39
-6.07033e+39
-4.68409e+39
-3.59427e+39
-2.74449e+39
-2.09178e+39
-1.588e+39
8.65435e+40
4.72023e+40
2.46244e+40
1.40176e+40
8.58975e+39
5.58179e+39
3.80865e+39
2.69815e+39
1.95421e+39
1.42978e+39
1.05031e+39
7.72966e+38
5.6975e+38
4.20826e+38
3.13867e+38
1.54216e+40
8.90667e+39
4.70748e+39
2.72222e+39
1.70139e+39
1.1319e+39
7.90525e+38
5.7109e+38
4.20132e+38
3.11424e+38
2.31403e+38
1.72056e+38
1.28043e+38
9.55316e+37
7.19074e+37
1.4992e+39
8.60952e+38
4.54755e+38
2.6354e+38
1.65267e+38
1.10119e+38
7.67676e+37
5.51768e+37
4.02755e+37
2.95664e+37
2.17365e+37
1.59897e+37
1.17806e+37
8.71544e+36
6.51495e+36
1.015e+38
5.2686e+37
2.57933e+37
1.46584e+37
9.21759e+36
6.20202e+36
4.36957e+36
3.16713e+36
2.32504e+36
1.7124e+36
1.26069e+36
9.27672e+35
6.83453e+35
5.06103e+35
3.78675e+35
-2.36262e+36
-3.33883e+35
-1.08397e+35
1.76743e+34
4.93971e+34
4.90312e+34
3.99515e+34
2.97672e+34
2.0968e+34
1.42871e+34
9.59713e+33
6.44304e+33
4.36549e+33
3.04387e+33
2.11514e+33
-3.20693e+36
-1.34874e+36
-5.48695e+35
-2.48174e+35
-1.24265e+35
-6.78597e+34
-3.99678e+34
-2.50625e+34
-1.64587e+34
-1.11453e+34
-7.7024e+33
-5.40199e+33
-3.8332e+33
-2.7472e+33
-2.01092e+33
-5.7742e+35
-2.85286e+35
-1.27838e+35
-6.4077e+34
-3.52345e+34
-2.08484e+34
-1.30598e+34
-8.52053e+33
-5.70165e+33
-3.87379e+33
-2.65962e+33
-1.84242e+33
-1.28782e+33
-9.09532e+32
-6.52671e+32
-4.53584e+34
-2.53635e+34
-1.25107e+34
-6.79151e+33
-3.99461e+33
-2.5002e+33
-1.63966e+33
-1.10965e+33
-7.64311e+32
-5.31466e+32
-3.71933e+32
-2.61827e+32
-1.85625e+32
-1.32862e+32
-9.62871e+31
-2.24829e+33
-1.095e+33
-5.30489e+32
-2.88858e+32
-1.73673e+32
-1.11857e+32
-7.55841e+31
-5.26348e+31
-3.72175e+31
-2.65071e+31
-1.89646e+31
-1.36284e+31
-9.85262e+30
-7.18235e+30
-5.28679e+30
-2.57122e+32
-9.22996e+31
-3.0172e+31
-1.18147e+31
-5.34048e+30
-2.68083e+30
-1.46284e+30
-8.4982e+29
-5.1537e+29
-3.21997e+29
-2.0601e+29
-1.34586e+29
-8.95946e+28
-6.08955e+28
-4.23557e+28
-2.55046e+30
-4.07406e+30
-2.01077e+30
-1.21962e+30
-7.52854e+29
-4.70996e+29
-2.99257e+29
-1.91733e+29
-1.23035e+29
-7.90816e+28
-5.10696e+28
-3.31804e+28
-2.16982e+28
-1.43156e+28
-9.42723e+27
8.24464e+30
3.04763e+30
1.06569e+30
4.18073e+29
1.83578e+29
8.85864e+28
4.62828e+28
2.58197e+28
1.51526e+28
9.22355e+27
5.76093e+27
3.66345e+27
2.36075e+27
1.5414e+27
1.04677e+27
1.1669e+30
5.23337e+29
2.12508e+29
1.00215e+29
5.293e+28
3.041e+28
1.8587e+28
1.18464e+28
7.75442e+27
5.17269e+27
3.49941e+27
2.39193e+27
1.65048e+27
1.15084e+27
8.11582e+26
2.17097e+28
1.34867e+28
6.77959e+27
4.0363e+27
2.55881e+27
1.68497e+27
1.14054e+27
7.8479e+26
5.45135e+26
3.81878e+26
2.69628e+26
1.91554e+26
1.36896e+26
9.84594e+25
7.09424e+25
-1.03892e+28
-4.21226e+27
-1.66427e+27
-7.25182e+26
-3.54529e+26
-1.91281e+26
-1.11485e+26
-6.86753e+25
-4.39085e+25
-2.88077e+25
-1.92522e+25
-1.30276e+25