/*--------------------------------*- C++ -*----------------------------------*\
  =========                 |
  \\      /  F ield         | OpenFOAM: The Open Source CFD Toolbox
   \\    /   O peration     | Website:  https://openfoam.org
    \\  /    A nd           | Version:  8
     \\/     M anipulation  |
\*---------------------------------------------------------------------------*/
FoamFile
{
    version     2.0;
    format      ascii;
    class       volScalarField;
    location    "550";
    object      epsilon;
}
// * * * * * * * * * * * * * * * * * * * * * * * * * * * * * * * * * * * * * //

dimensions      [0 2 -3 0 0 0 0];

internalField   nonuniform List<scalar> 
7320
(
11607.3
10157.7
9314.43
8772.21
8390.2
8102.79
7875.93
7690.7
7535.77
7403.76
7289.61
7189.73
7101.46
7022.84
6952.31
6888.69
6831
6778.46
6730.43
6686.38
6645.85
6608.48
6573.93
6541.93
6512.24
6484.64
6458.95
6435.02
6412.68
6391.82
6372.33
6354.09
6337.01
6321.02
6306.04
6292
6278.83
6266.49
6254.92
6244.07
6233.91
6224.39
6215.49
6207.15
6199.36
6192.09
6185.3
6178.98
6173.1
6167.64
6162.58
6157.9
6153.58
6149.6
6145.95
6142.62
6139.59
6136.85
6134.38
6132.17
6130.22
6128.5
6127.02
6125.75
6124.7
6123.85
6123.2
6122.74
6122.45
6122.34
6122.39
6122.6
6122.97
6123.48
6124.14
6124.94
6125.86
6126.91
6128.09
6129.38
6130.79
6132.31
6133.94
6135.66
6137.49
6139.41
6141.42
6143.52
6145.71
6147.98
6150.33
6152.76
6155.26
6157.83
6160.47
6163.18
6165.94
6168.77
6171.66
6174.6
6177.59
6180.63
6183.72
6186.84
6190.01
6193.21
6196.45
6199.71
6203
6206.3
6209.63
6212.97
6216.32
6219.67
6223.03
6226.38
6229.73
6233.06
6236.37
6239.66
6242.81
6246.08
3749.32
3919.37
3598.69
3368.86
3210.19
3093.2
3002.11
2928.43
2867.18
2815.25
2770.5
2731.45
2697.02
2666.41
2638.99
2614.29
2591.92
2571.56
2552.97
2535.93
2520.26
2505.82
2492.48
2480.12
2468.66
2458.01
2448.1
2438.87
2430.26
2422.21
2414.7
2407.66
2401.08
2394.92
2389.14
2383.73
2378.65
2373.9
2369.44
2365.26
2361.34
2357.68
2354.25
2351.03
2348.03
2345.23
2342.62
2340.18
2337.91
2335.81
2333.86
2332.05
2330.38
2328.85
2327.44
2326.15
2324.98
2323.92
2322.96
2322.1
2321.34
2320.67
2320.09
2319.6
2319.18
2318.85
2318.59
2318.4
2318.27
2318.22
2318.23
2318.3
2318.42
2318.61
2318.85
2319.14
2319.48
2319.87
2320.31
2320.79
2321.32
2321.89
2322.5
2323.15
2323.83
2324.56
2325.32
2326.11
2326.94
2327.79
2328.68
2329.6
2330.55
2331.52
2332.52
2333.55
2334.6
2335.68
2336.77
2337.89
2339.02
2340.18
2341.35
2342.54
2343.75
2344.97
2346.2
2347.44
2348.7
2349.96
2351.23
2352.5
2353.78
2355.06
2356.34
2357.62
2358.89
2360.17
2361.43
2362.69
2363.9
2365.14
1528.99
1989.05
1884.98
1770.23
1685.89
1623.05
1574.14
1534.67
1501.95
1474.25
1450.43
1429.67
1411.39
1395.16
1380.63
1367.55
1355.71
1344.94
1335.11
1326.1
1317.83
1310.2
1303.16
1296.64
1290.59
1284.97
1279.74
1274.87
1270.33
1266.09
1262.13
1258.42
1254.95
1251.71
1248.66
1245.81
1243.14
1240.64
1238.3
1236.1
1234.04
1232.11
1230.31
1228.63
1227.05
1225.58
1224.21
1222.93
1221.75
1220.64
1219.62
1218.68
1217.81
1217
1216.27
1215.6
1214.98
1214.43
1213.93
1213.49
1213.09
1212.75
1212.45
1212.19
1211.98
1211.81
1211.68
1211.58
1211.52
1211.5
1211.51
1211.55
1211.63
1211.73
1211.86
1212.02
1212.21
1212.42
1212.66
1212.92
1213.2
1213.51
1213.84
1214.19
1214.55
1214.94
1215.35
1215.77
1216.22
1216.68
1217.15
1217.64
1218.15
1218.67
1219.21
1219.75
1220.31
1220.89
1221.47
1222.07
1222.67
1223.29
1223.92
1224.55
1225.19
1225.84
1226.5
1227.16
1227.82
1228.5
1229.17
1229.85
1230.53
1231.21
1231.89
1232.57
1233.24
1233.92
1234.59
1235.26
1235.9
1236.56
720.941
1168.15
1165.72
1105.65
1054.38
1014.75
983.61
958.429
937.557
919.91
904.751
891.557
879.953
869.656
860.45
852.168
844.676
837.868
831.656
825.967
820.741
815.927
811.481
807.368
803.554
800.011
796.716
793.647
790.785
788.114
785.618
783.285
781.102
779.059
777.147
775.355
773.678
772.106
770.635
769.257
767.967
766.759
765.631
764.576
763.59
762.671
761.814
761.017
760.276
759.588
758.951
758.363
757.82
757.322
756.865
756.448
756.069
755.727
755.419
755.145
754.903
754.692
754.509
754.355
754.227
754.126
754.049
753.996
753.966
753.958
753.971
754.005
754.058
754.129
754.219
754.327
754.451
754.592
754.749
754.92
755.107
755.307
755.521
755.748
755.988
756.24
756.504
756.779
757.066
757.363
757.67
757.987
758.314
758.649
758.994
759.347
759.707
760.076
760.452
760.834
761.224
761.619
762.02
762.426
762.837
763.253
763.673
764.096
764.522
764.95
765.381
765.813
766.246
766.68
767.113
767.546
767.977
768.407
768.834
769.258
769.67
770.08
358.82
725.629
779.829
754.392
722.982
696.536
675.147
657.664
643.11
630.786
620.195
610.98
602.879
595.694
589.274
583.502
578.284
573.544
569.221
565.264
561.63
558.283
555.194
552.336
549.687
547.228
544.94
542.81
540.825
538.972
537.242
535.624
534.112
532.698
531.374
530.135
528.975
527.889
526.873
525.921
525.032
524.199
523.421
522.695
522.017
521.384
520.795
520.248
519.739
519.267
518.831
518.428
518.057
517.716
517.405
517.121
516.863
516.631
516.423
516.238
516.075
515.934
515.813
515.711
515.628
515.563
515.515
515.484
515.469
515.469
515.484
515.513
515.555
515.611
515.68
515.76
515.853
515.957
516.071
516.197
516.332
516.478
516.633
516.797
516.97
517.151
517.341
517.539
517.744
517.957
518.176
518.403
518.636
518.875
519.121
519.372
519.629
519.891
520.158
520.429
520.705
520.985
521.269
521.557
521.848
522.142
522.438
522.736
523.037
523.339
523.642
523.946
524.251
524.555
524.86
525.163
525.466
525.767
526.065
526.362
526.651
526.935
180.95
454.606
539.365
539.228
522.289
504.944
489.985
477.422
466.83
457.801
450.016
443.23
437.258
431.96
427.225
422.969
419.121
415.626
412.44
409.523
406.846
404.381
402.105
400.001
398.051
396.24
394.557
392.99
391.53
390.167
388.895
387.707
386.597
385.558
384.587
383.678
382.828
382.032
381.288
380.591
379.94
379.332
378.763
378.232
377.737
377.276
376.846
376.447
376.076
375.733
375.416
375.123
374.854
374.607
374.381
374.176
373.991
373.824
373.674
373.542
373.426
373.326
373.241
373.17
373.113
373.069
373.038
373.019
373.012
373.017
373.032
373.058
373.093
373.139
373.194
373.258
373.33
373.412
373.501
373.598
373.702
373.814
373.933
374.059
374.191
374.33
374.474
374.625
374.781
374.942
375.109
375.28
375.457
375.638
375.823
376.013
376.206
376.404
376.605
376.809
377.016
377.227
377.44
377.655
377.873
378.093
378.315
378.538
378.762
378.987
379.213
379.44
379.666
379.893
380.119
380.344
380.568
380.791
381.013
381.232
381.447
381.655
91.0616
278.177
374.321
393.387
388.302
378.207
368.135
359.167
351.387
344.653
338.793
333.658
329.123
325.091
321.482
318.234
315.297
312.627
310.193
307.964
305.918
304.034
302.295
300.686
299.196
297.812
296.526
295.329
294.213
293.173
292.202
291.295
290.447
289.655
288.914
288.221
287.573
286.967
286.4
285.87
285.375
284.911
284.479
284.075
283.699
283.348
283.022
282.719
282.438
282.178
281.937
281.716
281.512
281.325
281.155
281
280.861
280.735
280.623
280.524
280.438
280.364
280.301
280.25
280.208
280.178
280.156
280.145
280.142
280.148
280.163
280.185
280.216
280.253
280.298
280.35
280.409
280.474
280.546
280.623
280.706
280.795
280.889
280.989
281.093
281.203
281.316
281.435
281.557
281.684
281.815
281.949
282.087
282.229
282.374
282.522
282.673
282.827
282.983
283.142
283.304
283.467
283.633
283.8
283.969
284.139
284.31
284.483
284.656
284.83
285.004
285.179
285.353
285.527
285.701
285.874
286.046
286.217
286.386
286.554
286.719
286.877
46.0967
162.189
254.261
286.985
292.083
288.344
282.427
276.399
270.841
265.871
261.463
257.552
254.072
250.96
248.165
245.642
243.355
241.274
239.374
237.632
236.032
234.559
233.198
231.938
230.771
229.687
228.68
227.742
226.868
226.053
225.293
224.582
223.919
223.298
222.718
222.176
221.668
221.194
220.75
220.335
219.947
219.584
219.246
218.93
218.635
218.361
218.106
217.869
217.649
217.445
217.257
217.084
216.925
216.779
216.646
216.526
216.417
216.319
216.233
216.156
216.089
216.032
215.984
215.944
215.913
215.89
215.875
215.867
215.867
215.873
215.886
215.905
215.93
215.961
215.998
216.041
216.088
216.141
216.199
216.262
216.329
216.401
216.476
216.556
216.64
216.728
216.819
216.914
217.012
217.113
217.218
217.325
217.435
217.548
217.663
217.781
217.901
218.024
218.148
218.274
218.402
218.532
218.663
218.795
218.928
219.063
219.198
219.334
219.471
219.608
219.745
219.882
220.019
220.156
220.292
220.428
220.562
220.696
220.829
220.96
221.089
221.212
24.1389
88.6484
164.986
205.253
218.887
220.976
218.885
215.492
211.862
208.378
205.161
202.236
199.59
197.197
195.031
193.064
191.273
189.637
188.14
186.765
185.499
184.331
183.252
182.252
181.325
180.463
179.662
178.915
178.22
177.571
176.965
176.399
175.87
175.376
174.913
174.481
174.076
173.697
173.343
173.011
172.701
172.411
172.141
171.888
171.652
171.433
171.229
171.039
170.863
170.7
170.549
170.41
170.283
170.166
170.059
169.963
169.875
169.797
169.728
169.666
169.613
169.567
169.528
169.497
169.472
169.454
169.442
169.436
169.436
169.441
169.452
169.467
169.488
169.513
169.543
169.577
169.616
169.659
169.706
169.756
169.811
169.869
169.93
169.994
170.062
170.133
170.206
170.283
170.362
170.443
170.527
170.614
170.702
170.793
170.886
170.981
171.077
171.175
171.275
171.376
171.478
171.582
171.687
171.793
171.899
172.007
172.115
172.223
172.332
172.441
172.55
172.659
172.768
172.877
172.985
173.092
173.199
173.305
173.41
173.514
173.616
173.713
13.5084
45.5623
99.8141
140.768
160.687
168.047
169.612
168.74
166.918
164.789
162.633
160.564
158.629
156.839
155.192
153.678
152.288
151.01
149.834
148.749
147.746
146.819
145.96
145.162
144.421
143.732
143.09
142.491
141.933
141.412
140.925
140.47
140.044
139.646
139.273
138.924
138.597
138.29
138.004
137.735
137.484
137.249
137.029
136.824
136.632
136.454
136.287
136.133
135.989
135.856
135.733
135.619
135.515
135.419
135.332
135.253
135.181
135.117
135.059
135.009
134.964
134.927
134.895
134.868
134.847
134.832
134.821
134.816
134.815
134.819
134.827
134.839
134.855
134.875
134.899
134.926
134.957
134.991
135.029
135.07
135.113
135.16
135.209
135.261
135.315
135.372
135.432
135.493
135.557
135.623
135.69
135.76
135.831
135.904
135.979
136.055
136.133
136.212
136.292
136.373
136.455
136.539
136.623
136.708
136.793
136.879
136.966
137.053
137.14
137.227
137.314
137.402
137.489
137.575
137.662
137.747
137.832
137.917
138
138.083
138.164
138.241
8.23297
22.8776
55.2867
90.2281
113.178
124.85
129.856
131.463
131.425
130.618
129.473
128.204
126.919
125.67
124.481
123.362
122.317
121.343
120.436
119.594
118.81
118.081
117.402
116.77
116.18
115.63
115.117
114.638
114.189
113.77
113.378
113.011
112.667
112.345
112.043
111.76
111.495
111.246
111.012
110.793
110.588
110.395
110.215
110.047
109.889
109.742
109.605
109.478
109.359
109.249
109.147
109.052
108.966
108.886
108.813
108.747
108.687
108.633
108.585
108.542
108.504
108.472
108.444
108.422
108.403
108.389
108.379
108.374
108.372
108.374
108.379
108.388
108.4
108.415
108.433
108.454
108.479
108.505
108.535
108.567
108.602
108.639
108.678
108.719
108.763
108.808
108.856
108.905
108.956
109.009
109.063
109.119
109.176
109.235
109.295
109.356
109.418
109.481
109.545
109.611
109.677
109.743
109.811
109.879
109.947
110.016
110.086
110.155
110.225
110.295
110.364
110.434
110.504
110.573
110.642
110.71
110.778
110.845
110.912
110.977
111.042
111.104
5.47937
11.9932
28.2309
52.6649
74.495
88.7635
96.7041
100.69
102.44
102.969
102.841
102.365
101.714
100.983
100.226
99.4734
98.7428
98.0428
97.3776
96.7489
96.1564
95.5994
95.0764
94.5856
94.1253
93.6937
93.289
92.9095
92.5537
92.22
91.9068
91.6129
91.3369
91.0777
90.834
90.6051
90.3899
90.1875
89.9973
89.8186
89.6507
89.493
89.345
89.2063
89.0764
88.9548
88.8412
88.7352
88.6364
88.5446
88.4594
88.3805
88.3077
88.2407
88.1793
88.1232
88.0722
88.0261
87.9848
87.9479
87.9155
87.8872
87.8629
87.8425
87.8259
87.8128
87.8031
87.7968
87.7937
87.7936
87.7965
87.8022
87.8106
87.8215
87.8349
87.8508
87.8691
87.8897
87.9124
87.9373
87.9642
87.9931
88.0238
88.0564
88.0906
88.1266
88.164
88.203
88.2435
88.2853
88.3284
88.3727
88.4182
88.4649
88.5125
88.5612
88.6108
88.6612
88.7124
88.7644
88.817
88.8702
88.924
88.9782
89.0328
89.0878
89.143
89.1984
89.2539
89.3095
89.365
89.4205
89.4757
89.5308
89.5855
89.6398
89.6937
89.747
89.7998
89.8519
89.9038
89.9528
3.95841
6.92866
14.0447
27.7128
44.4801
58.7408
68.535
74.555
78.0225
79.9011
80.8188
81.1603
81.1575
80.9504
80.6246
80.2328
79.8081
79.3708
78.9339
78.5054
78.0902
77.6912
77.3098
76.9468
76.6023
76.276
75.9675
75.6761
75.4012
75.1419
74.8974
74.6668
74.4494
74.2443
74.0509
73.8684
73.6962
73.5338
73.3805
73.236
73.0998
72.9715
72.8507
72.7371
72.6303
72.5302
72.4363
72.3484
72.2664
72.1898
72.1186
72.0525
71.9913
71.9348
71.8828
71.8351
71.7916
71.7521
71.7165
71.6845
71.6562
71.6312
71.6096
71.5912
71.5758
71.5633
71.5537
71.5468
71.5426
71.5409
71.5416
71.5446
71.5498
71.5571
71.5665
71.5778
71.5912
71.6064
71.6234
71.6422
71.6627
71.6847
71.7083
71.7334
71.7599
71.7878
71.817
71.8474
71.879
71.9117
71.9455
71.9803
72.0161
72.0527
72.0903
72.1286
72.1677
72.2075
72.2479
72.2889
72.3304
72.3724
72.4149
72.4577
72.5009
72.5443
72.5879
72.6317
72.6755
72.7194
72.7633
72.807
72.8507
72.8941
72.9373
72.9801
73.0225
73.0646
73.1061
73.1472
73.188
73.227
3.07723
4.48267
7.4297
13.6627
23.6765
35.0256
44.8492
52.0825
56.9685
60.1184
62.0853
63.271
63.946
64.2875
64.4108
64.3915
64.2795
64.1082
63.8999
63.6698
63.4283
63.1826
62.9375
62.6963
62.4613
62.2339
62.0151
61.8054
61.605
61.414
61.2321
61.0591
60.8948
60.7387
60.5904
60.4496
60.316
60.1893
60.069
59.955
59.847
59.7448
59.6481
59.5568
59.4706
59.3894
59.3129
59.2411
59.1738
59.1108
59.0519
58.9971
58.9461
58.8988
58.8551
58.8149
58.7781
58.7444
58.7139
58.6863
58.6617
58.6398
58.6206
58.604
58.5899
58.5781
58.5687
58.5615
58.5565
58.5535
58.5526
58.5535
58.5562
58.5606
58.5666
58.5743
58.5836
58.5944
58.6067
58.6205
58.6356
58.6521
58.6698
58.6887
58.7088
58.73
58.7523
58.7756
58.7999
58.8251
58.8511
58.878
58.9057
58.9341
58.9632
58.993
59.0234
59.0544
59.0858
59.1178
59.1502
59.1829
59.2161
59.2495
59.2832
59.317
59.3511
59.3852
59.4195
59.4537
59.4879
59.5221
59.5561
59.59
59.6236
59.657
59.69
59.7227
59.755
59.7869
59.8187
59.8493
2.55068
3.21778
4.43832
6.94254
11.6103
18.4646
26.1707
33.1843
38.7612
42.8701
45.7762
47.7853
49.1524
50.0674
50.6656
51.0415
51.2609
51.37
51.4011
51.3772
51.3149
51.226
51.119
51.0004
50.8747
50.7453
50.6147
50.4848
50.3569
50.2318
50.1101
49.9923
49.8785
49.7688
49.6634
49.5621
49.4649
49.3717
49.2825
49.1971
49.1156
49.0378
48.9637
48.8932
48.8263
48.7628
48.7027
48.6459
48.5924
48.542
48.4947
48.4504
48.4091
48.3706
48.3348
48.3017
48.2712
48.2432
48.2176
48.1944
48.1735
48.1547
48.1381
48.1236
48.111
48.1003
48.0915
48.0845
48.0792
48.0755
48.0735
48.073
48.0739
48.0762
48.0798
48.0847
48.0908
48.0982
48.1069
48.1166
48.1275
48.1395
48.1524
48.1664
48.1813
48.1972
48.2138
48.2313
48.2496
48.2687
48.2885
48.3089
48.33
48.3516
48.3739
48.3966
48.4199
48.4436
48.4677
48.4922
48.5171
48.5422
48.5677
48.5934
48.6193
48.6453
48.6715
48.6977
48.724
48.7503
48.7766
48.8028
48.8289
48.8548
48.8806
48.9061
48.9314
48.9564
48.981
49.0053
49.0296
49.0532
2.23299
2.5213
3.02004
3.97831
5.81132
8.95326
13.4245
18.6064
23.6547
28.0086
31.4918
34.1617
36.1611
37.6393
38.7238
39.5144
40.0864
40.4959
40.7841
40.9815
41.1108
41.1888
41.2282
41.2386
41.2274
41.2
41.1607
41.1128
41.0589
41.0009
40.9402
40.8779
40.8149
40.7517
40.689
40.6269
40.5658
40.506
40.4475
40.3905
40.3352
40.2816
40.2298
40.1799
40.132
40.086
40.0421
40.0002
39.9604
39.9227
39.887
39.8533
39.8216
39.792
39.7642
39.7384
39.7145
39.6924
39.6721
39.6536
39.6367
39.6215
39.6079
39.5959
39.5854
39.5764
39.5688
39.5625
39.5576
39.554
39.5517
39.5505
39.5505
39.5515
39.5536
39.5566
39.5606
39.5656
39.5715
39.5783
39.586
39.5946
39.6039
39.6141
39.625
39.6366
39.6489
39.6619
39.6754
39.6896
39.7044
39.7196
39.7354
39.7517
39.7684
39.7855
39.803
39.8209
39.8391
39.8576
39.8763
39.8953
39.9145
39.9339
39.9534
39.9731
39.9928
40.0126
40.0324
40.0522
40.072
40.0916
40.1112
40.1307
40.1499
40.169
40.1878
40.2064
40.2247
40.2428
40.2608
40.2786
2.04415
2.12289
2.29752
2.64296
3.30166
4.48769
6.42602
9.18515
12.5445
16.0848
19.4151
22.3108
24.7066
26.6315
28.1526
29.344
30.2729
30.9955
31.5567
31.9918
32.3283
32.5875
32.7859
32.9364
33.0491
33.1319
33.1909
33.231
33.2562
33.2696
33.2735
33.2699
33.2603
33.246
33.2279
33.2068
33.1834
33.1583
33.1317
33.1043
33.0762
33.0477
33.0192
32.9907
32.9626
32.935
32.908
32.8818
32.8564
32.8319
32.8084
32.786
32.7647
32.7445
32.7255
32.7076
32.6909
32.6754
32.661
32.6478
32.6357
32.6248
32.615
32.6062
32.5985
32.5919
32.5863
32.5817
32.578
32.5753
32.5735
32.5726
32.5725
32.5733
32.5747
32.5769
32.5797
32.5833
32.5875
32.5925
32.5981
32.6043
32.6111
32.6186
32.6266
32.6351
32.6442
32.6538
32.6638
32.6743
32.6852
32.6966
32.7083
32.7204
32.7328
32.7455
32.7585
32.7718
32.7853
32.7991
32.813
32.8271
32.8413
32.8557
32.8702
32.8847
32.8993
32.9138
32.9284
32.9429
32.9574
32.9718
32.9861
33.0002
33.0141
33.0279
33.0415
33.0548
33.0679
33.0807
33.0935
33.1064
1.93662
1.89378
1.90909
1.99887
2.20581
2.60134
3.28857
4.38475
5.96584
7.99811
10.3235
12.7231
15.0051
17.0512
18.8156
20.3
21.5307
22.5425
23.3709
24.0479
24.601
25.0531
25.4229
25.7258
25.9741
26.1777
26.3447
26.4817
26.5939
26.6856
26.7604
26.8211
26.8699
26.9088
26.9394
26.963
26.9805
26.993
27.0012
27.0057
27.0072
27.006
27.0027
26.9977
26.9912
26.9836
26.9751
26.966
26.9564
26.9466
26.9367
26.9268
26.917
26.9075
26.8983
26.8894
26.881
26.8731
26.8657
26.8589
26.8526
26.8469
26.8419
26.8374
26.8336
26.8303
26.8277
26.8257
26.8242
26.8234
26.8232
26.8235
26.8244
26.8258
26.8277
26.83
26.8328
26.836
26.8397
26.8438
26.8484
26.8534
26.8588
26.8646
26.8708
26.8774
26.8844
26.8917
26.8993
26.9073
26.9155
26.9241
26.9329
26.9419
26.9512
26.9607
26.9704
26.9802
26.9902
27.0004
27.0106
27.021
27.0314
27.0419
27.0524
27.063
27.0735
27.084
27.0945
27.1048
27.1151
27.1253
27.1353
27.1452
27.1549
27.1644
27.1736
27.1827
27.1915
27.2001
27.2086
27.2174
1.87971
1.76618
1.6969
1.6702
1.69599
1.79455
1.99808
2.35263
2.91531
3.74021
4.85282
6.22679
7.78257
9.41176
11.0108
12.5043
13.8504
15.0348
16.0607
16.9406
17.6911
18.3292
18.8712
19.3316
19.723
20.0563
20.3406
20.5836
20.7917
20.9702
21.1238
21.256
21.37
21.4684
21.5534
21.6267
21.6901
21.7447
21.7917
21.832
21.8666
21.896
21.9211
21.9423
21.9602
21.9751
21.9876
21.9979
22.0064
22.0133
22.0189
22.0234
22.027
22.0299
22.0321
22.0339
22.0353
22.0365
22.0375
22.0385
22.0393
22.0402
22.0412
22.0423
22.0435
22.0448
22.0464
22.0482
22.0501
22.0523
22.0548
22.0575
22.0604
22.0636
22.0671
22.0707
22.0746
22.0786
22.0828
22.0872
22.0919
22.0968
22.1019
22.1072
22.1128
22.1185
22.1245
22.1306
22.137
22.1435
22.1502
22.157
22.164
22.1711
22.1783
22.1857
22.1931
22.2006
22.2082
22.2158
22.2235
22.2312
22.2389
22.2465
22.2542
22.2618
22.2693
22.2768
22.2841
22.2913
22.2984
22.3053
22.3121
22.3186
22.325
22.3311
22.337
22.3426
22.348
22.3532
22.3582
22.3637
1.85262
1.70013
1.58443
1.50014
1.4469
1.42874
1.45383
1.53512
1.69135
1.94726
2.33147
2.87025
3.5778
4.44716
5.44733
6.52934
7.63811
8.72431
9.75158
10.698
11.554
12.3183
12.995
13.591
14.1141
14.5727
14.9745
15.3266
15.6356
15.9071
16.1461
16.3567
16.5427
16.7072
16.853
16.9823
17.0972
17.1994
17.2903
17.3714
17.4436
17.508
17.5655
17.6168
17.6627
17.7037
17.7403
17.7732
17.8026
17.8291
17.8528
17.8743
17.8936
17.9111
17.9271
17.9416
17.9549
17.9671
17.9784
17.9888
17.9986
18.0077
18.0163
18.0245
18.0323
18.0397
18.0469
18.0538
18.0606
18.0672
18.0736
18.08
18.0863
18.0925
18.0987
18.1049
18.111
18.117
18.123
18.129
18.1349
18.1409
18.1468
18.1528
18.1588
18.1649
18.1709
18.177
18.1832
18.1894
18.1956
18.2018
18.208
18.2143
18.2206
18.2268
18.2331
18.2393
18.2455
18.2516
18.2577
18.2637
18.2697
18.2755
18.2813
18.2869
18.2924
18.2977
18.3029
18.3079
18.3127
18.3173
18.3217
18.3258
18.3297
18.3333
18.3366
18.3396
18.3424
18.3449
18.3472
18.35
1.84139
1.6697
1.52946
1.4157
1.32537
1.25752
1.21298
1.19428
1.2059
1.25453
1.3495
1.50277
1.72823
2.03963
2.44733
2.95456
3.55468
4.23102
4.95936
5.71236
6.46405
7.19313
7.88442
8.52874
9.12179
9.66281
10.1533
10.5961
10.9949
11.3534
11.6755
11.965
12.2252
12.4592
12.67
12.8599
13.0313
13.1861
13.3261
13.4528
13.5675
13.6716
13.7661
13.8519
13.93
14.0011
14.0658
14.1249
14.1789
14.2282
14.2734
14.3149
14.353
14.3881
14.4204
14.4502
14.4779
14.5035
14.5273
14.5496
14.5703
14.5897
14.608
14.6251
14.6413
14.6566
14.6711
14.6849
14.6981
14.7106
14.7227
14.7342
14.7453
14.756
14.7663
14.7763
14.786
14.7954
14.8045
14.8133
14.8218
14.83
14.8381
14.846
14.8536
14.8611
14.8685
14.8757
14.8828
14.8898
14.8966
14.9033
14.9099
14.9164
14.9227
14.9289
14.935
14.941
14.9468
14.9525
14.958
14.9634
14.9685
14.9735
14.9783
14.9829
14.9873
14.9915
14.9954
14.999
15.0024
15.0056
15.0084
15.0109
15.0131
15.015
15.0165
15.0177
15.0186
15.0191
15.0195
15.0203
1.83747
1.65774
1.50597
1.37779
1.26982
1.17973
1.10613
1.0485
1.0071
0.982967
0.97802
0.995182
1.03851
1.11327
1.22579
1.383
1.59157
1.8566
2.18029
2.56083
2.99199
3.4637
3.96324
4.477
4.99203
5.4973
5.98435
6.44734
6.88275
7.28898
7.66574
8.01368
8.33403
8.62835
8.89838
9.14592
9.37276
9.58062
9.77112
9.94577
10.106
10.253
10.388
10.512
10.626
10.731
10.8276
10.9167
10.9989
11.0748
11.145
11.2099
11.2701
11.3259
11.3777
11.4259
11.4708
11.5127
11.5518
11.5883
11.6226
11.6547
11.6849
11.7133
11.7401
11.7654
11.7892
11.8118
11.8333
11.8536
11.873
11.8914
11.909
11.9258
11.9419
11.9572
11.972
11.9861
11.9997
12.0128
12.0253
12.0373
12.0488
12.0598
12.0705
12.0807
12.0906
12.1002
12.1094
12.1183
12.127
12.1353
12.1434
12.1512
12.1587
12.166
12.173
12.1797
12.1862
12.1924
12.1983
12.204
12.2093
12.2144
12.2192
12.2237
12.2279
12.2318
12.2353
12.2385
12.2413
12.2438
12.2459
12.2476
12.2489
12.2499
12.2504
12.2505
12.2502
12.2496
12.2486
12.248
1.83635
1.65389
1.49762
1.36332
1.24761
1.14783
1.062
0.988661
0.926848
0.875995
0.835924
0.806832
0.789309
0.784375
0.793528
0.818789
0.862716
0.92835
1.01906
1.13827
1.28904
1.47355
1.69266
1.94547
2.22923
2.53947
2.87034
3.21524
3.56742
3.92051
4.269
4.60844
4.93551
5.24794
5.54438
5.82417
6.08719
6.33368
6.56415
6.77925
6.97975
7.16645
7.3402
7.50183
7.65218
7.79203
7.92214
8.04323
8.15596
8.26095
8.3588
8.45004
8.53518
8.61467
8.68896
8.75845
8.82349
8.88444
8.94161
8.99529
9.04573
9.09319
9.13788
9.18001
9.21977
9.25734
9.29286
9.32649
9.35836
9.3886
9.41731
9.4446
9.47057
9.49531
9.51888
9.54137
9.56285
9.58338
9.60302
9.62182
9.63982
9.65706
9.67353
9.68926
9.70431
9.71872
9.73252
9.74575
9.75843
9.7706
9.78226
9.79345
9.80418
9.81446
9.82431
9.83373
9.84274
9.85133
9.85952
9.8673
9.87468
9.88165
9.88822
9.89438
9.90012
9.90545
9.91034
9.91481
9.91884
9.92242
9.92554
9.9282
9.93039
9.93211
9.93334
9.93409
9.93434
9.9341
9.93337
9.93217
9.93064
9.92926
1.8361
1.6529
1.49526
1.35888
1.24033
1.13688
1.04634
0.966998
0.8975
0.836801
0.784121
0.738903
0.700795
0.66963
0.645428
0.628393
0.618928
0.61765
0.625407
0.643286
0.672608
0.714903
0.771843
0.845142
0.936411
1.04698
1.17773
1.32888
1.49991
1.68953
1.89566
2.1156
2.34622
2.58416
2.82607
3.06879
3.30953
3.54592
3.77608
3.99861
4.21254
4.41724
4.61238
4.79786
4.97375
5.14023
5.29757
5.44608
5.58615
5.71816
5.8425
5.9596
6.06986
6.17369
6.27148
6.3636
6.45041
6.53226
6.60946
6.68231
6.75109
6.81608
6.8775
6.93561
6.99061
7.0427
7.09208
7.13892
7.18338
7.22561
7.26576
7.30395
7.34031
7.37494
7.40795
7.43944
7.46949
7.49819
7.52562
7.55183
7.57691
7.60092
7.6239
7.64589
7.66692
7.687
7.70618
7.72453
7.74207
7.75885
7.7749
7.79025
7.80493
7.81895
7.83235
7.84513
7.85731
7.8689
7.87992
7.89037
7.90026
7.90959
7.91836
7.92658
7.93424
7.94134
7.94789
7.95387
7.95928
7.96412
7.96838
7.97206
7.97516
7.97767
7.97958
7.9809
7.98162
7.98174
7.98128
7.98024
7.97878
7.9773
1.83605
1.6527
1.49473
1.35782
1.23848
1.13393
1.04192
0.960651
0.888632
0.82467
0.767793
0.717216
0.672311
0.632587
0.597667
0.567277
0.541239
0.519467
0.501959
0.488804
0.480184
0.476377
0.477764
0.484832
0.498177
0.518494
0.546567
0.583238
0.629371
0.6858
0.753268
0.832359
0.923427
1.02655
1.14146
1.26758
1.40398
1.54944
1.70251
1.86157
2.02494
2.19092
2.35791
2.52442
2.68917
2.85105
3.00917
3.16286
3.31162
3.45509
3.59309
3.72551
3.85233
3.97362
4.08947
4.20001
4.30539
4.4058
4.50141
4.59243
4.67904
4.76147
4.83989
4.91452
4.98556
5.05318
5.11757
5.17891
5.23736
5.29309
5.34623
5.39692
5.44531
5.4915
5.53562
5.57778
5.61807
5.6566
5.69346
5.72873
5.76249
5.79482
5.82579
5.85547
5.88391
5.91118
5.9373
5.96227
5.98614
6.00897
6.03081
6.05169
6.07165
6.09073
6.10895
6.12633
6.14291
6.15869
6.17369
6.18793
6.20143
6.21418
6.2262
6.23749
6.24806
6.2579
6.26703
6.27543
6.28312
6.29008
6.29633
6.30185
6.30665
6.31072
6.31407
6.3167
6.31861
6.31981
6.3203
6.3201
6.31936
6.31843
1.83603
1.65264
1.49462
1.3576
1.23811
1.13332
1.04098
0.959246
0.886595
0.821781
0.76377
0.711705
0.664871
0.622675
0.584622
0.550304
0.519386
0.491594
0.466712
0.444572
0.425055
0.408081
0.393614
0.381659
0.372259
0.365503
0.361521
0.36049
0.362634
0.368225
0.377581
0.391066
0.409078
0.432044
0.460403
0.49459
0.535013
0.582031
0.635924
0.696874
0.764942
0.840052
0.92198
1.01036
1.10468
1.20432
1.30853
1.41653
1.52746
1.64047
1.75472
1.8694
1.98378
2.09721
2.20912
2.31903
2.42656
2.5314
2.63332
2.73218
2.82788
2.92036
3.00961
3.09566
3.17854
3.25831
3.33503
3.40879
3.47966
3.54774
3.61311
3.67587
3.73611
3.79393
3.84942
3.90267
3.95377
4.00282
4.0499
4.0951
4.1385
4.18018
4.2202
4.25864
4.29557
4.33104
4.36511
4.39786
4.4293
4.45945
4.48832
4.51596
4.54243
4.56775
4.59196
4.6151
4.6372
4.65827
4.67834
4.69743
4.71556
4.73274
4.74898
4.7643
4.7787
4.79218
4.80477
4.81645
4.82723
4.83712
4.84613
4.85424
4.86148
4.86784
4.87333
4.87796
4.88173
4.88466
4.88675
4.88804
4.88865
4.88889
1.83602
1.65261
1.49457
1.35754
1.23801
1.13319
1.0408
0.958995
0.886239
0.821274
0.763051
0.710688
0.663449
0.620708
0.581938
0.54669
0.514581
0.485287
0.45853
0.434076
0.411723
0.391305
0.372681
0.355736
0.340378
0.326536
0.314157
0.303211
0.293681
0.285572
0.278907
0.273724
0.270086
0.268071
0.267781
0.269336
0.27288
0.278577
0.286609
0.297176
0.310491
0.326777
0.346259
0.369158
0.395684
0.426026
0.460341
0.498747
0.541316
0.588064
0.638946
0.693856
0.752623
0.815019
0.880755
0.949496
1.02087
1.09446
1.16986
1.24664
1.32436
1.40261
1.48101
1.55919
1.63683
1.71365
1.78938
1.86382
1.9368
2.00819
2.07788
2.1458
2.21189
2.27614
2.33852
2.39904
2.45771
2.51455
2.56959
2.62286
2.67439
2.72421
2.77236
2.81889
2.86381
2.90718
2.94902
2.98939
3.0283
3.0658
3.10193
3.13671
3.17013
3.20219
3.23294
3.26239
3.29059
3.31755
3.34331
3.36787
3.39127
3.41351
3.4346
3.45457
3.47342
3.49116
3.5078
3.52335
3.53782
3.55122
3.56356
3.57484
3.58508
3.59429
3.60248
3.60968
3.61588
3.62112
3.62541
3.62878
3.63136
3.63338
1.83602
1.65258
1.49453
1.35749
1.23795
1.13313
1.04073
0.958918
0.886153
0.821175
0.76293
0.710534
0.663244
0.620428
0.581551
0.546153
0.513841
0.484276
0.457165
0.432255
0.409327
0.388188
0.368672
0.350636
0.333951
0.31851
0.304216
0.290989
0.278758
0.267465
0.25706
0.247503
0.238763
0.230817
0.223649
0.217253
0.211629
0.206785
0.202738
0.199512
0.197141
0.195666
0.195138
0.195616
0.197171
0.19988
0.20383
0.209118
0.215845
0.22412
0.234055
0.245766
0.259366
0.274968
0.292676
0.312586
0.334781
0.359328
0.386275
0.415646
0.447444
0.481645
0.518196
0.55702
0.598014
0.641048
0.685972
0.732613
0.780785
0.830288
0.880912
0.932445
0.98467
1.03738
1.09036
1.14343
1.19639
1.24908
1.30134
1.35303
1.40403
1.45423
1.50354
1.55189
1.5992
1.64543
1.69053
1.73449
1.77726
1.81884
1.85923
1.89839
1.93635
1.97311
2.00865
2.04294
2.07596
2.10772
2.1382
2.16743
2.1954
2.22212
2.24759
2.27181
2.2948
2.31657
2.33711
2.35644
2.37457
2.39151
2.40728
2.42189
2.43537
2.44773
2.459
2.46919
2.47834
2.48647
2.49361
2.49979
2.50512
2.50978
1.83601
1.65256
1.4945
1.35744
1.2379
1.13307
1.04068
0.958862
0.886097
0.821119
0.762874
0.710479
0.663188
0.620369
0.581486
0.546077
0.513746
0.484154
0.457003
0.432037
0.409031
0.387791
0.368143
0.349936
0.333036
0.317326
0.302702
0.28907
0.276348
0.264464
0.253353
0.242957
0.233225
0.224112
0.215578
0.207589
0.200113
0.193126
0.186603
0.180527
0.174883
0.169659
0.164845
0.160438
0.156434
0.152836
0.149647
0.146875
0.144531
0.14263
0.14119
0.140234
0.139786
0.139876
0.140539
0.141812
0.143737
0.146358
0.149724
0.153886
0.158899
0.164819
0.171701
0.179605
0.188586
0.198699
0.209996
0.222525
0.23633
0.251445
0.2679
0.285715
0.304899
0.325451
0.34736
0.370602
0.395143
0.420934
0.447918
0.476025
0.505175
0.53528
0.566241
0.597956
0.630314
0.663203
0.696504
0.730103
0.763881
0.797723
0.831517
0.865155
0.898535
0.931561
0.964143
0.996206
1.02768
1.05849
1.08856
1.11782
1.14621
1.17371
1.20028
1.22588
1.2505
1.27413
1.29676
1.31839
1.33901
1.35863
1.37726
1.39491
1.41159
1.42733
1.44213
1.45602
1.46901
1.48114
1.49241
1.50287
1.51256
1.52157
1.83601
1.65254
1.49448
1.35742
1.23787
1.13304
1.04064
0.958826
0.886061
0.821083
0.762838
0.710444
0.663153
0.620336
0.581454
0.546046
0.513716
0.484124
0.456972
0.432004
0.408994
0.387747
0.368088
0.349865
0.332945
0.317207
0.302545
0.288866
0.276084
0.264125
0.25292
0.24241
0.232539
0.223258
0.214524
0.206296
0.198537
0.191217
0.184304
0.177772
0.171597
0.165758
0.160235
0.155011
0.150069
0.145397
0.140981
0.136811
0.132878
0.129175
0.125694
0.122431
0.119382
0.116544
0.113918
0.111502
0.109298
0.10731
0.105541
0.103998
0.102688
0.101619
0.100802
0.100248
0.0999715
0.0999876
0.100313
0.100967
0.101969
0.103342
0.105109
0.107294
0.109925
0.113028
0.11663
0.120762
0.12545
0.130724
0.136612
0.143139
0.150332
0.158214
0.166804
0.176121
0.186179
0.196987
0.208551
0.220872
0.233945
0.24776
0.262302
0.27755
0.293478
0.310053
0.32724
0.344996
0.363279
0.382037
0.401227
0.420797
0.440683
0.460826
0.48116
0.501623
0.522152
0.542687
0.563166
0.583533
0.603732
0.623712
0.643423
0.662821
0.681863
0.700511
0.718731
0.736491
0.753766
0.770531
0.786766
0.802456
0.817591
0.832144
1.83601
1.65254
1.49448
1.35742
1.23787