/*--------------------------------*- C++ -*----------------------------------*\
  =========                 |
  \\      /  F ield         | OpenFOAM: The Open Source CFD Toolbox
   \\    /   O peration     | Website:  https://openfoam.org
    \\  /    A nd           | Version:  8
     \\/     M anipulation  |
\*---------------------------------------------------------------------------*/
FoamFile
{
    version     2.0;
    format      ascii;
    class       volScalarField;
    location    "550";
    object      k;
}
// * * * * * * * * * * * * * * * * * * * * * * * * * * * * * * * * * * * * * //

dimensions      [0 2 -2 0 0 0 0];

internalField   nonuniform List<scalar> 
7320
(
6.07652
5.55942
5.24732
5.04165
4.8942
4.78178
4.69211
4.61825
4.55602
4.50265
4.45625
4.41545
4.37924
4.34686
4.31771
4.29132
4.26733
4.24542
4.22534
4.20689
4.18987
4.17415
4.15959
4.14608
4.13352
4.12184
4.11094
4.10078
4.09129
4.08241
4.07411
4.06633
4.05905
4.05222
4.04581
4.03981
4.03417
4.02889
4.02393
4.01928
4.01492
4.01084
4.00701
4.00343
4.00009
3.99696
3.99404
3.99133
3.9888
3.98645
3.98427
3.98226
3.9804
3.97869
3.97712
3.97568
3.97438
3.9732
3.97214
3.97119
3.97035
3.96962
3.96898
3.96844
3.96799
3.96763
3.96735
3.96716
3.96704
3.967
3.96703
3.96712
3.96729
3.96752
3.96781
3.96816
3.96856
3.96902
3.96954
3.97011
3.97072
3.97138
3.97209
3.97284
3.97364
3.97448
3.97535
3.97627
3.97722
3.97821
3.97923
3.98028
3.98137
3.98248
3.98363
3.98481
3.98601
3.98723
3.98849
3.98976
3.99106
3.99237
3.99371
3.99506
3.99643
3.99782
3.99922
4.00063
4.00205
4.00348
4.00492
4.00636
4.00781
4.00926
4.01071
4.01215
4.0136
4.01503
4.01646
4.01788
4.01924
4.02065
4.84215
5.67924
5.54001
5.36046
5.21715
5.10399
5.01225
4.93597
4.87129
4.81558
4.76697
4.72412
4.68601
4.65186
4.62109
4.59321
4.56782
4.54462
4.52335
4.50378
4.48573
4.46904
4.45358
4.43924
4.4259
4.41348
4.40191
4.39111
4.38102
4.37158
4.36276
4.35449
4.34675
4.3395
4.3327
4.32632
4.32034
4.31473
4.30948
4.30455
4.29993
4.29561
4.29156
4.28778
4.28424
4.28094
4.27786
4.275
4.27234
4.26987
4.26758
4.26547
4.26353
4.26174
4.26011
4.25862
4.25726
4.25605
4.25496
4.25399
4.25313
4.25239
4.25175
4.25122
4.25079
4.25045
4.2502
4.25004
4.24996
4.24996
4.25004
4.25019
4.25041
4.25071
4.25107
4.25149
4.25197
4.25252
4.25312
4.25377
4.25448
4.25524
4.25605
4.25691
4.25781
4.25876
4.25975
4.26078
4.26185
4.26296
4.26411
4.26529
4.26651
4.26776
4.26904
4.27034
4.27168
4.27305
4.27444
4.27585
4.27729
4.27875
4.28023
4.28173
4.28325
4.28478
4.28632
4.28788
4.28945
4.29102
4.29261
4.29419
4.29578
4.29737
4.29896
4.30055
4.30213
4.3037
4.30526
4.30681
4.30831
4.3098
3.59581
5.0514
5.15997
5.06781
4.96411
4.87324
4.79598
4.72999
4.67307
4.62344
4.57977
4.541
4.50635
4.47517
4.44698
4.42135
4.39797
4.37656
4.35689
4.33877
4.32204
4.30655
4.29219
4.27885
4.26644
4.25488
4.2441
4.23404
4.22465
4.21586
4.20764
4.19994
4.19273
4.18598
4.17965
4.17372
4.16816
4.16296
4.15807
4.1535
4.14922
4.14522
4.14147
4.13797
4.13471
4.13166
4.12883
4.12619
4.12375
4.12149
4.1194
4.11747
4.1157
4.11408
4.11261
4.11127
4.11007
4.10898
4.10802
4.10718
4.10645
4.10582
4.10529
4.10486
4.10453
4.10428
4.10412
4.10405
4.10405
4.10414
4.10429
4.10452
4.10481
4.10517
4.10559
4.10607
4.10661
4.10721
4.10787
4.10857
4.10933
4.11014
4.11099
4.11189
4.11283
4.11382
4.11484
4.11591
4.11701
4.11815
4.11932
4.12052
4.12176
4.12303
4.12433
4.12566
4.12701
4.12839
4.12979
4.13121
4.13265
4.13412
4.1356
4.1371
4.13861
4.14014
4.14168
4.14322
4.14478
4.14634
4.14791
4.14948
4.15104
4.15261
4.15418
4.15573
4.15729
4.15883
4.16036
4.16187
4.16335
4.16477
2.74725
4.48339
4.83294
4.83938
4.78111
4.71517
4.65355
4.59832
4.54927
4.50567
4.46677
4.43188
4.40045
4.372
4.34614
4.32254
4.30093
4.28108
4.2628
4.24593
4.23032
4.21585
4.20241
4.18992
4.17829
4.16744
4.15733
4.14788
4.13906
4.1308
4.12308
4.11585
4.10909
4.10275
4.09681
4.09125
4.08604
4.08116
4.07659
4.07231
4.06831
4.06457
4.06108
4.05781
4.05477
4.05194
4.04931
4.04687
4.04461
4.04252
4.0406
4.03883
4.03722
4.03575
4.03441
4.03321
4.03213
4.03118
4.03033
4.02961
4.02898
4.02846
4.02804
4.02771
4.02747
4.02732
4.02726
4.02727
4.02736
4.02753
4.02777
4.02807
4.02844
4.02887
4.02937
4.02992
4.03054
4.0312
4.03192
4.03269
4.03351
4.03438
4.03529
4.03625
4.03725
4.03829
4.03937
4.04049
4.04164
4.04283
4.04405
4.0453
4.04658
4.04789
4.04923
4.0506
4.05199
4.0534
4.05484
4.05629
4.05777
4.05926
4.06077
4.06229
4.06383
4.06537
4.06693
4.06849
4.07006
4.07163
4.07321
4.07479
4.07636
4.07793
4.07949
4.08105
4.0826
4.08413
4.08565
4.08716
4.08863
4.09001
2.10346
3.90602
4.48941
4.61127
4.60898
4.57387
4.53133
4.489
4.44924
4.41265
4.37922
4.34873
4.32092
4.29549
4.27219
4.2508
4.23111
4.21295
4.19616
4.18061
4.16619
4.15279
4.14033
4.12872
4.11789
4.1078
4.09837
4.08956
4.08132
4.07362
4.06641
4.05966
4.05335
4.04743
4.0419
4.03671
4.03186
4.02731
4.02306
4.01908
4.01536
4.01188
4.00864
4.00562
4.0028
4.00019
3.99776
3.99552
3.99344
3.99153
3.98978
3.98817
3.98671
3.98539
3.9842
3.98313
3.98219
3.98136
3.98064
3.98003
3.97952
3.97911
3.9788
3.97858
3.97844
3.97839
3.97842
3.97853
3.97871
3.97897
3.97929
3.97968
3.98014
3.98065
3.98123
3.98186
3.98255
3.98329
3.98408
3.98493
3.98582
3.98675
3.98773
3.98876
3.98982
3.99092
3.99206
3.99324
3.99445
3.99569
3.99697
3.99827
3.99961
4.00097
4.00236
4.00377
4.00521
4.00666
4.00814
4.00963
4.01115
4.01268
4.01422
4.01577
4.01734
4.01891
4.02049
4.02208
4.02367
4.02526
4.02685
4.02844
4.03003
4.0316
4.03318
4.03474
4.03628
4.03782
4.03934
4.04083
4.04231
4.04366
1.61624
3.30894
4.10161
4.35522
4.42201
4.42574
4.40724
4.38106
4.35281
4.32483
4.29808
4.27292
4.24944
4.22762
4.20737
4.18859
4.17115
4.15496
4.13991
4.1259
4.11285
4.10069
4.08935
4.07875
4.06886
4.05961
4.05096
4.04288
4.03531
4.02823
4.0216
4.0154
4.0096
4.00416
3.99907
3.99431
3.98985
3.98567
3.98177
3.97812
3.97471
3.97153
3.96857
3.96581
3.96324
3.96086
3.95866
3.95663
3.95476
3.95304
3.95147
3.95004
3.94875
3.94759
3.94655
3.94563
3.94483
3.94414
3.94356
3.94307
3.94269
3.9424
3.9422
3.94209
3.94207
3.94212
3.94226
3.94247
3.94275
3.9431
3.94352
3.944
3.94455
3.94515
3.94581
3.94652
3.94729
3.94811
3.94898
3.9499
3.95086
3.95187
3.95292
3.95401
3.95515
3.95631
3.95752
3.95876
3.96003
3.96133
3.96266
3.96402
3.96541
3.96682
3.96826
3.96972
3.9712
3.9727
3.97422
3.97576
3.97731
3.97887
3.98045
3.98203
3.98363
3.98523
3.98683
3.98844
3.99005
3.99166
3.99327
3.99487
3.99647
3.99805
3.99963
4.00119
4.00274
4.00428
4.00579
4.00728
4.00875
4.01008
1.26812
2.7064
3.65726
4.05358
4.20386
4.25636
4.26838
4.26267
4.24897
4.23181
4.21339
4.19484
4.17674
4.15936
4.14285
4.12725
4.11255
4.09875
4.0858
4.07365
4.06226
4.05159
4.04158
4.0322
4.02342
4.01518
4.00747
4.00024
3.99347
3.98713
3.98119
3.97563
3.97042
3.96554
3.96098
3.95671
3.95271
3.94897
3.94547
3.9422
3.93915
3.93631
3.93367
3.93121
3.92893
3.92682
3.92487
3.92308
3.92144
3.91994
3.91858
3.91735
3.91625
3.91526
3.9144
3.91365
3.91301
3.91247
3.91204
3.9117
3.91145
3.91129
3.91122
3.91124
3.91133
3.91151
3.91175
3.91207
3.91246
3.91292
3.91344
3.91402
3.91466
3.91535
3.9161
3.9169
3.91776
3.91866
3.91961
3.92061
3.92165
3.92273
3.92385
3.92501
3.92621
3.92745
3.92872
3.93002
3.93135
3.93271
3.9341
3.93551
3.93695
3.93842
3.9399
3.94141
3.94293
3.94448
3.94603
3.94761
3.94919
3.95079
3.9524
3.95401
3.95563
3.95726
3.95888
3.96051
3.96214
3.96376
3.96538
3.96699
3.96859
3.97018
3.97176
3.97332
3.97487
3.97639
3.9779
3.97938
3.98084
3.98214
1.04443
2.13048
3.15609
3.69382
3.94125
4.05401
4.10457
4.12487
4.12967
4.12622
4.11833
4.1081
4.09673
4.0849
4.07304
4.06139
4.0501
4.03924
4.02888
4.01901
4.00966
4.0008
3.99244
3.98454
3.97711
3.97011
3.96352
3.95733
3.95153
3.94608
3.94097
3.93618
3.93169
3.92748
3.92354
3.91986
3.91641
3.91318
3.91017
3.90736
3.90473
3.90229
3.90002
3.89792
3.89597
3.89418
3.89253
3.89102
3.88965
3.8884
3.88729
3.88629
3.8854
3.88463
3.88397
3.88341
3.88295
3.88259
3.88232
3.88215
3.88206
3.88205
3.88212
3.88228
3.88251
3.88281
3.88318
3.88362
3.88413
3.8847
3.88533
3.88602
3.88676
3.88755
3.8884
3.88929
3.89023
3.89123
3.89226
3.89334
3.89446
3.89562
3.89682
3.89805
3.89932
3.90062
3.90195
3.90331
3.90471
3.90612
3.90757
3.90904
3.91053
3.91204
3.91357
3.91512
3.91669
3.91827
3.91986
3.92147
3.92309
3.92472
3.92635
3.92799
3.92963
3.93127
3.93292
3.93456
3.9362
3.93783
3.93945
3.94107
3.94267
3.94426
3.94583
3.94739
3.94893
3.95044
3.95193
3.95339
3.95484
3.95611
0.919762
1.62589
2.61278
3.26901
3.62244
3.80741
3.90596
3.95917
3.98746
4.00145
4.00694
4.00725
4.00438
3.99954
3.99351
3.98681
3.97976
3.97259
3.96544
3.95842
3.95158
3.94498
3.93864
3.93257
3.9268
3.92131
3.91611
3.9112
3.90657
3.90221
3.89811
3.89426
3.89065
3.88726
3.88408
3.8811
3.87832
3.87572
3.87328
3.87102
3.8689
3.86694
3.86513
3.86345
3.8619
3.86049
3.8592
3.85802
3.85697
3.85603
3.8552
3.85447
3.85385
3.85332
3.8529
3.85256
3.85232
3.85216
3.85209
3.8521
3.85219
3.85236
3.8526
3.85292
3.8533
3.85375
3.85426
3.85484
3.85548
3.85618
3.85693
3.85774
3.85859
3.85949
3.86044
3.86144
3.86248
3.86357
3.86469
3.86586
3.86706
3.8683
3.86958
3.87089
3.87223
3.8736
3.875
3.87642
3.87788
3.87935
3.88085
3.88237
3.88391
3.88547
3.88705
3.88864
3.89025
3.89186
3.89349
3.89513
3.89678
3.89843
3.90008
3.90174
3.9034
3.90506
3.90672
3.90837
3.91001
3.91165
3.91328
3.91489
3.91649
3.91807
3.91963
3.92118
3.9227
3.92419
3.92566
3.9271
3.92852
3.92976
0.860369
1.23773
2.06198
2.78202
3.23846
3.50547
3.66218
3.75644
3.81442
3.85055
3.87304
3.88674
3.89464
3.89864
3.89999
3.89953
3.89781
3.89526
3.89213
3.88865
3.88496
3.88116
3.87734
3.87355
3.86983
3.86622
3.86274
3.85941
3.85623
3.85321
3.85035
3.84765
3.84511
3.84272
3.84047
3.83836
3.83639
3.83454
3.83282
3.83122
3.82973
3.82835
3.82708
3.82592
3.82486
3.82391
3.82305
3.82228
3.82162
3.82104
3.82056
3.82016
3.81985
3.81962
3.81948
3.81941
3.81942
3.81951
3.81968
3.81991
3.82022
3.82059
3.82103
3.82153
3.82209
3.82272
3.8234
3.82413
3.82493
3.82577
3.82666
3.82761
3.82859
3.82962
3.83069
3.8318
3.83295
3.83414
3.83536
3.83663
3.83792
3.83925
3.84061
3.842
3.84342
3.84486
3.84633
3.84783
3.84934
3.85088
3.85244
3.85401
3.8556
3.85721
3.85883
3.86047
3.86211
3.86376
3.86542
3.86709
3.86876
3.87044
3.87212
3.87379
3.87547
3.87714
3.8788
3.88046
3.88211
3.88375
3.88537
3.88697
3.88856
3.89013
3.89168
3.89321
3.8947
3.89618
3.89762
3.89903
3.90042
3.90162
0.836787
0.98815
1.55966
2.25312
2.7872
3.13869
3.36248
3.50657
3.60152
3.66555
3.70958
3.74027
3.76186
3.77709
3.78778
3.79521
3.80023
3.80349
3.80544
3.80641
3.80666
3.80637
3.80569
3.80474
3.80359
3.80231
3.80097
3.79959
3.79821
3.79685
3.79553
3.79425
3.79303
3.79187
3.79077
3.78973
3.78875
3.78784
3.78699
3.7862
3.78548
3.78482
3.78423
3.7837
3.78324
3.78285
3.78252
3.78226
3.78206
3.78194
3.78187
3.78188
3.78195
3.78209
3.78229
3.78255
3.78288
3.78326
3.78371
3.78421
3.78478
3.7854
3.78607
3.7868
3.78758
3.78841
3.78929
3.79022
3.79119
3.79221
3.79327
3.79437
3.79551
3.79668
3.79789
3.79914
3.80041
3.80173
3.80307
3.80444
3.80585
3.80728
3.80873
3.81021
3.81172
3.81325
3.8148
3.81636
3.81795
3.81956
3.82118
3.82281
3.82446
3.82612
3.82778
3.82946
3.83115
3.83284
3.83454
3.83623
3.83793
3.83963
3.84133
3.84303
3.84472
3.8464
3.84807
3.84973
3.85138
3.85301
3.85463
3.85623
3.8578
3.85936
3.86088
3.86239
3.86386
3.8653
3.86671
3.86808
3.86944
3.8706
0.830413
0.857509
1.16926
1.7285
2.28148
2.70333
2.99742
3.19899
3.33861
3.4372
3.50825
3.56042
3.59936
3.62883
3.65138
3.6688
3.68236
3.69298
3.70133
3.70792
3.71313
3.71726
3.72053
3.72313
3.7252
3.72684
3.72816
3.72922
3.73008
3.73079
3.73137
3.73186
3.73228
3.73264
3.73296
3.73325
3.73351
3.73375
3.73398
3.73421
3.73444
3.73467
3.73491
3.73517
3.73545
3.73575
3.73608
3.73644
3.73683
3.73726
3.73772
3.73823
3.73877
3.73936
3.73998
3.74065
3.74136
3.74212
3.74291
3.74375
3.74463
3.74556
3.74652
3.74753
3.74857
3.74966
3.75078
3.75194
3.75313
3.75436
3.75563
3.75692
3.75825
3.75959
3.76097
3.76238
3.76381
3.76527
3.76675
3.76826
3.76979
3.77134
3.77291
3.7745
3.77611
3.77774
3.77938
3.78103
3.78271
3.78439
3.78608
3.78779
3.7895
3.79122
3.79295
3.79468
3.79641
3.79815
3.79988
3.80162
3.80335
3.80508
3.8068
3.80852
3.81022
3.81192
3.8136
3.81526
3.81691
3.81854
3.82015
3.82174
3.8233
3.82484
3.82635
3.82782
3.82927
3.83068
3.83205
3.83338
3.8347
3.83582
0.831632
0.801461
0.924682
1.27902
1.76057
2.20994
2.5635
2.82478
3.0153
3.15518
3.25939
3.33832
3.39906
3.44651
3.48408
3.51418
3.53856
3.5585
3.57496
3.58866
3.60014
3.60985
3.6181
3.62518
3.63129
3.6366
3.64126
3.64538
3.64904
3.65233
3.65529
3.65799
3.66045
3.66272
3.6648
3.66674
3.66854
3.67022
3.6718
3.67329
3.6747
3.67604
3.67733
3.67857
3.67977
3.68095
3.6821
3.68323
3.68436
3.68548
3.6866
3.68773
3.68886
3.69
3.69116
3.69234
3.69353
3.69474
3.69598
3.69723
3.69851
3.69981
3.70114
3.70249
3.70386
3.70526
3.70669
3.70813
3.70961
3.7111
3.71262
3.71415
3.71571
3.71727
3.71886
3.72047
3.72209
3.72373
3.72538
3.72705
3.72874
3.73044
3.73216
3.73388
3.73562
3.73737
3.73913
3.7409
3.74267
3.74445
3.74624
3.74803
3.74983
3.75162
3.75342
3.75522
3.75701
3.75881
3.7606
3.76238
3.76415
3.76592
3.76767
3.76942
3.77115
3.77286
3.77456
3.77624
3.77789
3.77952
3.78113
3.78271
3.78426
3.78578
3.78727
3.78872
3.79013
3.7915
3.79284
3.79413
3.7954
3.79647
0.835915
0.782667
0.803403
0.968303
1.29566
1.69673
2.07275
2.38225
2.62383
2.80953
2.95259
3.06385
3.15146
3.22133
3.27774
3.32383
3.3619
3.39365
3.42038
3.44308
3.46251
3.47927
3.49382
3.50656
3.51777
3.52771
3.53657
3.54453
3.55172
3.55825
3.5642
3.56966
3.57469
3.57933
3.58363
3.58763
3.59136
3.59485
3.59812
3.60119
3.60408
3.60682
3.60942
3.61189
3.61425
3.61652
3.61871
3.62082
3.62286
3.62486
3.62681
3.62871
3.63059
3.63244
3.63427
3.63608
3.63788
3.63967
3.64146
3.64324
3.64501
3.64679
3.64858
3.65036
3.65215
3.65395
3.65575
3.65756
3.65938
3.66121
3.66304
3.66488
3.66673
3.66858
3.67043
3.67229
3.67415
3.67602
3.6779
3.67978
3.68166
3.68356
3.68545
3.68735
3.68926
3.69116
3.69307
3.69498
3.69689
3.6988
3.70071
3.70261
3.70451
3.70641
3.70831
3.71019
3.71207
3.71394
3.7158
3.71765
3.71948
3.7213
3.72311
3.72489
3.72666
3.72841
3.73013
3.73183
3.7335
3.73514
3.73675
3.73833
3.73988
3.74138
3.74285
3.74428
3.74566
3.747
3.7483
3.74955
3.75077
3.7518
0.841165
0.780282
0.755
0.801817
0.962761
1.23783
1.56799
1.88853
2.16639
2.39488
2.57903
2.72692
2.8462
2.94318
3.02278
3.08874
3.14394
3.19054
3.23023
3.26431
3.29379
3.31948
3.34201
3.3619
3.37957
3.39535
3.40954
3.42235
3.43398
3.44459
3.45431
3.46325
3.4715
3.47914
3.48623
3.49282
3.49898
3.50473
3.51012
3.51518
3.51995
3.52444
3.52869
3.53272
3.53655
3.5402
3.54369
3.54704
3.55025
3.55335
3.55634
3.55924
3.56206
3.56481
3.56748
3.5701
3.57267
3.5752
3.57768
3.58013
3.58254
3.58493
3.58729
3.58963
3.59195
3.59425
3.59654
3.59881
3.60107
3.60332
3.60556
3.60779
3.61001
3.61222
3.61441
3.6166
3.61877
3.62094
3.6231
3.62525
3.6274
3.62954
3.63167
3.63379
3.63591
3.63803
3.64013
3.64223
3.64431
3.64639
3.64846
3.65052
3.65257
3.6546
3.65662
3.65863
3.66063
3.6626
3.66456
3.6665
3.66843
3.67032
3.6722
3.67405
3.67588
3.67768
3.67945
3.68118
3.68289
3.68455
3.68618
3.68777
3.68932
3.69082
3.69228
3.6937
3.69506
3.69637
3.69763
3.69883
3.7
3.70099
0.846372
0.784571
0.740866
0.731421
0.780818
0.913761
1.13036
1.39676
1.66969
1.92048
2.13792
2.32135
2.47447
2.60211
2.70889
2.79873
2.87484
2.93979
2.99561
3.04393
3.08604
3.12298
3.15558
3.18452
3.21035
3.23353
3.25444
3.27339
3.29065
3.30642
3.3209
3.33423
3.34655
3.35797
3.36857
3.37845
3.38767
3.39628
3.40436
3.41194
3.41907
3.42578
3.43212
3.43812
3.44381
3.44922
3.45436
3.45927
3.46397
3.46847
3.47279
3.47695
3.48097
3.48485
3.48862
3.49227
3.49582
3.49927
3.50265
3.50594
3.50917
3.51233
3.51543
3.51848
3.52148
3.52443
3.52734
3.53021
3.53304
3.53583
3.53859
3.54133
3.54403
3.54669
3.54933
3.55193
3.55451
3.55707
3.5596
3.56211
3.56459
3.56706
3.5695
3.57192
3.57433
3.57671
3.57908
3.58142
3.58375
3.58606
3.58834
3.59061
3.59285
3.59507
3.59727
3.59945
3.6016
3.60373
3.60583
3.6079
3.60995
3.61196
3.61395
3.6159
3.61782
3.6197
3.62154
3.62334
3.6251
3.62681
3.62848
3.6301
3.63167
3.63319
3.63466
3.63607
3.63742
3.63871
3.63994
3.6411
3.64223
3.64318
0.851011
0.791143
0.741126
0.708367
0.70346
0.741579
0.838108
0.996907
1.20263
1.4285
1.65059
1.85477
2.03555
2.19259
2.32789
2.44426
2.54449
2.63115
2.70642
2.77214
2.82983
2.88074
2.92591
2.9662
3.00229
3.0348
3.06419
3.0909
3.11526
3.13756
3.15805
3.17694
3.19441
3.21061
3.22566
3.23969
3.25278
3.26503
3.2765
3.28727
3.29739
3.30693
3.31592
3.32443
3.33248
3.34011
3.34736
3.35427
3.36085
3.36714
3.37316
3.37894
3.38448
3.38982
3.39496
3.39993
3.40474
3.40939
3.41391
3.41829
3.42256
3.42672
3.43077
3.43473
3.43859
3.44238
3.44609
3.44972
3.45328
3.45678
3.46022
3.4636
3.46692
3.47019
3.4734
3.47656
3.47966
3.48272
3.48574
3.48871
3.49165
3.49454
3.49739
3.50021
3.50299
3.50574
3.50845
3.51113
3.51378
3.51639
3.51897
3.52151
3.52403
3.5265
3.52895
3.53136
3.53373
3.53607
3.53837
3.54063
3.54285
3.54503
3.54717
3.54927
3.55132
3.55332
3.55528
3.55718
3.55904
3.56083
3.56257
3.56426
3.56588
3.56743
3.56893
3.57035
3.57171
3.573
3.57421
3.57535
3.57645
3.57737
0.854799
0.797919
0.746862
0.705362
0.677885
0.670753
0.692779
0.753704
0.85933
1.00619
1.18133
1.368
1.55204
1.72458
1.88152
2.02185
2.14624
2.2561
2.35311
2.43889
2.51496
2.58264
2.64308
2.69728
2.74606
2.79014
2.83013
2.86654
2.89982
2.93034
2.95841
2.98432
3.00829
3.03053
3.05121
3.07049
3.08848
3.10532
3.12111
3.13592
3.14985
3.16297
3.17534
3.18702
3.19808
3.20856
3.2185
3.22794
3.23694
3.24552
3.25371
3.26154
3.26905
3.27625
3.28316
3.28982
3.29623
3.30242
3.3084
3.31419
3.3198
3.32523
3.33051
3.33564
3.34063
3.34549
3.35022
3.35485
3.35936
3.36377
3.36808
3.3723
3.37643
3.38048
3.38444
3.38831
3.39211
3.39584
3.39949
3.40307
3.40659
3.41005
3.41345
3.41679
3.42007
3.4233
3.42648
3.4296
3.43267
3.4357
3.43867
3.44159
3.44447
3.44729
3.45007
3.4528
3.45548
3.4581
3.46068
3.4632
3.46568
3.46809
3.47046
3.47276
3.47501
3.4772
3.47932
3.48138
3.48338
3.48531
3.48716
3.48895
3.49066
3.49229
3.49385
3.49532
3.49671
3.49802
3.49925
3.50039
3.50146
3.50237
0.857613
0.803838
0.754023
0.710069
0.674015
0.648368
0.636594
0.64348
0.674826
0.735879
0.828724
0.950233
1.09243
1.24518
1.3992
1.54781
1.68713
1.81538
1.93217
2.03791
2.13338
2.21952
2.29732
2.36769
2.43148
2.48946
2.5423
2.59059
2.63486
2.67555
2.71306
2.74772
2.77984
2.80966
2.83742
2.86331
2.8875
2.91014
2.93137
2.95131
2.97006
2.98772
3.00438
3.02011
3.035
3.04909
3.06246
3.07515
3.08723
3.09873
3.1097
3.12017
3.13018
3.13977
3.14896
3.15779
3.16627
3.17443
3.1823
3.18989
3.19721
3.2043
3.21115
3.21779
3.22423
3.23048
3.23655
3.24245
3.24819
3.25378
3.25923
3.26454
3.26972
3.27477
3.27971
3.28452
3.28922
3.29382
3.2983
3.30269
3.30699
3.31119
3.3153
3.31933
3.32328
3.32715
3.33094
3.33466
3.3383
3.34187
3.34538
3.34881
3.35217
3.35547
3.3587
3.36186
3.36495
3.36797
3.37093
3.37382
3.37663
3.37938
3.38206
3.38466
3.38719
3.38964
3.39201
3.3943
3.39651
3.39863
3.40067
3.40261
3.40447
3.40623
3.4079
3.40947
3.41094
3.41231
3.41358
3.41474
3.41583
3.41676
0.859482
0.808378
0.760626
0.716973
0.678334
0.645749
0.620512
0.604371
0.599722
0.609658
0.637654
0.686737
0.758295
0.851094
0.961178
1.08279
1.20982
1.33698
1.46042
1.57773
1.68766
1.78972
1.88396
1.97071
2.05044
2.12372
2.19109
2.25311
2.31028
2.36309
2.41194
2.45724
2.49931
2.53846
2.57497
2.60906
2.64097
2.67086
2.69892
2.72529
2.75011
2.7735
2.79558
2.81643
2.83617
2.85486
2.87258
2.88941
2.90541
2.92064
2.93515
2.949
2.96223
2.97487
2.98698
2.99859
3.00973
3.02043
3.03072
3.04063
3.05017
3.05938
3.06827
3.07686
3.08517
3.09321
3.101
3.10856
3.11589
3.12301
3.12993
3.13665
3.14319
3.14956
3.15576
3.1618
3.16768
3.17341
3.17899
3.18444
3.18974
3.19492
3.19998
3.20492
3.20975
3.21446
3.21907
3.22357
3.22797
3.23228
3.23648
3.2406
3.24462
3.24854
3.25238
3.25612
3.25978
3.26334
3.26681
3.2702
3.27349
3.27669
3.2798
3.28281
3.28573
3.28855
3.29127
3.29389
3.2964
3.29881
3.30111
3.3033
3.30538
3.30735
3.30919
3.31092
3.31253
3.31402
3.31538
3.31662
3.31776
3.31875
0.860565
0.811411
0.765711
0.723439
0.684828
0.650242
0.620147
0.595142
0.57603
0.563904
0.56022
0.566795
0.585676
0.618805
0.66751
0.731993
0.811019
0.902008
1.00149
1.10577
1.21146
1.31586
1.41705
1.51382
1.60548
1.69175
1.7726
1.84818
1.91874
1.98455
2.04596
2.10328
2.15682
2.20688
2.25374
2.29766
2.33886
2.37757
2.41397
2.44825
2.48057
2.51107
2.53988
2.56714
2.59294
2.61741
2.64062
2.66267
2.68363
2.70359
2.7226
2.74074
2.75806
2.77461
2.79045
2.80561
2.82015
2.8341
2.84751
2.86039
2.87279
2.88473
2.89624
2.90734
2.91806
2.92842
2.93844
2.94813
2.95752
2.96662
2.97544
2.984
2.99231
3.00038
3.00822
3.01585
3.02326
3.03047
3.03749
3.04431
3.05095
3.05742
3.06371
3.06985
3.07582
3.08165
3.08734
3.09288
3.09828
3.10356
3.1087
3.11371
3.1186
3.12337
3.12802
3.13254
3.13695
3.14124
3.14541
3.14946
3.1534
3.15722
3.16091
3.16449
3.16794
3.17127
3.17448
3.17756
3.1805
3.18332
3.186
3.18855
3.19095
3.19322
3.19534
3.19731
3.19914
3.20083
3.20236
3.20374
3.205
3.2061
0.861099
0.813133
0.76901
0.728261
0.690673
0.656203
0.624916
0.596953
0.57254
0.551996
0.535764
0.524447
0.518835
0.519919
0.528854
0.546863
0.575059
0.614217
0.66454
0.725513
0.795886
0.873821
0.957146
1.04364
1.1313
1.21843
1.30377
1.38643
1.46584
1.54168
1.61381
1.68221
1.74694
1.80812
1.86591
1.92048
1.97201
2.02068
2.06668
2.11018
2.15132
2.19028
2.22718
2.26217
2.29537
2.32689
2.35685
2.38535
2.41247
2.43832
2.46296
2.48648
2.50894
2.53041
2.55096
2.57063
2.58949
2.60758
2.62494
2.64162
2.65766
2.6731
2.68797
2.7023
2.71611
2.72945
2.74233
2.75478
2.76682
2.77847
2.78975
2.80068
2.81128
2.82155
2.83152
2.8412
2.8506
2.85973
2.86861
2.87723
2.88561
2.89375
2.90167
2.90937
2.91686
2.92415
2.93125
2.93816
2.94488
2.95143
2.95781
2.96402
2.97006
2.97594
2.98166
2.98723
2.99264
2.99789
3.00299
3.00794
3.01274
3.01739
3.02188
3.02622
3.0304
3.03443
3.03829
3.042
3.04555
3.04893
3.05214
3.05518
3.05806
3.06075
3.06328
3.06562
3.06778
3.06977
3.07157
3.07319
3.07467
3.07597
0.861317
0.813942
0.770775
0.731184
0.694718
0.661081
0.630095
0.601662
0.575754
0.552397
0.531673
0.513721
0.498751
0.487049
0.478999
0.475087
0.475905
0.482135
0.494503
0.513717
0.540366
0.574817
0.617121
0.666953
0.723612
0.786071
0.853087
0.92332
0.99546
1.06832
1.14091
1.21244
1.2823
1.3501
1.41557
1.47853
1.53893
1.59674
1.65199
1.70473
1.75504
1.803
1.84873
1.89231
1.93386
1.97348
2.01128
2.04734
2.08176
2.11464
2.14606
2.17609
2.20483
2.23233
2.25867
2.28392
2.30814
2.33138
2.3537
2.37515
2.39578
2.41562
2.43473
2.45315
2.4709
2.48802
2.50455
2.52051
2.53594
2.55086
2.56529
2.57927
2.5928
2.60591
2.61862
2.63095
2.6429
2.65451
2.66578
2.67673
2.68736
2.69768
2.70771
2.71745
2.72692
2.73612
2.74506
2.75376
2.76221
2.77043
2.77843
2.7862
2.79376
2.80111
2.80825
2.81518
2.82191
2.82845
2.83478
2.84092
2.84687
2.85261
2.85817
2.86352
2.86868
2.87365
2.87841
2.88297
2.88732
2.89147
2.89542
2.89915
2.90267
2.90597
2.90906
2.91193
2.91458
2.91701
2.91922
2.92121
2.92302
2.92464
0.861389
0.814244
0.77153
0.732597
0.696917
0.664079
0.633769
0.605753
0.579862
0.555979
0.53403
0.513979
0.495828
0.479611
0.4654
0.453309
0.443493
0.436161
0.431574
0.430052
0.431968
0.437737
0.4478
0.462586
0.482477
0.50776
0.53858
0.574909
0.61652
0.662993
0.713737
0.768036
0.825099
0.884118
0.94432
1.005
1.06556
1.1255
1.18443
1.24205
1.29816
1.35262
1.40533
1.45625
1.50535
1.55264
1.59815
1.64191
1.68396
1.72435
1.76316
1.80042
1.83622
1.87061
1.90365
1.93541
1.96594
1.99531
2.02356
2.05075
2.07694
2.10216
2.12647
2.1499
2.17251
2.19434
2.21541
2.23576
2.25544
2.27446
2.29287
2.31068
2.32792
2.34463
2.36082
2.37651
2.39173
2.4065
2.42083
2.43474
2.44824
2.46136
2.4741
2.48648
2.4985
2.51017
2.52151
2.53252
2.54322
2.55361
2.56372
2.57353
2.58306
2.59232
2.60131
2.61003
2.6185
2.6267
2.63466
2.64236
2.64981
2.65701
2.66396
2.67066
2.67711
2.68331
2.68926
2.69496
2.7004
2.70558
2.7105
2.71517
2.71957
2.7237
2.72757
2.73117
2.73451
2.73757
2.74037
2.7429
2.7452
2.74729
0.861406
0.814329
0.771776
0.733121
0.697834
0.665476
0.635686
0.608168
0.582682
0.559037
0.53708
0.516692
0.497782
0.480288
0.464168
0.449403
0.435996
0.423969
0.413369
0.404262
0.396745
0.390937
0.38699
0.385084
0.385432
0.388271
0.393858
0.402462
0.414347
0.429752
0.448878
0.47186
0.498754
0.529518
0.564012
0.601992
0.643124
0.687001
0.733164
0.781125
0.830399
0.880515
0.931044
0.981603
1.03187
1.08156
1.13048
1.17845
1.22535
1.27109
1.31562
1.35889
1.40089
1.44161
1.48106
1.51926
1.55621
1.59196
1.62652
1.65993
1.69223
1.72345
1.75364
1.78283
1.81105
1.83835
1.86477
1.89033
1.91507
1.93903
1.96223
1.9847
2.00649
2.0276
2.04807
2.06792
2.08718
2.10587
2.12401
2.14162
2.15873
2.17534
2.19148
2.20717
2.22241
2.23722
2.25161
2.26559
2.27915
2.29233
2.30513
2.31756
2.32963
2.34135
2.35272
2.36375
2.37445
2.38481
2.39486
2.40458
2.41398
2.42306
2.43182
2.44027
2.44841
2.45622
2.46372
2.4709
2.47776
2.4843
2.49052
2.49642
2.50199
2.50723
2.51215
2.51674
2.52101
2.52495
2.52856
2.53185
2.53487
2.53763
0.861407
0.814342
0.77183
0.73326
0.698113
0.665954
0.636417
0.609191
0.584014
0.560665
0.538959
0.518737
0.499869
0.482247
0.46578
0.450397
0.43604
0.422666
0.410246
0.398762
0.388209
0.378592
0.36993
0.362255
0.35561
0.350053
0.345657
0.342512
0.340723
0.34041
0.34171
0.344774
0.349762
0.356838
0.366166
0.377899
0.392176
0.409106
0.428762
0.451175
0.476326
0.504144
0.534503
0.567228
0.602099
0.63886
0.677231
0.716916
0.757618
0.799044
0.840919
0.882991
0.925035
0.966854
1.00828
1.04919
1.08946
1.129
1.16777
1.20571
1.24278
1.27898
1.31428
1.34869
1.38221
1.41483
1.44658
1.47746
1.50749
1.53669
1.56507
1.59266
1.61947
1.64552
1.67084
1.69546
1.71938
1.74264
1.76525
1.78723
1.80861
1.8294
1.84962
1.86929
1.88842
1.90703
1.92512
1.94273
1.95984
1.97647
1.99263
2.00832
2.02355
2.03834
2.05269
2.06661
2.08011
2.0932
2.10587
2.11814
2.13
2.14146
2.15252
2.16318
2.17345
2.18332
2.19279
2.20187
2.21055
2.21883
2.22671
2.2342
2.24128
2.24797
2.25426
2.26016
2.26566
2.27076
2.27548
2.27982
2.28382
2.28752
0.861405
0.814337
0.771831
0.733277
0.698164
0.666062
0.636607
0.60949
0.584448
0.561253
0.53971
0.519653
0.500935
0.483431
0.467033
0.451647
0.437194
0.423603
0.410816
0.398785
0.387468
0.376832
0.366852
0.357508
0.348789
0.340687
0.333205
0.326348
0.32013
0.314572
0.309702
0.305554
0.302171
0.299605
0.297916
0.297172
0.297451
0.298839
0.301427
0.305315
0.310603
0.317394
0.325788
0.335879
0.347751
0.361473
0.377098
0.394657
0.414154
0.435569
0.458852
0.483929
0.510695
0.539024
0.568768
0.599766
0.631841
0.664816
0.698507
0.732737
0.767336
0.802144
0.837015
0.871817
0.906437
0.940774
0.974744
1.00828
1.04132
1.07384
1.10578
1.13713
1.16787
1.19799
1.22748
1.25635
1.28457
1.31217
1.33914
1.36549
1.39122
1.41634
1.44086
1.46478
1.48811
1.51086
1.53304
1.55466
1.57572
1.59624
1.61622
1.63566
1.65458
1.67295
1.6908
1.70813
1.72494
1.74125
1.75706
1.77237
1.78719
1.80151
1.81534
1.82868
1.84154
1.8539
1.86579
1.87718
1.8881
1.89853
1.90848
1.91794
1.92694
1.93545
1.94349
1.95107
1.95818
1.96483
1.97102
1.97677
1.98212
1.98713
0.861402
0.814329
0.77182
0.733266
0.698157
0.666065
0.636627
0.609537
0.584532
0.561385
0.539902
0.519913
0.50127
0.483846
0.467525
0.45221
0.437813
0.424257
0.411474
0.399403
0.387993
0.377196
0.366972
0.357284
0.348103
0.339402
0.331157
0.323351
0.315968
0.308997
0.302429
0.296259
0.290486
0.285112
0.280141
0.275582
0.271446
0.26775
0.264513
0.261758
0.259515
0.257814
0.256693
0.256194
0.256363
0.257251
0.258913
0.261407
0.264794
0.269138
0.274501
0.280947
0.288534
0.297321
0.307355
0.318681
0.331331
0.345327
0.360678
0.377382
0.395419
0.414757
0.43535
0.457138
0.480047
0.503992
0.528882
0.554614
0.581083
0.608179
0.635793
0.663816
0.692141
0.720668
0.749303
0.777956
0.806547
0.835004
0.863263
0.891268
0.918971
0.946329
0.973309
0.999882
1.02602
1.05172
1.07694
1.10169
1.12596
1.14973
1.17299
1.19576
1.21801
1.23975
1.26097
1.28165
1.30179
1.32138
1.34041
1.3589
1.37683
1.39421
1.41104
1.42731
1.44302
1.45818
1.47279
1.48684
1.50034
1.51329
1.5257
1.53757
1.5489
1.5597
1.56998
1.57973
1.58897
1.59771
1.60596
1.61371
1.62103
1.62795
0.8614
0.814321
0.77181
0.733253
0.698143
0.66605
0.636614
0.609527
0.584528
0.561391
0.53992
0.519948
0.501326
0.483926
0.467634
0.45235
0.437986
0.424462
0.411709
0.399665
0.388273
0.377484
0.367254
0.35754
0.348309
0.339526
0.331164
0.323195
0.315596
0.308347
0.301429
0.294824
0.288519
0.282502
0.276761
0.271287
0.266073
0.261113
0.256403
0.251941
0.247726
0.243758
0.24004
0.236576
0.233372
0.230435
0.227776
0.225406
0.223338
0.221588
0.220175
0.219119
0.218442
0.218171
0.218333
0.218958
0.22008
0.221731
0.223949
0.226772
0.230237
0.234383
0.239249
0.244873
0.25129
0.258534
0.266635
0.275619
0.285508
0.296318
0.308057
0.32073
0.334332
0.348851
0.364268
0.380556
0.397682
0.415603
0.434273
0.453638
0.473639
0.494214
0.515298
0.536821
0.558715
0.58091
0.603337
0.625927
0.648615
0.671338
0.694036
0.716653
0.739138
0.761443
0.783524
0.805347
0.826879
0.848083
0.868924
0.88937
0.909403
0.929004
0.948158
0.966855
0.985083
1.00284
1.02011
1.0369
1.05319
1.069
1.08432
1.09915
1.11349
1.12734
1.14071
1.15359
1.16599
1.17792
1.18937
1.20036
1.2109
1.22102
0.861399
0.814317
0.771804
0.733245
0.698133
0.666039
0.636602
0.609515
0.584516
0.561379
0.53991
0.51994
0.501322
0.483926
0.46764
0.452363
0.438006
0.424492
0.411749
0.399716
0.388335
0.377557
0.367336
0.357631
0.348405
0.339624
0.331258
0.323279
0.315662
0.308383
0.301421
0.294758
0.288376
0.282259
0.276392
0.270762
0.265358
0.260167
0.255181
0.25039
0.245786
0.241363
0.237113
0.233033
0.229117
0.225362
0.221764
0.218322
0.215034
0.2119
0.20892
0.206096
0.203428
0.20092
0.198576
0.196401
0.1944
0.19258
0.190948
0.189514
0.188288
0.18728
0.186504
0.185973
0.185702
0.185708
0.186009
0.186623
0.187572
0.188876
0.190559
0.192645
0.195157
0.198121
0.201562
0.205506
0.209978
0.215002
0.220603
0.226802
0.23362
0.241075
0.249184
0.257959
0.26741
0.277543
0.288359
0.299857
0.312029
0.324864
0.338347
0.352458
0.36717
0.382456