/*--------------------------------*- C++ -*----------------------------------*\
  =========                 |
  \\      /  F ield         | OpenFOAM: The Open Source CFD Toolbox
   \\    /   O peration     | Website:  https://openfoam.org
    \\  /    A nd           | Version:  8
     \\/     M anipulation  |
\*---------------------------------------------------------------------------*/
FoamFile
{
    version     2.0;
    format      ascii;
    class       volScalarField;
    location    "550";
    object      nut;
}
// * * * * * * * * * * * * * * * * * * * * * * * * * * * * * * * * * * * * * //

dimensions      [0 2 -1 0 0 0 0];

internalField   nonuniform List<scalar> 
7320
(
0.000286299
0.000273847
0.000266049
0.000260783
0.000256941
0.000253973
0.00025158
0.000249592
0.000247905
0.000246449
0.000245176
0.000244051
0.000243048
0.000242148
0.000241334
0.000240596
0.000239922
0.000239306
0.000238739
0.000238217
0.000237735
0.000237288
0.000236874
0.000236489
0.000236131
0.000235797
0.000235485
0.000235194
0.000234922
0.000234667
0.000234428
0.000234204
0.000233995
0.000233798
0.000233613
0.00023344
0.000233277
0.000233125
0.000232981
0.000232847
0.000232721
0.000232603
0.000232492
0.000232389
0.000232292
0.000232201
0.000232117
0.000232038
0.000231965
0.000231897
0.000231834
0.000231776
0.000231722
0.000231673
0.000231627
0.000231586
0.000231549
0.000231515
0.000231484
0.000231457
0.000231433
0.000231412
0.000231394
0.000231378
0.000231366
0.000231356
0.000231348
0.000231343
0.00023134
0.000231339
0.00023134
0.000231344
0.000231349
0.000231356
0.000231365
0.000231376
0.000231389
0.000231403
0.000231418
0.000231435
0.000231454
0.000231474
0.000231495
0.000231518
0.000231541
0.000231567
0.000231593
0.00023162
0.000231648
0.000231678
0.000231708
0.00023174
0.000231772
0.000231805
0.000231839
0.000231874
0.00023191
0.000231946
0.000231983
0.000232021
0.000232059
0.000232098
0.000232138
0.000232178
0.000232218
0.000232259
0.000232301
0.000232342
0.000232384
0.000232426
0.000232469
0.000232511
0.000232554
0.000232596
0.000232639
0.000232682
0.000232724
0.000232766
0.000232808
0.00023285
0.00023289
0.000232931
0.000562815
0.000740638
0.000767571
0.000767651
0.000763096
0.000757975
0.000753148
0.000748779
0.000744861
0.00074135
0.000738193
0.000735345
0.000732764
0.000730416
0.000728271
0.000726307
0.000724501
0.000722838
0.000721301
0.000719879
0.00071856
0.000717334
0.000716194
0.000715132
0.000714141
0.000713216
0.000712352
0.000711544
0.000710788
0.00071008
0.000709418
0.000708797
0.000708215
0.00070767
0.000707159
0.00070668
0.000706232
0.000705811
0.000705417
0.000705048
0.000704703
0.000704381
0.000704079
0.000703798
0.000703536
0.000703292
0.000703065
0.000702855
0.00070266
0.000702481
0.000702315
0.000702164
0.000702025
0.000701899
0.000701786
0.000701683
0.000701592
0.000701511
0.00070144
0.000701379
0.000701327
0.000701284
0.00070125
0.000701224
0.000701206
0.000701196
0.000701193
0.000701197
0.000701208
0.000701225
0.000701249
0.000701278
0.000701314
0.000701354
0.000701401
0.000701452
0.000701508
0.000701569
0.000701635
0.000701706
0.00070178
0.000701859
0.000701942
0.000702028
0.000702119
0.000702213
0.00070231
0.00070241
0.000702514
0.000702621
0.00070273
0.000702843
0.000702958
0.000703075
0.000703195
0.000703317
0.000703441
0.000703567
0.000703695
0.000703825
0.000703956
0.000704089
0.000704223
0.000704359
0.000704495
0.000704633
0.000704771
0.000704909
0.000705048
0.000705188
0.000705327
0.000705466
0.000705606
0.000705744
0.000705882
0.00070602
0.000706156
0.000706291
0.000706425
0.000706557
0.000706688
0.000706805
0.00076108
0.00115457
0.00127125
0.00130573
0.00131552
0.00131688
0.00131508
0.00131204
0.00130855
0.00130497
0.00130147
0.00129811
0.00129493
0.00129193
0.00128913
0.0012865
0.00128405
0.00128176
0.00127961
0.00127761
0.00127574
0.00127398
0.00127234
0.0012708
0.00126936
0.00126801
0.00126675
0.00126557
0.00126446
0.00126342
0.00126245
0.00126154
0.00126069
0.0012599
0.00125915
0.00125845
0.0012578
0.00125719
0.00125662
0.00125608
0.00125559
0.00125512
0.00125469
0.00125429
0.00125392
0.00125357
0.00125326
0.00125296
0.0012527
0.00125245
0.00125223
0.00125203
0.00125185
0.00125169
0.00125155
0.00125143
0.00125132
0.00125123
0.00125116
0.00125111
0.00125107
0.00125104
0.00125103
0.00125103
0.00125105
0.00125108
0.00125112
0.00125117
0.00125123
0.0012513
0.00125139
0.00125148
0.00125158
0.0012517
0.00125182
0.00125195
0.00125208
0.00125223
0.00125238
0.00125254
0.00125271
0.00125289
0.00125307
0.00125326
0.00125345
0.00125365
0.00125385
0.00125407
0.00125428
0.0012545
0.00125472
0.00125495
0.00125519
0.00125542
0.00125566
0.0012559
0.00125615
0.0012564
0.00125665
0.0012569
0.00125716
0.00125742
0.00125767
0.00125793
0.0012582
0.00125846
0.00125872
0.00125898
0.00125924
0.0012595
0.00125976
0.00126002
0.00126028
0.00126053
0.00126079
0.00126104
0.00126128
0.00126153
0.00126177
0.00126201
0.00126224
0.00126244
0.00094219
0.00154866
0.00180331
0.00190635
0.0019512
0.00197187
0.00198147
0.00198555
0.00198668
0.00198617
0.00198472
0.00198276
0.00198051
0.00197813
0.00197571
0.00197331
0.00197095
0.00196867
0.00196648
0.00196438
0.00196238
0.00196047
0.00195867
0.00195696
0.00195535
0.00195383
0.00195239
0.00195105
0.00194978
0.0019486
0.00194749
0.00194645
0.00194547
0.00194456
0.00194371
0.00194292
0.00194217
0.00194148
0.00194083
0.00194023
0.00193967
0.00193916
0.00193868
0.00193823
0.00193783
0.00193745
0.00193712
0.00193681
0.00193653
0.00193628
0.00193607
0.00193588
0.00193571
0.00193557
0.00193546
0.00193537
0.00193531
0.00193527
0.00193525
0.00193525
0.00193527
0.00193531
0.00193538
0.00193546
0.00193556
0.00193567
0.0019358
0.00193595
0.00193612
0.0019363
0.00193649
0.0019367
0.00193692
0.00193715
0.0019374
0.00193765
0.00193792
0.0019382
0.00193849
0.00193879
0.0019391
0.00193942
0.00193975
0.00194009
0.00194043
0.00194079
0.00194115
0.00194151
0.00194189
0.00194227
0.00194265
0.00194304
0.00194344
0.00194384
0.00194424
0.00194465
0.00194506
0.00194547
0.00194589
0.0019463
0.00194672
0.00194715
0.00194757
0.00194799
0.00194841
0.00194883
0.00194925
0.00194967
0.00195009
0.0019505
0.00195092
0.00195132
0.00195173
0.00195213
0.00195252
0.00195291
0.00195329
0.00195367
0.00195404
0.0019544
0.00195476
0.00195504
0.00110978
0.00189233
0.00232606
0.0025368
0.00264438
0.00270313
0.00273713
0.00275765
0.00277031
0.00277817
0.00278296
0.00278574
0.00278718
0.00278769
0.00278758
0.00278703
0.00278618
0.00278514
0.00278397
0.00278273
0.00278144
0.00278015
0.00277886
0.0027776
0.00277637
0.00277519
0.00277406
0.00277298
0.00277196
0.002771
0.0027701
0.00276925
0.00276845
0.00276771
0.00276702
0.00276638
0.00276578
0.00276522
0.00276471
0.00276423
0.00276379
0.00276339
0.00276303
0.0027627
0.0027624
0.00276214
0.00276191
0.00276171
0.00276154
0.00276141
0.0027613
0.00276123
0.00276118
0.00276117
0.00276118
0.00276121
0.00276128
0.00276137
0.00276149
0.00276163
0.0027618
0.00276199
0.0027622
0.00276243
0.00276269
0.00276297
0.00276327
0.00276358
0.00276392
0.00276427
0.00276465
0.00276503
0.00276543
0.00276585
0.00276628
0.00276673
0.00276719
0.00276766
0.00276815
0.00276865
0.00276916
0.00276968
0.00277021
0.00277075
0.0027713
0.00277186
0.00277243
0.002773
0.00277359
0.00277417
0.00277477
0.00277537
0.00277597
0.00277658
0.00277719
0.00277781
0.00277843
0.00277905
0.00277967
0.00278029
0.00278091
0.00278154
0.00278216
0.00278278
0.0027834
0.00278401
0.00278462
0.00278523
0.00278583
0.00278642
0.00278701
0.00278759
0.00278817
0.00278873
0.00278929
0.00278983
0.00279037
0.00279089
0.0027914
0.0027919
0.0027924
0.00279277
0.00129926
0.00216764
0.00280717
0.00316585
0.00336954
0.00349116
0.00356775
0.00361825
0.00365279
0.00367709
0.00369457
0.00370734
0.00371679
0.00372385
0.00372913
0.0037331
0.00373607
0.00373829
0.00373993
0.00374112
0.00374196
0.00374254
0.00374292
0.00374314
0.00374325
0.00374328
0.00374326
0.00374319
0.0037431
0.003743
0.0037429
0.0037428
0.0037427
0.00374262
0.00374254
0.00374247
0.00374241
0.00374237
0.00374233
0.00374231
0.0037423
0.00374231
0.00374233
0.00374238
0.00374243
0.00374251
0.00374261
0.00374273
0.00374288
0.00374304
0.00374323
0.00374345
0.00374368
0.00374395
0.00374424
0.00374455
0.00374488
0.00374525
0.00374563
0.00374604
0.00374648
0.00374693
0.00374741
0.00374792
0.00374844
0.00374899
0.00374955
0.00375014
0.00375075
0.00375137
0.00375202
0.00375268
0.00375335
0.00375404
0.00375474
0.00375546
0.00375619
0.00375694
0.00375769
0.00375846
0.00375925
0.00376004
0.00376084
0.00376166
0.00376248
0.00376331
0.00376415
0.00376499
0.00376584
0.00376669
0.00376755
0.00376842
0.00376928
0.00377015
0.00377103
0.0037719
0.00377277
0.00377364
0.00377452
0.00377538
0.00377625
0.00377711
0.00377797
0.00377882
0.00377967
0.00378051
0.00378134
0.00378216
0.00378298
0.00378378
0.00378457
0.00378535
0.00378611
0.00378686
0.00378759
0.00378831
0.00378901
0.00378969
0.00379035
0.00379099
0.00379164
0.00379208
0.00158937
0.00236976
0.00321596
0.00375923
0.00409609
0.00431112
0.00445413
0.00455312
0.00462407
0.00467641
0.00471597
0.00474649
0.00477044
0.00478951
0.00480489
0.00481744
0.00482777
0.00483636
0.00484356
0.00484964
0.00485482
0.00485927
0.00486312
0.00486647
0.00486942
0.00487204
0.00487439
0.00487651
0.00487844
0.00488022
0.00488186
0.00488339
0.00488481
0.00488615
0.00488741
0.00488859
0.00488971
0.00489077
0.00489178
0.00489274
0.00489365
0.00489454
0.00489539
0.00489622
0.00489703
0.00489782
0.00489861
0.00489938
0.00490015
0.00490093
0.0049017
0.00490248
0.00490327
0.00490406
0.00490487
0.00490569
0.00490652
0.00490736
0.00490822
0.0049091
0.00490999
0.0049109
0.00491183
0.00491277
0.00491373
0.0049147
0.0049157
0.0049167
0.00491773
0.00491876
0.00491982
0.00492088
0.00492195
0.00492303
0.00492413
0.00492523
0.00492635
0.00492748
0.00492861
0.00492976
0.00493091
0.00493207
0.00493324
0.00493442
0.0049356
0.00493678
0.00493797
0.00493916
0.00494036
0.00494156
0.00494275
0.00494395
0.00494515
0.00494634
0.00494753
0.00494872
0.00494991
0.00495109
0.00495226
0.00495343
0.00495458
0.00495573
0.00495687
0.004958
0.00495911
0.00496021
0.0049613
0.00496237
0.00496342
0.00496446
0.00496548
0.00496647
0.00496744
0.0049684
0.00496932
0.00497022
0.0049711
0.00497194
0.00497276
0.00497355
0.00497434
0.00497484
0.00212976
0.00251869
0.00352583
0.00427893
0.00478634
0.00512981
0.00536872
0.00554022
0.00566706
0.00576335
0.00583815
0.00589739
0.00594512
0.00598413
0.00601645
0.00604352
0.00606643
0.00608601
0.00610288
0.00611753
0.00613036
0.00614166
0.00615169
0.00616066
0.00616873
0.00617603
0.00618268
0.00618878
0.00619439
0.00619959
0.00620442
0.00620892
0.00621312
0.00621707
0.00622077
0.00622424
0.00622752
0.0062306
0.00623352
0.00623627
0.00623889
0.00624138
0.00624375
0.00624601
0.00624819
0.00625028
0.00625229
0.00625425
0.00625615
0.006258
0.00625981
0.00626158
0.00626333
0.00626505
0.00626675
0.00626844
0.00627011
0.00627177
0.00627343
0.00627507
0.00627672
0.00627836
0.00628001
0.00628165
0.0062833
0.00628495
0.0062866
0.00628825
0.00628991
0.00629157
0.00629324
0.0062949
0.00629657
0.00629823
0.00629989
0.00630155
0.00630322
0.00630489
0.00630656
0.00630822
0.00630989
0.00631156
0.00631323
0.0063149
0.00631656
0.00631822
0.00631988
0.00632153
0.00632318
0.00632482
0.00632646
0.00632809
0.0063297
0.00633131
0.00633291
0.0063345
0.00633608
0.00633764
0.00633919
0.00634072
0.00634223
0.00634373
0.00634521
0.00634667
0.0063481
0.00634951
0.0063509
0.00635226
0.0063536
0.0063549
0.00635618
0.00635742
0.00635863
0.0063598
0.00636094
0.00636204
0.0063631
0.00636412
0.0063651
0.00636603
0.00636696
0.00636751
0.0031541
0.00268382
0.00372393
0.00468584
0.00539542
0.00590413
0.0062731
0.00654666
0.00675434
0.00691556
0.00704326
0.00714624
0.00723059
0.00730064
0.00735953
0.00740958
0.00745254
0.00748974
0.00752221
0.00755076
0.00757605
0.00759858
0.00761879
0.00763701
0.00765354
0.0076686
0.00768241
0.00769513
0.00770688
0.00771779
0.00772794
0.00773742
0.00774629
0.0077546
0.0077624
0.00776973
0.00777662
0.00778312
0.00778925
0.00779504
0.00780051
0.0078057
0.00781063
0.00781532
0.00781979
0.00782407
0.00782816
0.0078321
0.00783588
0.00783954
0.00784308
0.00784651
0.00784985
0.0078531
0.00785627
0.00785938
0.00786242
0.0078654
0.00786834
0.00787123
0.00787408
0.00787689
0.00787967
0.00788242
0.00788514
0.00788783
0.0078905
0.00789315
0.00789578
0.00789839
0.00790098
0.00790354
0.00790608
0.0079086
0.0079111
0.00791358
0.00791605
0.00791849
0.00792093
0.00792334
0.00792574
0.00792813
0.0079305
0.00793285
0.00793518
0.0079375
0.0079398
0.00794208
0.00794434
0.00794659
0.00794881
0.00795102
0.0079532
0.00795535
0.00795749
0.0079596
0.00796168
0.00796374
0.00796577
0.00796777
0.00796974
0.00797168
0.00797359
0.00797546
0.00797729
0.00797909
0.00798085
0.00798257
0.00798424
0.00798587
0.00798745
0.00798899
0.00799047
0.0079919
0.00799328
0.00799461
0.00799587
0.00799708
0.00799823
0.00799931
0.00800039
0.00800095
0.00493181
0.00302612
0.0038337
0.00494834
0.00587406
0.00658116
0.00711649
0.00752621
0.00784508
0.00809766
0.00830115
0.00846767
0.00860586
0.00872198
0.00882067
0.0089054
0.00897879
0.0090429
0.00909931
0.0091493
0.00919388
0.00923386
0.00926993
0.00930263
0.00933243
0.00935971
0.00938479
0.00940795
0.0094294
0.00944934
0.00946793
0.00948531
0.00950157
0.00951682
0.00953115
0.00954462
0.0095573
0.00956924
0.00958051
0.00959115
0.00960121
0.00961074
0.00961978
0.00962837
0.00963653
0.00964432
0.00965176
0.00965887
0.0096657
0.00967225
0.00967857
0.00968465
0.00969053
0.00969622
0.00970174
0.0097071
0.00971231
0.00971739
0.00972235
0.00972719
0.00973192
0.00973656
0.0097411
0.00974556
0.00974994
0.00975424
0.00975848
0.00976265
0.00976675
0.00977079
0.00977477
0.0097787
0.00978255
0.00978635
0.0097901
0.00979379
0.00979743
0.00980103
0.00980458
0.00980808
0.00981154
0.00981496
0.00981834
0.00982167
0.00982496
0.00982821
0.00983142
0.00983459
0.00983772
0.0098408
0.00984385
0.00984684
0.0098498
0.00985271
0.00985558
0.0098584
0.00986118
0.00986391
0.00986659
0.00986922
0.0098718
0.00987433
0.0098768
0.00987922
0.00988158
0.00988388
0.00988612
0.0098883
0.00989041
0.00989245
0.00989443
0.00989633
0.00989815
0.0098999
0.00990158
0.00990317
0.00990468
0.0099061
0.00990745
0.00990868
0.00990991
0.00991047
0.00765447
0.00384129
0.0039599
0.0050637
0.00617752
0.00710148
0.0078361
0.00841791
0.00888249
0.00925803
0.00956562
0.00982082
0.0100351
0.0102171
0.0103732
0.0105082
0.0106262
0.0107298
0.0108217
0.0109035
0.0109769
0.011043
0.0111029
0.0111574
0.0112072
0.011253
0.0112951
0.0113342
0.0113704
0.0114041
0.0114355
0.011465
0.0114926
0.0115185
0.0115428
0.0115657
0.0115873
0.0116076
0.0116268
0.011645
0.0116621
0.0116784
0.0116938
0.0117084
0.0117224
0.0117356
0.0117483
0.0117603
0.0117719
0.011783
0.0117936
0.0118038
0.0118137
0.0118231
0.0118323
0.0118412
0.0118497
0.0118581
0.0118661
0.011874
0.0118816
0.0118891
0.0118963
0.0119034
0.0119103
0.0119171
0.0119237
0.0119302
0.0119365
0.0119427
0.0119488
0.0119548
0.0119606
0.0119664
0.011972
0.0119775
0.0119829
0.0119882
0.0119934
0.0119985
0.0120035
0.0120084
0.0120133
0.0120181
0.0120227
0.0120274
0.0120319
0.0120363
0.0120407
0.012045
0.0120492
0.0120534
0.0120574
0.0120614
0.0120653
0.0120692
0.0120729
0.0120766
0.0120802
0.0120837
0.0120871
0.0120905
0.0120938
0.0120969
0.0121
0.012103
0.0121059
0.0121087
0.0121114
0.012114
0.0121165
0.0121189
0.0121212
0.0121234
0.0121254
0.0121274
0.0121292
0.0121309
0.0121325
0.0121339
0.0121353
0.0121358
0.0113266
0.00551803
0.00435849
0.00510578
0.00628855
0.00740978
0.00836168
0.0091471
0.00979278
0.0103264
0.0107711
0.0111453
0.0114634
0.0117362
0.0119723
0.0121782
0.0123592
0.0125193
0.0126619
0.0127896
0.0129046
0.0130087
0.0131033
0.0131897
0.0132689
0.0133418
0.0134092
0.0134716
0.0135296
0.0135837
0.0136343
0.0136816
0.013726
0.0137678
0.0138071
0.0138441
0.013879
0.0139119
0.013943
0.0139725
0.0140004
0.0140268
0.0140518
0.0140756
0.0140983
0.0141198
0.0141404
0.01416
0.0141787
0.0141967
0.0142139
0.0142304
0.0142463
0.0142616
0.0142763
0.0142905
0.0143042
0.0143174
0.0143303
0.0143427
0.0143548
0.0143665
0.0143778
0.0143889
0.0143996
0.0144101
0.0144203
0.0144303
0.01444
0.0144495
0.0144587
0.0144678
0.0144766
0.0144852
0.0144936
0.0145018
0.0145098
0.0145176
0.0145253
0.0145328
0.0145402
0.0145474
0.0145544
0.0145613
0.0145681
0.0145747
0.0145811
0.0145875
0.0145937
0.0145998
0.0146057
0.0146115
0.0146172
0.0146228
0.0146282
0.0146335
0.0146387
0.0146438
0.0146487
0.0146535
0.0146581
0.0146627
0.0146671
0.0146714
0.0146755
0.0146795
0.0146833
0.0146871
0.0146906
0.014694
0.0146973
0.0147004
0.0147033
0.0147061
0.0147087
0.0147111
0.0147134
0.0147154
0.0147174
0.0147191
0.0147207
0.0147212
0.0157248
0.0083437
0.00547916
0.00531275
0.00627167
0.00748282
0.00862975
0.00963244
0.0104877
0.0112134
0.0118305
0.0123582
0.0128125
0.0132064
0.0135503
0.0138528
0.0141205
0.0143588
0.0145721
0.0147641
0.0149378
0.0150955
0.0152395
0.0153713
0.0154925
0.0156044
0.0157079
0.015804
0.0158936
0.0159772
0.0160554
0.0161287
0.0161976
0.0162624
0.0163235
0.0163811
0.0164355
0.0164869
0.0165356
0.0165817
0.0166253
0.0166667
0.0167061
0.0167435
0.016779
0.0168129
0.0168452
0.0168761
0.0169056
0.0169338
0.0169608
0.0169868
0.0170117
0.0170356
0.0170586
0.0170808
0.0171022
0.0171228
0.0171428
0.0171621
0.0171808
0.0171989
0.0172164
0.0172334
0.0172499
0.0172659
0.0172815
0.0172967
0.0173114
0.0173258
0.0173398
0.0173534
0.0173667
0.0173796
0.0173921
0.0174044
0.0174163
0.017428
0.0174393
0.0174504
0.0174612
0.0174717
0.0174821
0.0174921
0.0175019
0.0175115
0.0175209
0.01753
0.017539
0.0175477
0.0175562
0.0175645
0.0175726
0.0175805
0.0175882
0.0175957
0.017603
0.01761
0.017617
0.0176237
0.0176302
0.0176365
0.0176426
0.0176484
0.0176541
0.0176596
0.0176649
0.0176699
0.0176747
0.0176793
0.0176837
0.0176879
0.0176918
0.0176954
0.0176988
0.017702
0.0177049
0.0177076
0.01771
0.0177121
0.017714
0.0177146
0.0204365
0.0122987
0.00781878
0.0061763
0.00638132
0.00739745
0.00862145
0.00980678
0.0108762
0.0118169
0.0126375
0.0133529
0.0139782
0.0145273
0.0150118
0.0154416
0.0158248
0.0161683
0.0164775
0.0167573
0.0170115
0.0172433
0.0174556
0.0176507
0.0178306
0.017997
0.0181514
0.0182951
0.0184291
0.0185544
0.0186719
0.0187822
0.018886
0.0189837
0.0190759
0.0191631
0.0192455
0.0193234
0.0193973
0.0194674
0.0195339
0.0195971
0.0196571
0.0197143
0.0197687
0.0198206
0.0198701
0.0199174
0.0199626
0.0200059
0.0200473
0.0200871
0.0201253
0.020162
0.0201973
0.0202312
0.020264
0.0202955
0.020326
0.0203554
0.0203839
0.0204114
0.020438
0.0204639
0.0204889
0.0205131
0.0205367
0.0205596
0.0205818
0.0206034
0.0206244
0.0206448
0.0206646
0.0206839
0.0207027
0.0207209
0.0207387
0.0207559
0.0207727
0.0207891
0.0208051
0.0208206
0.0208358
0.0208505
0.0208649
0.0208789
0.0208926
0.0209059
0.0209189
0.0209316
0.0209439
0.0209559
0.0209676
0.0209789
0.02099
0.0210007
0.0210112
0.0210213
0.0210312
0.0210407
0.02105
0.0210589
0.0210676
0.0210759
0.0210839
0.0210916
0.021099
0.0211061
0.0211128
0.0211192
0.0211253
0.021131
0.0211364
0.0211414
0.0211461
0.0211504
0.0211543
0.0211578
0.021161
0.0211638
0.0211663
0.0211671
0.024966
0.017029
0.011559
0.00833441
0.00718515
0.00746836
0.008455
0.00967288
0.0108973
0.0120408
0.0130773
0.0140053
0.014833
0.0155712
0.0162309
0.0168222
0.0173542
0.0178345
0.01827
0.0186661
0.0190279
0.0193594
0.0196641
0.0199452
0.0202052
0.0204464
0.0206707
0.02088
0.0210756
0.0212588
0.0214309
0.0215927
0.0217452
0.0218891
0.0220251
0.0221537
0.0222755
0.022391
0.0225006
0.0226047
0.0227037
0.0227978
0.0228874
0.0229728
0.0230542
0.0231319
0.0232061
0.023277
0.0233449
0.0234099
0.0234723
0.0235321
0.0235895
0.0236447
0.0236977
0.0237488
0.023798
0.0238455
0.0238913
0.0239355
0.0239782
0.0240195
0.0240595
0.0240981
0.0241356
0.0241719
0.0242071
0.0242413
0.0242745
0.0243066
0.0243379
0.0243683
0.0243978
0.0244264
0.0244543
0.0244814
0.0245077
0.0245333
0.0245581
0.0245823
0.0246059
0.0246288
0.0246511
0.0246728
0.024694
0.0247145
0.0247346
0.0247541
0.0247731
0.0247916
0.0248095
0.024827
0.0248441
0.0248606
0.0248767
0.0248923
0.0249075
0.0249222
0.0249364
0.0249502
0.0249636
0.0249765
0.024989
0.0250009
0.0250125
0.0250236
0.0250342
0.0250443
0.0250539
0.0250631
0.0250718
0.0250799
0.0250876
0.0250947
0.0251013
0.0251074
0.0251129
0.0251179
0.0251224
0.0251263
0.0251297
0.0251311
0.0288721
0.0219727
0.0163572
0.0121026
0.00944208
0.00839318
0.00856599
0.00943681
0.0106072
0.0118514
0.0130626
0.0141965
0.0152393
0.0161903
0.0170549
0.0178406
0.0185555
0.0192071
0.0198026
0.0203481
0.0208492
0.0213109
0.0217373
0.0221322
0.0224989
0.0228402
0.0231586
0.0234564
0.0237355
0.0239975
0.024244
0.0244763
0.0246956
0.0249029
0.0250991
0.025285
0.0254614
0.025629
0.0257882
0.0259397
0.026084
0.0262214
0.0263524
0.0264775
0.0265969
0.026711
0.0268201
0.0269246
0.0270246
0.0271205
0.0272125
0.0273009
0.0273857
0.0274673
0.0275458
0.0276214
0.0276943
0.0277646
0.0278324
0.0278978
0.0279611
0.0280222
0.0280814
0.0281386
0.0281941
0.0282478
0.0282999
0.0283504
0.0283993
0.0284469
0.0284931
0.0285379
0.0285815
0.0286237
0.0286648
0.0287047
0.0287435
0.0287812
0.0288179
0.0288535
0.0288882
0.0289219
0.0289547
0.0289866
0.0290177
0.0290479
0.0290773
0.0291059
0.0291337
0.0291608
0.0291872
0.0292128
0.0292377
0.0292619
0.0292854
0.0293082
0.0293304
0.0293519
0.0293727
0.0293929
0.0294124
0.0294312
0.0294493
0.0294668
0.0294836
0.0294998
0.0295152
0.02953
0.0295441
0.0295574
0.02957
0.0295819
0.0295931
0.0296035
0.0296132
0.029622
0.0296302
0.0296375
0.029644
0.0296497
0.0296548
0.0296572
0.0318859
0.0265354
0.0215162
0.0170871
0.0134893
0.0110289
0.00983786
0.0097379
0.0103766
0.011418
0.0126294
0.0138773
0.0150935
0.0162465
0.0173241
0.0183238
0.0192482
0.0201018
0.0208901
0.0216189
0.0222936
0.0229193
0.0235006
0.0240417
0.0245465
0.0250182
0.0254599
0.0258743
0.0262637
0.0266305
0.0269763
0.027303
0.027612
0.0279047
0.0281824
0.028446
0.0286966
0.028935
0.0291621
0.0293784
0.0295848
0.0297818
0.0299699
0.0301498
0.0303218
0.0304864
0.030644
0.0307952
0.0309401
0.0310791
0.0312127
0.0313411
0.0314645
0.0315833
0.0316976
0.0318079
0.0319141
0.0320166
0.0321156
0.0322112
0.0323036
0.032393
0.0324794
0.0325631
0.0326442
0.0327228
0.0327989
0.0328728
0.0329444
0.033014
0.0330815
0.0331471
0.0332108
0.0332727
0.0333328
0.0333912
0.033448
0.0335032
0.0335568
0.033609
0.0336598
0.0337091
0.0337571
0.0338039
0.0338493
0.0338935
0.0339366
0.0339785
0.0340192
0.0340589
0.0340974
0.0341349
0.0341714
0.0342068
0.0342413
0.0342747
0.0343072
0.0343386
0.0343691
0.0343987
0.0344272
0.0344549
0.0344815
0.0345072
0.0345319
0.0345556
0.0345783
0.0346
0.0346207
0.0346404
0.0346591
0.0346767
0.0346932
0.0347087
0.034723
0.0347363
0.0347484
0.0347595
0.0347694
0.0347781
0.0347859
0.0347903
0.0339568
0.0302574
0.0262964
0.0224018
0.0187493
0.0155657
0.0131349
0.01166
0.0111401
0.0113925
0.0121663
0.0132379
0.014448
0.0156984
0.0169334
0.0181236
0.0192548
0.0203216
0.0213231
0.0222613
0.0231394
0.0239613
0.0247308
0.0254521
0.0261289
0.0267647
0.0273628
0.0279263
0.0284579
0.0289601
0.0294352
0.0298852
0.0303121
0.0307174
0.0311027
0.0314694
0.0318187
0.0321518
0.0324696
0.032773
0.0330631
0.0333404
0.0336058
0.03386
0.0341035
0.034337
0.0345609
0.0347759
0.0349824
0.0351808
0.0353717
0.0355553
0.035732
0.0359023
0.0360664
0.0362247
0.0363775
0.036525
0.0366675
0.0368052
0.0369384
0.0370673
0.0371921
0.0373129
0.03743
0.0375436
0.0376536
0.0377605
0.0378641
0.0379648
0.0380625
0.0381575
0.0382498
0.0383395
0.0384266
0.0385114
0.0385938
0.0386739
0.0387518
0.0388276
0.0389014
0.0389731
0.039043
0.0391109
0.0391771
0.0392415
0.0393041
0.0393651
0.0394245
0.0394823
0.0395385
0.0395932
0.0396464
0.0396982
0.0397485
0.0397973
0.0398448
0.0398908
0.0399354
0.0399787
0.0400206
0.0400611
0.0401002
0.0401379
0.0401742
0.0402092
0.0402427
0.0402748
0.0403054
0.0403346
0.0403622
0.0403884
0.0404131
0.0404362
0.0404578
0.0404778
0.0404963
0.0405131
0.0405284
0.0405419
0.0405541
0.0405621
0.0352156
0.0329264
0.0301548
0.0271692
0.0241079
0.0210829
0.0182539
0.0158401
0.0140585
0.0130305
0.012737
0.0130508
0.0138009
0.0148263
0.0160022
0.0172434
0.018496
0.0197278
0.0209204
0.0220639
0.0231539
0.0241891
0.0251702
0.026099
0.0269781
0.0278101
0.0285978
0.0293441
0.0300517
0.0307232
0.031361
0.0319674
0.0325445
0.0330942
0.0336182
0.0341183
0.0345959
0.0350524
0.035489
0.0359069
0.0363072
0.0366908
0.0370587
0.0374117
0.0377505
0.038076
0.0383889
0.0386897
0.0389791
0.0392577
0.039526
0.0397845
0.0400337
0.0402742
0.0405062
0.0407302
0.0409467
0.0411559
0.0413582
0.0415539
0.0417433
0.0419268
0.0421045
0.0422768
0.0424438
0.0426059
0.0427631
0.0429158
0.043064
0.043208
0.0433479
0.043484
0.0436163
0.0437449
0.04387
0.0439917
0.04411
0.0442252
0.0443374
0.0444465
0.0445527
0.0446561
0.0447568
0.0448549
0.0449504
0.0450434
0.045134
0.0452222
0.0453081
0.0453918
0.0454732
0.0455525
0.0456297
0.0457048
0.0457778
0.0458488
0.0459178
0.0459848
0.0460499
0.046113
0.0461741
0.0462333
0.0462905
0.0463457
0.046399
0.0464503
0.0464996
0.0465469
0.0465921
0.0466353
0.0466763
0.0467153
0.0467521
0.0467868
0.0468193
0.0468496
0.0468776
0.0469035
0.046927
0.0469482
0.0469675
0.0469815
0.0358864
0.034593
0.0328633
0.0308401
0.0286213
0.0262674
0.0238358
0.0214144
0.0191386
0.0171788
0.0156958
0.0147878
0.0144645
0.0146594
0.0152639
0.0161609
0.0172464
0.01844
0.0196844
0.0209414
0.0221859
0.0234025
0.0245816
0.025718
0.0268092
0.0278545
0.0288543
0.0298098
0.0307225
0.0315944
0.0324272
0.0332232
0.0339842
0.0347121
0.0354087
0.0360758
0.036715
0.0373278
0.0379157
0.0384799
0.0390218
0.0395424
0.0400428
0.0405241
0.0409873
0.0414331
0.0418625
0.0422762
0.042675
0.0430596
0.0434307
0.0437889
0.0441348
0.0444689
0.0447919
0.0451041
0.0454062
0.0456986
0.0459816
0.0462558
0.0465215
0.046779
0.0470288
0.0472711
0.0475062
0.0477345
0.0479563
0.0481717
0.0483811
0.0485846
0.0487826
0.0489752
0.0491626
0.049345
0.0495225
0.0496953
0.0498635
0.0500274
0.0501869
0.0503424
0.0504938
0.0506414
0.0507852
0.0509253
0.0510618
0.0511949
0.0513246
0.051451
0.0515742
0.0516943
0.0518113
0.0519252
0.0520362
0.0521443
0.0522496
0.052352
0.0524516
0.0525484
0.0526425
0.0527338
0.0528224
0.0529083
0.0529914
0.0530718
0.0531494
0.0532243
0.0532964
0.0533657
0.0534321
0.0534956
0.0535563
0.0536139
0.0536687
0.0537204
0.0537691
0.0538147
0.0538572
0.0538966
0.0539328
0.0539659
0.0539961
0.05402
0.0361963
0.0354884
0.0345011
0.0332718
0.0318469
0.0302605
0.0285351
0.0266917
0.024764
0.0228125
0.0209309
0.0192398
0.0178631
0.0168966
0.0163857
0.0163216
0.0166534
0.0173069
0.0182017
0.0192644
0.020434
0.0216643
0.0229216
0.0241827
0.0254314
0.0266569
0.027852
0.0290125
0.0301357
0.0312207
0.0322671
0.0332754
0.0342464
0.0351811
0.0360807
0.0369466
0.0377801
0.0385826
0.0393554
0.0400999
0.0408172
0.0415086
0.0421753
0.0428183
0.0434388
0.0440376
0.0446157
0.0451742
0.0457137
0.0462351
0.0467393
0.0472269
0.0476987
0.0481553
0.0485974
0.0490256
0.0494405
0.0498426
0.0502326
0.0506108
0.0509778
0.051334
0.0516798
0.0520158
0.0523422
0.0526594
0.0529679
0.0532678
0.0535597
0.0538437
0.0541201
0.0543893
0.0546514
0.0549068
0.0551556
0.0553981
0.0556344
0.0558647
0.0560891
0.0563079
0.0565213
0.0567295
0.0569325
0.0571304
0.0573235
0.0575119
0.0576956
0.0578749
0.0580497
0.0582202
0.0583865
0.0585487
0.0587067
0.0588608
0.0590109
0.0591572
0.0592995
0.0594381
0.0595729
0.0597039
0.0598311
0.0599545
0.0600742
0.0601901
0.0603023
0.0604106
0.060515
0.0606156
0.0607123
0.060805
0.0608937
0.0609784
0.0610589
0.0611354
0.0612077
0.0612757
0.0613396
0.0613991
0.0614544
0.0615052
0.0615521
0.0615913
0.0363185
0.0358964
0.035342
0.0346443
0.0338099
0.0328502
0.0317745
0.0305881
0.0292942
0.0278982
0.0264145
0.0248739
0.0233287
0.0218531
0.0205352
0.0194615
0.0187
0.018288
0.0182293
0.0184992
0.0190539
0.0198402
0.020804
0.0218958
0.0230737
0.0243048
0.0255638
0.0268323
0.0280966
0.0293472
0.030577
0.0317813
0.0329567
0.0341012
0.0352138
0.0362939
0.0373416
0.0383571
0.0393411
0.0402941
0.0412169
0.0421105
0.0429757
0.0438134
0.0446247
0.0454104
0.0461714
0.0469087
0.0476232
0.0483155
0.0489867
0.0496374
0.0502685
0.0508807
0.0514747
0.0520512
0.052611
0.0531545
0.0536824
0.0541954
0.054694
0.0551787
0.05565
0.0561084
0.0565545
0.0569886
0.0574112
0.0578227
0.0582236
0.0586141
0.0589947
0.0593656
0.0597273
0.06008
0.060424
0.0607596
0.0610871
0.0614066
0.0617183
0.0620224
0.0623193
0.0626091
0.062892
0.0631683
0.063438
0.0637014
0.0639586
0.0642096
0.0644548
0.0646941
0.0649277
0.0651557
0.0653782
0.0655953
0.065807
0.0660135
0.0662147
0.0664107
0.0666016
0.0667873
0.066968
0.0671435
0.0673139
0.0674791
0.0676392
0.0677941
0.0679438
0.0680882
0.0682273
0.068361
0.0684893
0.0686121
0.0687294
0.068841
0.0689471
0.0690474
0.069142
0.0692307
0.0693137
0.0693908
0.0694625
0.0695249
0.0363591
0.0360515
0.0357024
0.0352937
0.0348163
0.0342669
0.0336458
0.0329534
0.032189
0.0313505
0.0304344
0.0294384
0.0283636
0.0272185
0.0260225
0.0248094
0.0236274
0.0225355
0.0215963
0.0208663
0.020387
0.0201807
0.0202495
0.0205783
0.0211397
0.021899
0.0228189
0.0238634
0.0249998
0.0262003
0.0274423
0.0287082
0.0299841
0.0312598
0.0325274
0.0337809
0.0350159
0.036229
0.0374178
0.0385808
0.0397169
0.0408255
0.0419064
0.0429596
0.0439854
0.0449841
0.0459562
0.046902
0.0478223
0.0487175
0.0495885
0.0504357
0.05126
0.0520619
0.0528423
0.0536017
0.0543409
0.0550604
0.0557609
0.056443
0.0571073
0.0577544
0.0583848
0.0589992
0.0595979
0.0601816
0.0607508
0.0613059
0.0618474
0.0623757
0.0628912
0.0633944
0.0638857
0.0643653
0.0648338
0.0652913
0.0657382
0.0661748
0.0666014
0.0670182
0.0674255
0.0678234
0.0682122
0.0685924
0.0689639
0.0693271
0.0696821
0.0700291
0.0703682
0.0706996
0.0710235
0.0713399
0.0716489
0.0719508
0.0722455
0.0725332
0.0728139
0.0730876
0.0733545
0.0736144
0.0738675
0.0741138
0.0743532
0.0745857
0.0748113
0.07503
0.0752416
0.0754462
0.0756436
0.0758339
0.0760169
0.0761925
0.0763608
0.0765215
0.0766748
0.0768204
0.0769584
0.0770887
0.0772112
0.077326
0.0774335
0.0775301
0.0363702
0.0360998
0.0358287
0.035546
0.0352425