/*--------------------------------*- C++ -*----------------------------------*\
  =========                 |
  \\      /  F ield         | OpenFOAM: The Open Source CFD Toolbox
   \\    /   O peration     | Website:  https://openfoam.org
    \\  /    A nd           | Version:  8
     \\/     M anipulation  |
\*---------------------------------------------------------------------------*/
FoamFile
{
    version     2.0;
    format      ascii;
    class       volScalarField;
    location    "550";
    object      p;
}
// * * * * * * * * * * * * * * * * * * * * * * * * * * * * * * * * * * * * * //

dimensions      [0 2 -2 0 0 0 0];

internalField   nonuniform List<scalar> 
7320
(
158.553
152.696
150.786
149.001
147.293
145.597
143.933
142.309
140.717
139.151
137.607
136.083
134.578
133.089
131.615
130.155
128.708
127.272
125.848
124.434
123.029
121.634
120.247
118.868
117.498
116.134
114.778
113.428
112.084
110.747
109.415
108.089
106.768
105.453
104.142
102.837
101.536
100.24
98.9483
97.6611
96.3781
95.0994
93.8248
92.5543
91.2876
90.0248
88.7658
87.5104
86.2586
85.0104
83.7655
82.524
81.2859
80.0509
78.819
77.5903
76.3645
75.1416
73.9216
72.7045
71.4901
70.2783
69.0692
67.8627
66.6586
65.4571
64.2578
63.0611
61.8665
60.6743
59.4842
58.2963
57.1105
55.9268
54.7451
53.5654
52.3876
51.2117
50.0376
48.8654
47.6949
46.5262
45.359
44.1936
43.0297
41.8674
40.7065
39.5472
38.3892
37.2326
36.0772
34.9231
33.7703
32.6186
31.4679
30.3183
29.1697
28.0219
26.875
25.729
24.5836
23.4389
22.2948
21.1512
20.0081
18.8653
17.7228
16.5807
15.4386
14.2967
13.1549
12.013
10.871
9.72889
8.58653
7.44391
6.30094
5.15759
4.01374
2.86979
1.72393
0.590908
157.755
152.683
150.787
149.002
147.293
145.597
143.933
142.309
140.717
139.151
137.607
136.083
134.578
133.089
131.615
130.155
128.708
127.272
125.848
124.434
123.029
121.634
120.247
118.868
117.498
116.134
114.778
113.428
112.084
110.747
109.415
108.089
106.768
105.453
104.142
102.837
101.536
100.24
98.9483
97.6611
96.3782
95.0995
93.8248
92.5543
91.2876
90.0248
88.7658
87.5104
86.2586
85.0104
83.7655
82.524
81.2859
80.0509
78.819
77.5903
76.3645
75.1416
73.9216
72.7045
71.4901
70.2783
69.0692
67.8627
66.6586
65.4571
64.2578
63.0611
61.8665
60.6743
59.4842
58.2963
57.1105
55.9268
54.7451
53.5654
52.3876
51.2117
50.0376
48.8654
47.6949
46.5262
45.359
44.1936
43.0297
41.8674
40.7065
39.5472
38.3892
37.2326
36.0772
34.9231
33.7703
32.6186
31.4679
30.3183
29.1697
28.0219
26.875
25.729
24.5836
23.4389
22.2948
21.1512
20.008
18.8653
17.7228
16.5806
15.4386
14.2967
13.1549
12.013
10.871
9.72889
8.58652
7.4439
6.30094
5.15759
4.01374
2.86979
1.72393
0.590907
157.55
152.689
150.788
149.003
147.293
145.598
143.934
142.309
140.717
139.151
137.607
136.084
134.578
133.089
131.615
130.155
128.708
127.272
125.848
124.434
123.029
121.634
120.247
118.869
117.498
116.134
114.778
113.428
112.084
110.747
109.415
108.089
106.768
105.453
104.142
102.837
101.536
100.24
98.9483
97.6611
96.3782
95.0995
93.8248
92.5543
91.2876
90.0248
88.7658
87.5104
86.2586
85.0104
83.7655
82.5241
81.2859
80.0509
78.819
77.5903
76.3645
75.1417
73.9216
72.7045
71.4901
70.2783
69.0692
67.8627
66.6586
65.4571
64.2578
63.0611
61.8665
60.6743
59.4842
58.2963
57.1105
55.9268
54.7451
53.5654
52.3876
51.2117
50.0376
48.8654
47.6949
46.5262
45.359
44.1936
43.0297
41.8674
40.7065
39.5472
38.3892
37.2326
36.0772
34.9231
33.7703
32.6185
31.4679
30.3183
29.1696
28.0219
26.875
25.729
24.5836
23.4389
22.2948
21.1512
20.008
18.8653
17.7228
16.5806
15.4386
14.2967
13.1549
12.013
10.871
9.72888
8.58652
7.4439
6.30093
5.15758
4.01373
2.86978
1.72392
0.590904
157.536
152.696
150.79
149.004
147.294
145.598
143.934
142.31
140.718
139.151
137.607
136.084
134.578
133.089
131.615
130.155
128.708
127.272
125.848
124.434
123.029
121.634
120.247
118.869
117.498
116.134
114.778
113.428
112.084
110.747
109.415
108.089
106.768
105.453
104.142
102.837
101.536
100.24
98.9483
97.6611
96.3782
95.0995
93.8249
92.5543
91.2877
90.0249
88.7658
87.5104
86.2586
85.0104
83.7655
82.5241
81.2859
80.0509
78.819
77.5903
76.3645
75.1417
73.9216
72.7045
71.4901
70.2783
69.0692
67.8627
66.6586
65.4571
64.2578
63.0611
61.8665
60.6743
59.4842
58.2963
57.1105
55.9268
54.7451
53.5654
52.3876
51.2117
50.0376
48.8654
47.6949
46.5262
45.359
44.1936
43.0297
41.8674
40.7065
39.5472
38.3892
37.2326
36.0772
34.9231
33.7703
32.6185
31.4679
30.3183
29.1696
28.0219
26.875
25.7289
24.5836
23.4389
22.2947
21.1512
20.008
18.8653
17.7228
16.5806
15.4386
14.2967
13.1548
12.013
10.871
9.72887
8.58651
7.44389
6.30092
5.15758
4.01373
2.86978
1.72391
0.590901
157.508
152.7
150.792
149.005
147.295
145.599
143.934
142.31
140.718
139.152
137.608
136.084
134.578
133.089
131.616
130.155
128.708
127.272
125.848
124.434
123.029
121.634
120.247
118.869
117.498
116.134
114.778
113.428
112.084
110.747
109.415
108.089
106.768
105.453
104.142
102.837
101.536
100.24
98.9483
97.6611
96.3782
95.0995
93.8249
92.5543
91.2877
90.0249
88.7658
87.5105
86.2587
85.0104
83.7655
82.5241
81.2859
80.0509
78.819
77.5903
76.3645
75.1417
73.9216
72.7045
71.4901
70.2784
69.0692
67.8627
66.6586
65.4571
64.2579
63.0611
61.8665
60.6743
59.4842
58.2963
57.1105
55.9268
54.7451
53.5654
52.3876
51.2117
50.0376
48.8654
47.6949
46.5262
45.359
44.1936
43.0297
41.8674
40.7065
39.5472
38.3892
37.2326
36.0772
34.9231
33.7703
32.6185
31.4679
30.3183
29.1696
28.0219
26.875
25.7289
24.5836
23.4389
22.2947
21.1512
20.008
18.8653
17.7228
16.5806
15.4386
14.2967
13.1548
12.013
10.871
9.72887
8.5865
7.44388
6.30092
5.15757
4.01372
2.86977
1.72391
0.590896
157.467
152.704
150.794
149.006
147.296
145.6
143.935
142.311
140.718
139.152
137.608
136.084
134.579
133.09
131.616
130.156
128.708
127.273
125.848
124.434
123.029
121.634
120.247
118.869
117.498
116.134
114.778
113.428
112.084
110.747
109.415
108.089
106.768
105.453
104.142
102.837
101.536
100.24
98.9484
97.6612
96.3782
95.0995
93.8249
92.5543
91.2877
90.0249
88.7658
87.5105
86.2587
85.0104
83.7655
82.5241
81.2859
80.0509
78.8191
77.5903
76.3645
75.1417
73.9217
72.7045
71.4901
70.2784
69.0692
67.8627
66.6586
65.4571
64.2579
63.0611
61.8665
60.6743
59.4842
58.2963
57.1105
55.9268
54.7451
53.5654
52.3876
51.2117
50.0376
48.8654
47.6949
46.5262
45.359
44.1936
43.0297
41.8674
40.7065
39.5472
38.3892
37.2326
36.0772
34.9231
33.7702
32.6185
31.4679
30.3183
29.1696
28.0219
26.875
25.7289
24.5836
23.4389
22.2947
21.1512
20.008
18.8653
17.7228
16.5806
15.4386
14.2967
13.1548
12.013
10.871
9.72886
8.58649
7.44387
6.30091
5.15756
4.01371
2.86976
1.7239
0.59089
157.431
152.709
150.797
149.008
147.297
145.601
143.936
142.311
140.719
139.152
137.608
136.085
134.579
133.09
131.616
130.156
128.708
127.273
125.848
124.434
123.03
121.634
120.247
118.869
117.498
116.134
114.778
113.428
112.084
110.747
109.415
108.089
106.768
105.453
104.142
102.837
101.536
100.24
98.9484
97.6612
96.3783
95.0996
93.8249
92.5544
91.2877
90.0249
88.7659
87.5105
86.2587
85.0104
83.7656
82.5241
81.2859
80.0509
78.8191
77.5903
76.3645
75.1417
73.9217
72.7045
71.4901
70.2784
69.0692
67.8627
66.6587
65.4571
64.2579
63.0611
61.8665
60.6743
59.4842
58.2963
57.1105
55.9268
54.7451
53.5654
52.3876
51.2117
50.0376
48.8654
47.6949
46.5262
45.359
44.1936
43.0297
41.8674
40.7065
39.5472
38.3892
37.2326
36.0772
34.9231
33.7702
32.6185
31.4678
30.3183
29.1696
28.0219
26.875
25.7289
24.5836
23.4389
22.2947
21.1512
20.008
18.8653
17.7228
16.5806
15.4386
14.2967
13.1548
12.0129
10.871
9.72884
8.58648
7.44386
6.30089
5.15755
4.0137
2.86975
1.72389
0.590883
157.404
152.715
150.799
149.01
147.299
145.602
143.937
142.312
140.72
139.153
137.609
136.085
134.579
133.09
131.616
130.156
128.709
127.273
125.849
124.434
123.03
121.634
120.248
118.869
117.498
116.135
114.778
113.428
112.084
110.747
109.415
108.089
106.769
105.453
104.143
102.837
101.536
100.24
98.9485
97.6613
96.3783
95.0996
93.825
92.5544
91.2878
90.025
88.7659
87.5105
86.2587
85.0105
83.7656
82.5241
81.2859
80.051
78.8191
77.5903
76.3645
75.1417
73.9217
72.7045
71.4901
70.2784
69.0692
67.8627
66.6587
65.4571
64.2579
63.0611
61.8665
60.6743
59.4842
58.2963
57.1105
55.9268
54.7451
53.5654
52.3876
51.2117
50.0376
48.8654
47.6949
46.5262
45.359
44.1936
43.0297
41.8674
40.7065
39.5472
38.3892
37.2325
36.0772
34.9231
33.7702
32.6185
31.4678
30.3183
29.1696
28.0219
26.875
25.7289
24.5835
23.4389
22.2947
21.1511
20.008
18.8653
17.7228
16.5806
15.4386
14.2967
13.1548
12.0129
10.871
9.72883
8.58647
7.44385
6.30088
5.15753
4.01368
2.86974
1.72387
0.590873
157.382
152.721
150.802
149.013
147.301
145.603
143.938
142.313
140.72
139.154
137.609
136.086
134.58
133.091
131.617
130.156
128.709
127.273
125.849
124.435
123.03
121.635
120.248
118.869
117.498
116.135
114.778
113.428
112.085
110.747
109.415
108.089
106.769
105.453
104.143
102.837
101.536
100.24
98.9485
97.6613
96.3784
95.0997
93.825
92.5545
91.2878
90.025
88.7659
87.5106
86.2588
85.0105
83.7656
82.5242
81.286
80.051
78.8191
77.5903
76.3646
75.1417
73.9217
72.7046
71.4901
70.2784
69.0692
67.8627
66.6587
65.4571
64.2579
63.0611
61.8666
60.6743
59.4842
58.2963
57.1105
55.9268
54.7451
53.5654
52.3876
51.2117
50.0376
48.8654
47.6949
46.5261
45.359
44.1936
43.0297
41.8674
40.7065
39.5471
38.3892
37.2325
36.0771
34.9231
33.7702
32.6185
31.4678
30.3182
29.1696
28.0219
26.875
25.7289
24.5835
23.4388
22.2947
21.1511
20.008
18.8652
17.7228
16.5806
15.4386
14.2967
13.1548
12.0129
10.8709
9.72881
8.58645
7.44383
6.30086
5.15752
4.01367
2.86972
1.72385
0.59086
157.362
152.728
150.804
149.015
147.303
145.605
143.94
142.314
140.721
139.155
137.61
136.086
134.58
133.091
131.617
130.157
128.709
127.274
125.849
124.435
123.03
121.635
120.248
118.869
117.498
116.135
114.778
113.428
112.085
110.747
109.416
108.089
106.769
105.453
104.143
102.837
101.536
100.24
98.9486
97.6614
96.3785
95.0998
93.8251
92.5545
91.2879
90.0251
88.766
87.5106
86.2588
85.0105
83.7657
82.5242
81.286
80.051
78.8191
77.5904
76.3646
75.1417
73.9217
72.7046
71.4901
70.2784
69.0693
67.8627
66.6587
65.4571
64.2579
63.0611
61.8666
60.6743
59.4842
58.2963
57.1105
55.9268
54.7451
53.5654
52.3876
51.2117
50.0376
48.8654
47.6949
46.5261
45.359
44.1936
43.0297
41.8674
40.7065
39.5471
38.3891
37.2325
36.0771
34.9231
33.7702
32.6185
31.4678
30.3182
29.1696
28.0219
26.8749
25.7289
24.5835
23.4388
22.2947
21.1511
20.008
18.8652
17.7227
16.5806
15.4385
14.2966
13.1548
12.0129
10.8709
9.72879
8.58643
7.44381
6.30084
5.1575
4.01365
2.8697
1.72383
0.590844
157.341
152.736
150.806
149.018
147.305
145.607
143.941
142.316
140.723
139.156
137.611
136.087
134.581
133.092
131.618
130.157
128.71
127.274
125.85
124.435
123.031
121.635
120.248
118.87
117.499
116.135
114.779
113.429
112.085
110.747
109.416
108.09
106.769
105.453
104.143
102.837
101.537
100.24
98.9487
97.6615
96.3786
95.0998
93.8252
92.5546
91.288
90.0251
88.7661
87.5107
86.2589
85.0106
83.7657
82.5243
81.286
80.0511
78.8192
77.5904
76.3646
75.1418
73.9218
72.7046
71.4902
70.2784
69.0693
67.8627
66.6587
65.4571
64.2579
63.0611
61.8666
60.6743
59.4842
58.2963
57.1105
55.9268
54.7451
53.5654
52.3876
51.2117
50.0376
48.8654
47.6949
46.5261
45.359
44.1936
43.0297
41.8674
40.7065
39.5471
38.3891
37.2325
36.0771
34.9231
33.7702
32.6185
31.4678
30.3182
29.1696
28.0218
26.8749
25.7289
24.5835
23.4388
22.2947
21.1511
20.0079
18.8652
17.7227
16.5805
15.4385
14.2966
13.1547
12.0129
10.8709
9.72877
8.5864
7.44378
6.30081
5.15747
4.01362
2.86967
1.72381
0.590821
157.318
152.745
150.808
149.02
147.307
145.609
143.943
142.317
140.724
139.157
137.612
136.088
134.582
133.093
131.619
130.158
128.71
127.275
125.85
124.436
123.031
121.636
120.249
118.87
117.499
116.135
114.779
113.429
112.085
110.748
109.416
108.09
106.769
105.454
104.143
102.838
101.537
100.241
98.9489
97.6616
96.3787
95.1
93.8253
92.5547
91.2881
90.0252
88.7661
87.5108
86.259
85.0107
83.7658
82.5243
81.2861
80.0511
78.8192
77.5905
76.3647
75.1418
73.9218
72.7046
71.4902
70.2785
69.0693
67.8628
66.6587
65.4571
64.2579
63.0611
61.8666
60.6743
59.4842
58.2963
57.1105
55.9268
54.7451
53.5654
52.3876
51.2117
50.0376
48.8654
47.6949
46.5261
45.359
44.1935
43.0297
41.8674
40.7065
39.5471
38.3891
37.2325
36.0771
34.9231
33.7702
32.6185
31.4678
30.3182
29.1695
28.0218
26.8749
25.7288
24.5835
23.4388
22.2946
21.1511
20.0079
18.8652
17.7227
16.5805
15.4385
14.2966
13.1547
12.0128
10.8709
9.72873
8.58637
7.44375
6.30078
5.15744
4.01359
2.86964
1.72378
0.590792
157.292
152.755
150.81
149.022
147.31
145.611
143.945
142.319
140.726
139.158
137.614
136.089
134.583
133.094
131.619
130.159
128.711
127.275
125.851
124.436
123.032
121.636
120.249
118.87
117.5
116.136
114.779
113.429
112.086
110.748
109.416
108.09
106.769
105.454
104.143
102.838
101.537
100.241
98.9491
97.6618
96.3789
95.1001
93.8255
92.5549
91.2882
90.0253
88.7663
87.5109
86.2591
85.0108
83.7659
82.5244
81.2862
80.0512
78.8193
77.5905
76.3647
75.1419
73.9218
72.7047
71.4902
70.2785
69.0693
67.8628
66.6587
65.4572
64.2579
63.0611
61.8666
60.6743
59.4842
58.2964
57.1105
55.9268
54.7451
53.5654
52.3876
51.2117
50.0376
48.8654
47.6949
46.5261
45.359
44.1935
43.0297
41.8673
40.7065
39.5471
38.3891
37.2325
36.0771
34.923
33.7701
32.6184
31.4677
30.3182
29.1695
28.0218
26.8749
25.7288
24.5834
23.4388
22.2946
21.151
20.0079
18.8651
17.7226
16.5805
15.4385
14.2966
13.1547
12.0128
10.8708
9.7287
8.58634
7.44371
6.30075
5.1574
4.01355
2.8696
1.72374
0.590752
157.261
152.767
150.811
149.023
147.311
145.613
143.947
142.321
140.728
139.16
137.615
136.091
134.584
133.095
131.62
130.16
128.712
127.276
125.851
124.437
123.032
121.637
120.25
118.871
117.5
116.136
114.78
113.43
112.086
110.748
109.417
108.09
106.77
105.454
104.144
102.838
101.537
100.241
98.9493
97.662
96.3791
95.1003
93.8256
92.555
91.2883
90.0255
88.7664
87.511
86.2592
85.0109
83.766
82.5245
81.2863
80.0513
78.8194
77.5906
76.3648
75.1419
73.9219
72.7047
71.4903
70.2786
69.0694
67.8628
66.6588
65.4572
64.258
63.0612
61.8666
60.6744
59.4843
58.2964
57.1106
55.9268
54.7451
53.5654
52.3876
51.2117
50.0376
48.8654
47.6949
46.5261
45.359
44.1935
43.0296
41.8673
40.7064
39.5471
38.3891
37.2325
36.0771
34.923
33.7701
32.6184
31.4677
30.3181
29.1695
28.0218
26.8748
25.7288
24.5834
23.4387
22.2946
21.151
20.0078
18.8651
17.7226
16.5804
15.4384
14.2965
13.1546
12.0128
10.8708
9.72865
8.58629
7.44367
6.3007
5.15736
4.01351
2.86956
1.7237
0.590699
157.226
152.781
150.813
149.024
147.313
145.615
143.949
142.323
140.73
139.162
137.617
136.092
134.586
133.096
131.622
130.161
128.713
127.277
125.852
124.438
123.033
121.637
120.251
118.872
117.501
116.137
114.78
113.43
112.086
110.749
109.417
108.091
106.77
105.454
104.144
102.838
101.537
100.241
98.9496
97.6623
96.3793
95.1005
93.8259
92.5552
91.2885
90.0257
88.7666
87.5112
86.2593
85.011
83.7661
82.5246
81.2864
80.0514
78.8195
77.5907
76.3649
75.142
73.922
72.7048
71.4904
70.2786
69.0695
67.8629
66.6589
65.4573
64.258
63.0612
61.8667
60.6744
59.4843
58.2964
57.1106
55.9269
54.7451
53.5654
52.3876
51.2117
50.0376
48.8654
47.6949
46.5261
45.359
44.1935
43.0296
41.8673
40.7064
39.5471
38.3891
37.2324
36.077
34.923
33.7701
32.6184
31.4677
30.3181
29.1695
28.0217
26.8748
25.7287
24.5834
23.4387
22.2945
21.151
20.0078
18.8651
17.7226
16.5804
15.4384
14.2965
13.1546
12.0127
10.8707
9.72861
8.58624
7.44362
6.30065
5.15731
4.01345
2.8695
1.72365
0.590626
157.185
152.797
150.814
149.026
147.314
145.616
143.951
142.325
140.732
139.164
137.619
136.094
134.588
133.098
131.623
130.162
128.714
127.278
125.853
124.439
123.034
121.638
120.251
118.873
117.501
116.138
114.781
113.431
112.087
110.749
109.418
108.091
106.771
105.455
104.144
102.839
101.538
100.242
98.9499
97.6626
96.3796
95.1008
93.8262
92.5555
91.2888
90.0259
88.7668
87.5114
86.2596
85.0112
83.7663
82.5248
81.2866
80.0516
78.8197
77.5909
76.365
75.1422
73.9221
72.7049
71.4905
70.2787
69.0696
67.863
66.6589
65.4573
64.2581
63.0613
61.8667
60.6745
59.4844
58.2965
57.1106
55.9269
54.7451
53.5654
52.3876
51.2117
50.0376
48.8654
47.6949
46.5261
45.359
44.1935
43.0296
41.8673
40.7064
39.5471
38.3891
37.2324
36.077
34.923
33.7701
32.6184
31.4677
30.3181
29.1694
28.0217
26.8748
25.7287
24.5833
23.4386
22.2945
21.1509
20.0078
18.865
17.7225
16.5803
15.4383
14.2964
13.1545
12.0127
10.8707
9.72855
8.58619
7.44356
6.30059
5.15725
4.0134
2.86944
1.72359
0.590526
157.137
152.816
150.815
149.027
147.315
145.617
143.952
142.326
140.733
139.166
137.621
136.096
134.589
133.1
131.625
130.164
128.716
127.28
125.855
124.44
123.035
121.639
120.252
118.873
117.502
116.139
114.782
113.432
112.088
110.75
109.418
108.092
106.771
105.456
104.145
102.839
101.538
100.242
98.9504
97.6631
96.38
95.1012
93.8265
92.5559
91.2891
90.0263
88.7671
87.5117
86.2598
85.0115
83.7666
82.5251
81.2868
80.0518
78.8199
77.591
76.3652
75.1423
73.9223
72.7051
71.4906
70.2789
69.0697
67.8631
66.659
65.4574
64.2582
63.0614
61.8668
60.6745
59.4844
58.2965
57.1107
55.927
54.7452
53.5655
52.3877
51.2118
50.0377
48.8654
47.6949
46.5261
45.359
44.1935
43.0297
41.8673
40.7064
39.5471
38.3891
37.2324
36.077
34.923
33.7701
32.6183
31.4676
30.3181
29.1694
28.0217
26.8747
25.7287
24.5833
23.4386
22.2944
21.1509
20.0077
18.865
17.7225
16.5803
15.4383
14.2964
13.1545
12.0126
10.8706
9.72849
8.58613
7.4435
6.30053
5.15718
4.01333
2.86937
1.72352
0.590387
157.081
152.839
150.816
149.028
147.316
145.618
143.953
142.327
140.734
139.167
137.622
136.098
134.591
133.101
131.627
130.166
128.718
127.281
125.856
124.442
123.037
121.641
120.254
118.875
117.503
116.14
114.783
113.433
112.089
110.751
109.419
108.093
106.772
105.456
104.146
102.84
101.539
100.243
98.9509
97.6636
96.3806
95.1017
93.827
92.5563
91.2896
90.0267
88.7675
87.5121
86.2602
85.0118
83.7669
82.5254
81.2871
80.0521
78.8201
77.5913
76.3655
75.1426
73.9225
72.7053
71.4908
70.279
69.0699
67.8633
66.6592
65.4576
64.2583
63.0615
61.8669
60.6747
59.4845
58.2966
57.1108
55.927
54.7453
53.5656
52.3877
51.2118
50.0377
48.8655
47.695
46.5262
45.359
44.1936
43.0297
41.8673
40.7065
39.5471
38.3891
37.2324
36.077
34.923
33.7701
32.6183
31.4676
30.318
29.1694
28.0216
26.8747
25.7286
24.5833
23.4386
22.2944
21.1508
20.0077
18.8649
17.7224
16.5802
15.4382
14.2963
13.1544
12.0125
10.8706
9.72842
8.58606
7.44343
6.30046
5.15711
4.01326
2.8693
1.72345
0.590195
157.017
152.865
150.817
149.029
147.317
145.619
143.953
142.328
140.735
139.168
137.623
136.099
134.593
133.103
131.628
130.167
128.719
127.283
125.858
124.443
123.038
121.642
120.255
118.876
117.505
116.141
114.784
113.434
112.09
110.752
109.42
108.094
106.773
105.457
104.146
102.841
101.54
100.243
98.9517
97.6643
96.3812
95.1024
93.8276
92.5569
91.2901
90.0272
88.768
87.5125
86.2606
85.0123
83.7673
82.5258
81.2875
80.0524
78.8205
77.5916
76.3658
75.1429
73.9228
72.7056
71.4911
70.2793
69.0701
67.8635
66.6594
65.4578
64.2585
63.0617
61.8671
60.6748
59.4847
58.2968
57.1109
55.9272
54.7454
53.5657
52.3878
51.2119
50.0378
48.8656
47.6951
46.5263
45.3591
44.1936
43.0297
41.8674
40.7065
39.5471
38.3891
37.2324
36.077
34.923
33.7701
32.6183
31.4676
30.318
29.1694
28.0216
26.8747
25.7286
24.5832
23.4385
22.2944
21.1508
20.0076
18.8649
17.7224
16.5802
15.4382
14.2963
13.1544
12.0125
10.8705
9.72836
8.58599
7.44336
6.30039
5.15704
4.01318
2.86921
1.72337
0.589925
156.944
152.896
150.819
149.03
147.318
145.62
143.954
142.328
140.735
139.168
137.624
136.099
134.594
133.104
131.63
130.169
128.721
127.285
125.86
124.445
123.04
121.644
120.257
118.877
117.506
116.142
114.785
113.435
112.091
110.753
109.421
108.095
106.774
105.458
104.147
102.842
101.541
100.244
98.9525
97.6651
96.382
95.1031
93.8283
92.5576
91.2908
90.0279
88.7687
87.5132
86.2612
85.0128
83.7679
82.5263
81.288
80.0529
78.8209
77.5921
76.3662
75.1433
73.9232
72.706
71.4915
70.2796
69.0704
67.8638
66.6597
65.4581
64.2588
63.062
61.8674
60.6751
59.4849
58.297
57.1111
55.9274
54.7456
53.5658
52.388
51.2121
50.038
48.8657
47.6952
46.5264
45.3592
44.1937
43.0298
41.8675
40.7066
39.5472
38.3892
37.2325
36.0771
34.923
33.7701
32.6184
31.4677
30.3181
29.1694
28.0217
26.8747
25.7286
24.5832
23.4385
22.2944
21.1508
20.0076
18.8648
17.7224
16.5802
15.4381
14.2962
13.1543
12.0124
10.8704
9.7283
8.58593
7.4433
6.30032
5.15697
4.01311
2.86913
1.7233
0.589551
156.86
152.931
150.821
149.032
147.319
145.621
143.954
142.329
140.736
139.169
137.624
136.1
134.594
133.104
131.63
130.17
128.722
127.286
125.861
124.446
123.041
121.645
120.258
118.879
117.508
116.144
114.787
113.436
112.092
110.755
109.423
108.096
106.775
105.459
104.149
102.843
101.542
100.245
98.9536
97.6661
96.383
95.1041
93.8293
92.5585
91.2917
90.0287
88.7695
87.5139
86.262
85.0136
83.7686
82.527
81.2886
80.0535
78.8215
77.5927
76.3668
75.1438
73.9237
72.7065
71.4919
70.2801
69.0709
67.8643
66.6601
65.4585
64.2592
63.0623
61.8677
60.6754
59.4852
58.2973
57.1114
55.9277
54.7459
53.5661
52.3883
51.2123
50.0382
48.8659
47.6954
46.5266
45.3594
44.1939
43.03
41.8676
40.7067
39.5473
38.3893
37.2326
36.0772
34.9231
33.7702
32.6185
31.4678
30.3181
29.1695
28.0217
26.8748
25.7287
24.5833
23.4386
22.2944
21.1508
20.0076
18.8649
17.7224
16.5802
15.4381
14.2962
13.1543
12.0124
10.8704
9.72826
8.58589
7.44325
6.30027
5.15691
4.01304
2.86904
1.72323
0.589024
156.765
152.97
150.823
149.034
147.321
145.622
143.955
142.329
140.736
139.169
137.624
136.1
134.594
133.105
131.63
130.17
128.722
127.286
125.862
124.447
123.042
121.647
120.26
118.881
117.509
116.145
114.788
113.438
112.094
110.756
109.424
108.098
106.777
105.461
104.15
102.844
101.543
100.247
98.9548
97.6673
96.3842
95.1052
93.8304
92.5596
91.2927
90.0297
88.7704
87.5149
86.2629
85.0145
83.7694
82.5278
81.2895
80.0543
78.8223
77.5934
76.3675
75.1445
73.9244
72.7071
71.4926
70.2807
69.0715
67.8648
66.6607
65.459
64.2597
63.0628
61.8682
60.6759
59.4857
58.2977
57.1118
55.9281
54.7462
53.5665
52.3886
51.2127
50.0385
48.8662
47.6957
46.5269
45.3597
44.1942
43.0303
41.8679
40.707
39.5475
38.3895
37.2328
36.0774
34.9233
33.7704
32.6186
31.4679
30.3183
29.1696
28.0218
26.8749
25.7288
24.5834
23.4387
22.2945
21.1509
20.0077
18.8649
17.7224
16.5802
15.4381
14.2962
13.1543
12.0124
10.8704
9.72826
8.58588
7.44323
6.30024
5.15687
4.013
2.86898
1.72317
0.588292
156.659
153.014
150.825
149.036
147.324
145.624
143.957
142.33
140.737
139.17
137.625
136.1
134.594
133.105
131.631
130.17
128.722
127.287
125.862
124.447
123.043
121.647
120.26
118.881
117.51
116.146
114.79
113.439
112.095
110.758
109.426
108.099
106.778
105.462
104.152
102.846
101.545
100.248
98.9562
97.6687
96.3855
95.1065
93.8317
92.5608
91.2939
90.0309
88.7716
87.516
86.264
85.0156
83.7705
82.5288
81.2905
80.0553
78.8233
77.5943
76.3684
75.1454
73.9252
72.7079
71.4934
70.2815
69.0722
67.8656
66.6614
65.4597
64.2604
63.0635
61.8688
60.6765
59.4863
58.2983
57.1124
55.9286
54.7468
53.567
52.3891
51.2131
50.039
48.8667
47.6961
46.5273
45.3601
44.1946
43.0306
41.8682
40.7073
39.5479
38.3898
37.2331
36.0777
34.9236
33.7707
32.6189
31.4682
30.3185
29.1698
28.022
26.8751
25.729
24.5836
23.4388
22.2946
21.151
20.0078
18.865
17.7225
16.5803
15.4382
14.2963
13.1544
12.0125
10.8705
9.7283
8.58591
7.44326
6.30026
5.15688
4.013
2.86894
1.72314
0.587272
156.541
153.062
150.828
149.038
147.326
145.626
143.958
142.332
140.738
139.17
137.626
136.101
134.595
133.105
131.631
130.17
128.723
127.287
125.862
124.448
123.043
121.647
120.26
118.882
117.511
116.147
114.79
113.44
112.096
110.759
109.427
108.1
106.779
105.464
104.153
102.847
101.546
100.25
98.9577
97.6702
96.387
95.108
93.8331
92.5623
91.2954
90.0323
88.773
87.5174
86.2654
85.0169
83.7718
82.5301
81.2917
80.0565
78.8244
77.5955
76.3695
75.1465
73.9263
72.709
71.4944
70.2825
69.0732
67.8665
66.6623
65.4606
64.2613
63.0643
61.8697
60.6773
59.4871
58.2991
57.1132
55.9293
54.7475
53.5677
52.3898
51.2138
50.0396
48.8673
47.6967
46.5279
45.3606
44.1951
43.0312
41.8688
40.7078
39.5484
38.3903
37.2336
36.0781
34.924
33.7711
32.6193
31.4685
30.3189
29.1702
28.0224
26.8754
25.7293
24.5839
23.4391
22.2949
21.1513
20.0081
18.8653
17.7227
16.5805
15.4384
14.2965
13.1546
12.0126
10.8706
9.72843
8.58603
7.44336
6.30035
5.15696
4.01307
2.86897
1.72317
0.58587
156.414
153.112
150.833
149.04
147.329
145.628
143.96
142.333
140.739
139.171
137.626
136.102
134.596
133.106
131.631
130.171
128.723
127.287
125.862
124.448
123.043
121.647
120.26
118.882
117.511
116.147
114.79
113.44
112.096
110.759
109.427
108.101
106.78
105.464
104.154
102.848
101.547
100.251
98.9591
97.6716
96.3885
95.1095
93.8346
92.5638
91.2969
90.0338
88.7745
87.5189
86.2668
85.0183
83.7732
82.5315
81.2931
80.0579
78.8258
77.5968
76.3708
75.1478
73.9276
72.7102
71.4956
70.2837
69.0744
67.8677
66.6635
65.4617
64.2624
63.0654
61.8707
60.6783
59.4881
58.3001
57.1141
55.9303
54.7484
53.5686
52.3907
51.2147
50.0405
48.8681
47.6975
46.5286
45.3614
44.1959
43.0319
41.8695
40.7085
39.549
38.391
37.2342
36.0788
34.9246
33.7716
32.6198
31.4691
30.3194
29.1707
28.0229
26.8759
25.7298
24.5843
23.4395
22.2953
21.1517
20.0085
18.8656
17.7231
16.5808
15.4388
14.2968
13.1549
12.0129
10.8709
9.72867
8.58626
7.44357
6.30055
5.15714
4.01323
2.86907
1.72325
0.583961
156.281
153.163
150.838
149.041
147.332
145.63
143.961
142.334
140.741
139.173
137.627
136.103
134.596
133.107
131.632
130.171
128.724
127.288
125.863
124.448
123.043
121.648
120.261
118.882
117.511
116.147
114.79
113.44
112.096
110.759
109.427
108.101
106.78
105.464
104.154
102.848
101.547
100.251
98.9595
97.6722
96.3892
95.1103
93.8356
92.5649
91.2981
90.0351
88.7759
87.5203
86.2683
85.0199
83.7748
82.5331
81.2947
80.0594
78.8274
77.5984
76.3723
75.1493
73.9291
72.7117
71.4971
70.2851
69.0758
67.8691
66.6648
65.4631
64.2637
63.0667
61.872
60.6796
59.4893
58.3013
57.1153
55.9315
54.7496
53.5697
52.3918
51.2158
50.0416
48.8692
47.6986
46.5297
45.3624
44.1969
43.0329
41.8704
40.7094
39.55
38.3918
37.2351
36.0796
34.9255
33.7725
32.6206
31.4699
30.3202
29.1714
28.0236
26.8766
25.7304
24.585
23.4402
22.2959
21.1523
20.009
18.8662
17.7236
16.5814
15.4393
14.2973
13.1553
12.0133
10.8713
9.72907
8.58664
7.44393
6.30088
5.15745
4.01353
2.86929
1.72343
0.58142
156.146
153.212
150.844
149.042
147.336
145.633
143.963
142.336
140.742
139.174
137.629
136.104
134.597
133.107
131.633
130.172
128.724
127.288
125.863
124.449
123.044
121.648
120.261
118.882
117.511
116.147
114.791
113.44
112.097
110.759
109.427
108.101
106.78
105.465
104.154
102.848
101.547
100.251
98.9595
97.6722
96.3892
95.1104
93.8357
92.5651
91.2983
90.0354
88.7763
87.5209
86.269
85.0206
83.7757
82.5341
81.2958
80.0607
78.8287
77.5998
76.3738
75.1508
73.9307
72.7133
71.4987
70.2868
69.0774
67.8707
66.6664
65.4646
64.2652
63.0682
61.8735
60.6811
59.4908
58.3027
57.1168
55.9329
54.751
53.5711
52.3931
51.2171
50.0429
48.8705
47.6999
46.5309
45.3637
44.1981
43.0341
41.8716
40.7106
39.5511
38.393
37.2362
36.0807
34.9265
33.7735
32.6217
31.4709
30.3212
29.1724
28.0246
26.8775
25.7314
24.5859
23.4411
22.2968
21.1531
20.0098
18.867
17.7244
16.5821
15.44
14.298
13.156
12.014
10.8719
9.72966
8.58721
7.44447
6.3014
5.15795
4.014
2.86967
1.72371
0.578129
156.019
153.257
150.851
149.042
147.339
145.635
143.965
142.337
140.743
139.175
137.63
136.105
134.598
133.108
131.634
130.173
128.725
127.289
125.864
124.449
123.044
121.649
120.262
118.883
117.511
116.148
114.791
113.441
112.097
110.759
109.427
108.101
106.78
105.465
104.154
102.849
101.548
100.251
98.9597
97.6723
96.3893
95.1105
93.8358
92.5651
91.2984
90.0355
88.7764
87.5209
86.269
85.0207
83.7757
82.5342
81.2959
80.0609
78.8289
77.6001
76.3743
75.1513
73.9313
72.714
71.4995
70.2877
69.0785
67.8719
66.6677
65.466
64.2667
63.0698
61.8751
60.6827
59.4925
58.3044
57.1185
55.9346
54.7527
53.5728
52.3948
51.2188
50.0445
48.8721
47.7014
46.5325
45.3652
44.1996
43.0355
41.8731
40.712
39.5525
38.3944
37.2376
36.0821
34.9279
33.7748
32.623
31.4722
30.3224
29.1736
28.0258
26.8787
25.7325
24.587
23.4422
22.2979
21.1542
20.0109
18.868
17.7254
16.5831
15.4409
14.2989
13.1569
12.0149
10.8727
9.73048
8.588
7.44524
6.30214
5.15865
4.01467
2.87024
1.72412
0.574077
155.911
153.293
150.858
149.042
147.342
145.638
143.967
142.339
140.744
139.176
137.63
136.105
134.599
133.109
131.634
130.173
128.725
127.289
125.864
124.45
123.045
121.649
120.262
118.883
117.512
116.148
114.791
113.441
112.097
110.76
109.428
108.101
106.781
105.465
104.154
102.849
101.548
100.252
98.9598
97.6725
96.3895
95.1107
93.8359
92.5653
91.2985
90.0356
88.7765
87.521
86.2691
85.0208
83.7758
82.5343
81.296
80.0609
78.829
77.6002
76.3743
75.1514
73.9313
72.7141
71.4996
70.2878
69.0786
67.872
66.6679
65.4662
64.267
63.0701
61.8755
60.6832
59.4931
58.3051
57.1193
55.9355
54.7537
53.5739
52.396
51.2201
50.0459
48.8736
47.703
46.5341
45.3669
44.2013
43.0373
41.8748
40.7138
39.5543
38.3961
37.2393
36.0838
34.9296
33.7765
32.6246
31.4738
30.324
29.1752
28.0273
26.8803
25.734
24.5885
23.4436
22.2993
21.1555
20.0122
18.8693
17.7266
16.5843
15.4421
14.3
13.158
12.0159
10.8738
9.7315
8.58899
7.4462
6.30308
5.15956
4.01555
2.87102
1.72469
0.569571
155.842
153.316
150.863
149.042
147.343
145.639
143.968
142.34
140.745
139.177
137.631
136.106
134.599
133.109
131.635
130.174
128.726
127.29
125.865
124.45
123.045
121.649
120.262
118.883
117.512
116.148
114.791
113.441
112.098
110.76
109.428
108.102
106.781
105.465
104.155
102.849
101.548
100.252
98.96
97.6727
96.3897
95.1108
93.8361
92.5654
91.2987
90.0358
88.7766
87.5211
86.2692
85.0209
83.7759
82.5344
81.2961
80.061
78.8291
77.6002
76.3744
75.1515
73.9314
72.7142
71.4997
70.2879
69.0787
67.872
66.6679
65.4663
64.267
63.0702
61.8756
60.6832
59.4931
58.3051
57.1193
55.9355
54.7537
53.5739
52.3961
51.2201
50.046
48.8737
47.7032
46.5343
45.3672
44.2017
43.0377
41.8753
40.7144
39.5549
38.3969
37.2401
36.0847
34.9305
33.7775
32.6257
31.4749
30.3252
29.1764
28.0286
26.8815
25.7353
24.5898
23.445
22.3007
21.1569
20.0136
18.8707
17.728
16.5857
15.4435
14.3014
13.1593
12.0173
10.8751
9.73279
8.59025
7.44744
6.30429
5.16074
4.01669
2.87208
1.72556
0.566062
155.842
153.316
150.863
149.042
147.343
145.639
143.968
142.34
140.745
139.177
137.631
136.106
134.599
133.109
131.635
130.174
128.726
127.29
125.865
124.45
123.045
121.649
120.262
118.883
117.512
116.148
114.791
113.441
112.098
110.76
109.428
108.102
106.781
105.465
104.155
102.849
101.548
100.252
98.96
97.6727
96.3897
95.1108
93.8361
92.5654
91.2987