/*--------------------------------*- C++ -*----------------------------------*\
  =========                 |
  \\      /  F ield         | OpenFOAM: The Open Source CFD Toolbox
   \\    /   O peration     | Website:  https://openfoam.org
    \\  /    A nd           | Version:  8
     \\/     M anipulation  |
\*---------------------------------------------------------------------------*/
FoamFile
{
    version     2.0;
    format      ascii;
    class       surfaceScalarField;
    location    "550";
    object      phi;
}
// * * * * * * * * * * * * * * * * * * * * * * * * * * * * * * * * * * * * * //

dimensions      [0 3 -1 0 0 0 0];

internalField   nonuniform List<scalar> 
14458
(
0.00222126
0.00139905
0.00205682
0.000164436
0.00198942
6.74032e-05
0.00194726
4.21606e-05
0.00191671
3.05464e-05
0.00189296
2.37471e-05
0.00187368
1.92753e-05
0.00185758
1.60994e-05
0.00184386
1.37247e-05
0.00183197
1.18863e-05
0.00182154
1.04227e-05
0.00181231
9.23275e-06
0.00180406
8.24653e-06
0.00179664
7.41674e-06
0.00178993
6.70878e-06
0.00178383
6.09942e-06
0.00177826
5.56922e-06
0.00177315
5.10418e-06
0.00176846
4.69117e-06
0.00176413
4.32568e-06
0.00176013
3.99858e-06
0.00175643
3.70449e-06
0.00175299
3.43721e-06
0.00174979
3.19615e-06
0.00174681
2.97645e-06
0.00174403
2.77581e-06
0.00174144
2.58836e-06
0.00173902
2.41943e-06
0.00173675
2.2636e-06
0.00173463
2.11985e-06
0.00173264
1.98417e-06
0.00173078
1.86082e-06
0.00172903
1.74591e-06
0.00172739
1.63907e-06
0.00172585
1.53391e-06
0.00172441
1.44082e-06
0.00172305
1.35333e-06
0.00172178
1.27153e-06
0.00172059
1.19051e-06
0.00171946
1.1183e-06
0.00171841
1.04983e-06
0.00171743
9.85585e-07
0.00171651
9.17011e-07
0.00171564
8.59851e-07
0.00171483
8.05274e-07
0.00171408
7.54085e-07
0.00171338
6.99698e-07
0.00171272
6.53879e-07
0.00171211
6.09763e-07
0.00171154
5.6843e-07
0.00171102
5.18601e-07
0.00171053
4.81576e-07
0.00171009
4.45651e-07
0.00170967
4.12242e-07
0.0017093
3.72594e-07
0.00170895
3.42602e-07
0.00170864
3.13148e-07
0.00170836
2.85906e-07
0.0017081
2.46619e-07
0.00170788
2.2226e-07
0.00170768
1.98067e-07
0.0017075
1.7605e-07
0.00170735
1.45472e-07
0.00170723
1.2578e-07
0.00170712
1.05838e-07
0.00170704
8.78776e-08
0.00170698
5.51712e-08
0.00170694
3.92415e-08
0.00170691
2.27995e-08
0.00170691
8.396e-09
0.00170692
-1.65649e-08
0.00170695
-2.93185e-08
0.001707
-4.29048e-08
0.00170706
-5.46086e-08
0.00170713
-8.32623e-08
0.00170723
-9.34257e-08
0.00170733
-1.04617e-07
0.00170745
-1.13785e-07
0.00170758
-1.34701e-07
0.00170773
-1.42658e-07
0.00170788
-1.51889e-07
0.00170805
-1.5929e-07
0.00170823
-1.84921e-07
0.00170842
-1.91155e-07
0.00170862
-1.98762e-07
0.00170883
-2.04337e-07
0.00170905
-2.22512e-07
0.00170928
-2.27168e-07
0.00170952
-2.33376e-07
0.00170976
-2.37747e-07
0.00171002
-2.60972e-07
0.00171028
-2.64384e-07
0.00171055
-2.69338e-07
0.00171083
-2.72236e-07
0.00171112
-2.8753e-07
0.00171141
-2.89669e-07
0.00171171
-2.93458e-07
0.00171202
-2.95442e-07
0.00171233
-3.14755e-07
0.00171265
-3.15957e-07
0.00171297
-3.18707e-07
0.0017133
-3.19498e-07
0.00171363
-3.3123e-07
0.00171396
-3.3141e-07
0.0017143
-3.33066e-07
0.00171465
-3.33118e-07
0.00171499
-3.46345e-07
0.00171534
-3.45799e-07
0.0017157
-3.46428e-07
0.00171605
-3.45517e-07
0.00171641
-3.51347e-07
0.00171676
-3.50008e-07
0.00171712
-3.49554e-07
0.00171748
-3.48054e-07
0.00171784
-3.50975e-07
0.00171819
-3.49227e-07
0.00171855
-3.4798e-07
0.0017189
-3.45838e-07
0.00171925
-3.43156e-07
0.0017196
-3.34757e-07
0.00171994
-3.36785e-07
-1.8011e-07
0.00311152
0.00259572
0.00288393
0.000392017
0.00278399
0.00016735
0.00272314
0.000103004
0.0026798
7.38892e-05
0.0026464
5.71435e-05
0.00261943
4.62461e-05
0.00259697
3.85551e-05
0.00257787
3.28266e-05
0.00256135
2.84031e-05
0.00254689
2.48892e-05
0.00253408
2.20358e-05
0.00252265
1.96735e-05
0.00251238
1.76877e-05
0.00250309
1.59953e-05
0.00249465
1.45388e-05
0.00248695
1.32723e-05
0.00247989
1.21618e-05
0.0024734
1.11776e-05
0.00246742
1.03053e-05
0.00246189
9.52496e-06
0.00245677
8.8234e-06
0.00245202
8.18714e-06
0.00244761
7.61223e-06
0.00244349
7.08846e-06
0.00243966
6.61002e-06
0.00243608
6.16595e-06
0.00243273
5.76312e-06
0.0024296
5.39168e-06
0.00242667
5.04883e-06
0.00242393
4.72732e-06
0.00242136
4.43299e-06
0.00241894
4.15893e-06
0.00241668
3.90383e-06
0.00241455
3.6571e-06
0.00241255
3.4346e-06
0.00241068
3.22561e-06
0.00240892
3.02984e-06
0.00240727
2.83927e-06
0.00240572
2.66618e-06
0.00240427
2.50232e-06
0.00240291
2.34808e-06
0.00240163
2.18993e-06
0.00240044
2.05243e-06
0.00239932
1.92145e-06
0.00239827
1.79802e-06
0.0023973
1.67174e-06
0.00239639
1.56097e-06
0.00239555
1.45476e-06
0.00239476
1.35458e-06
0.00239403
1.24273e-06
0.00239336
1.15267e-06
0.00239274
1.06581e-06
0.00239217
9.84176e-07
0.00239164
8.94111e-07
0.00239116
8.20479e-07
0.00239073
7.48886e-07
0.00239034
6.8172e-07
0.00238998
5.96715e-07
0.00238967
5.36271e-07
0.00238939
4.77026e-07
0.00238914
4.21962e-07
0.00238893
3.54368e-07
0.00238875
3.04709e-07
0.0023886
2.55448e-07
0.00238848
2.09857e-07
0.00238839
1.41839e-07
0.00238833
1.00963e-07
0.00238829
5.99126e-08
0.00238828
2.25165e-08
0.00238829
-3.08451e-08
0.00238833
-6.44825e-08
0.00238838
-9.88427e-08
0.00238846
-1.29926e-07
0.00238856
-1.87121e-07
0.00238868
-2.14679e-07
0.00238882
-2.43408e-07
0.00238898
-2.68712e-07
0.00238916
-3.11993e-07
0.00238935
-3.34514e-07
0.00238956
-3.58627e-07
0.00238978
-3.79725e-07
0.00239002
-4.29101e-07
0.00239028
-4.47533e-07
0.00239055
-4.67786e-07
0.00239083
-4.84732e-07
0.00239113
-5.21106e-07
0.00239144
-5.35938e-07
0.00239176
-5.52876e-07
0.0023921
-5.66883e-07
0.00239244
-6.10244e-07
0.0023928
-6.22063e-07
0.00239317
-6.36024e-07
0.00239355
-6.46687e-07
0.00239393
-6.7651e-07
0.00239433
-6.85398e-07
0.00239474
-6.96588e-07
0.00239515
-7.04884e-07
0.00239558
-7.40153e-07
0.00239601
-7.46572e-07
0.00239645
-7.55147e-07
0.00239689
-7.60534e-07
0.00239734
-7.82789e-07
0.0023978
-7.86592e-07
0.00239826
-7.92389e-07
0.00239873
-7.95523e-07
0.00239921
-8.1909e-07
0.00239968
-8.20564e-07
0.00240016
-8.23524e-07
0.00240065
-8.23862e-07
0.00240113
-8.3446e-07
0.00240162
-8.33396e-07
0.00240211
-8.33232e-07
0.0024026
-8.31247e-07
0.00240308
-8.36126e-07
0.00240357
-8.32977e-07
0.00240406
-8.29924e-07
0.00240454
-8.25255e-07
0.00240502
-8.19747e-07
0.00240549
-7.98849e-07
0.00240596
-7.97646e-07
-4.18719e-07
0.00403426
0.00368821
0.00373892
0.000687358
0.00360103
0.000305241
0.00351841
0.000185626
0.00346051
0.000131789
0.00341635
0.000101298
0.00338092
8.16765e-05
0.00335155
6.79291e-05
0.00332663
5.77391e-05
0.00330514
4.98969e-05
0.00328634
4.36836e-05
0.00326973
3.86471e-05
0.00325492
3.44837e-05
0.00324162
3.0988e-05
0.0032296
2.80122e-05
0.00321869
2.5453e-05
0.00320873
2.32291e-05
0.00319961
2.12802e-05
0.00319123
1.95555e-05
0.00318351
1.80262e-05
0.00317637
1.66585e-05
0.00316977
1.54293e-05
0.00316364
1.43161e-05
0.00315794
1.33094e-05
0.00315264
1.23925e-05
0.00314769
1.15551e-05
0.00314307
1.07808e-05
0.00313876
1.0076e-05
0.00313472
9.42612e-06
0.00313095
8.82624e-06
0.00312741
8.26581e-06
0.00312409
7.75075e-06
0.00312097
7.27123e-06
0.00311805
6.82468e-06
0.00311531
6.39715e-06
0.00311274
6.00745e-06
0.00311032
5.64145e-06
0.00310805
5.29832e-06
0.00310592
4.96757e-06
0.00310392
4.66395e-06
0.00310205
4.37665e-06
0.00310029
4.10591e-06
0.00309864
3.83469e-06
0.0030971
3.59309e-06
0.00309566
3.36311e-06
0.00309431
3.14597e-06
0.00309305
2.92854e-06
0.00309188
2.73341e-06
0.00309079
2.5466e-06
0.00308977
2.36993e-06
0.00308883
2.18143e-06
0.00308796
2.02231e-06
0.00308716
1.86915e-06
0.00308642
1.72463e-06
0.00308574
1.57163e-06
0.00308512
1.44095e-06
0.00308455
1.31432e-06
0.00308404
1.19488e-06
0.00308358
1.05506e-06
0.00308317
9.4719e-07
0.0030828
8.41967e-07
0.00308248
7.43347e-07
0.0030822
6.30482e-07
0.00308197
5.41154e-07
0.00308177
4.53211e-07
0.00308161
3.70958e-07
0.00308149
2.62135e-07
0.0030814
1.87961e-07
0.00308134
1.14224e-07
0.00308132
4.60121e-08
0.00308133
-4.11649e-08
0.00308137
-1.03025e-07
0.00308144
-1.65251e-07
0.00308153
-2.22577e-07
0.00308165
-3.11319e-07
0.0030818
-3.62648e-07
0.00308197
-4.15098e-07
0.00308217
-4.62583e-07
0.00308239
-5.31725e-07
0.00308263
-5.74471e-07
0.00308289
-6.18957e-07
0.00308317
-6.59115e-07
0.00308347
-7.33569e-07
0.0030838
-7.69215e-07
0.00308413
-8.06991e-07
0.00308449
-8.40105e-07
0.00308487
-8.96823e-07
0.00308526
-9.26344e-07
0.00308567
-9.5839e-07
0.00308609
-9.86325e-07
0.00308653
-1.04998e-06
0.00308698
-1.07422e-06
0.00308744
-1.10107e-06
0.00308792
-1.12334e-06
0.00308842
-1.16896e-06
0.00308892
-1.18818e-06
0.00308944
-1.21019e-06
0.00308996
-1.22817e-06
0.0030905
-1.27896e-06
0.00309105
-1.29368e-06
0.0030916
-1.31098e-06
0.00309217
-1.32383e-06
0.00309275
-1.35714e-06
0.00309333
-1.36713e-06
0.00309392
-1.3794e-06
0.00309451
-1.38787e-06
0.00309512
-1.421e-06
0.00309572
-1.42637e-06
0.00309634
-1.43333e-06
0.00309695
-1.43646e-06
0.00309757
-1.45173e-06
0.00309819
-1.45205e-06
0.00309881
-1.45319e-06
0.00309944
-1.45139e-06
0.00310006
-1.45725e-06
0.00310068
-1.45287e-06
0.00310131
-1.4484e-06
0.00310192
-1.44082e-06
0.00310254
-1.43163e-06
0.00310314
-1.39449e-06
0.00310374
-1.40029e-06
-7.36154e-07
0.00509521
0.00469384
0.00472975
0.00105282
0.00454516
0.000489826
0.00443475
0.00029604
0.00435842
0.000208119
0.00430083
0.000158885
0.00425496
0.000127542
0.00421713
0.000105759
0.00418516
8.97044e-05
0.00415766
7.73989e-05
0.00413366
6.76801e-05
0.00411249
5.982e-05
0.00409364
5.33351e-05
0.00407673
4.78982e-05
0.00406146
4.32765e-05
0.00404761
3.93055e-05
0.00403498
3.5858e-05
0.00402342
3.28391e-05
0.00401281
3.01705e-05
0.00400303
2.78045e-05
0.00399399
2.56897e-05
0.00398563
2.37899e-05
0.00397788
2.20712e-05
0.00397067
2.05165e-05
0.00396396
1.91011e-05
0.00395771
1.78087e-05
0.00395187
1.66166e-05
0.00394641
1.55293e-05
0.00394131
1.45272e-05
0.00393654
1.36021e-05
0.00393206
1.27396e-05
0.00392787
1.19454e-05
0.00392393
1.12061e-05
0.00392024
1.05174e-05
0.00391677
9.86164e-06
0.00391352
9.26044e-06
0.00391046
8.6959e-06
0.00390759
8.16637e-06
0.0039049
7.65868e-06
0.00390237
7.18995e-06
0.0039
6.74659e-06
0.00389778
6.32852e-06
0.0038957
5.91504e-06
0.00389375
5.54177e-06
0.00389192
5.1867e-06
0.00389022
4.8511e-06
0.00388863
4.51903e-06
0.00388714
4.21726e-06
0.00388576
3.92869e-06
0.00388448
3.65538e-06
0.00388328
3.37099e-06
0.00388218
3.12458e-06
0.00388116
2.8878e-06
0.00388022
2.6638e-06
0.00387936
2.43206e-06
0.00387857
2.22925e-06
0.00387785
2.03325e-06
0.0038772
1.84774e-06
0.00387661
1.63986e-06
0.00387609
1.472e-06
0.00387562
1.30882e-06
0.00387521
1.15509e-06
0.00387485
9.85905e-07
0.00387455
8.46326e-07
0.00387429
7.09614e-07
0.00387408
5.80934e-07
0.00387392
4.21862e-07
0.0038738
3.05433e-07
0.00387372
1.90459e-07
0.00387369
8.31311e-08
0.00387369
-4.58515e-08
0.00387373
-1.43658e-07
0.00387381
-2.41096e-07
0.00387392
-3.31818e-07
0.00387407
-4.59077e-07
0.00387424
-5.40747e-07
0.00387445
-6.23185e-07
0.00387469
-6.98999e-07
0.00387496
-7.99919e-07
0.00387525
-8.68587e-07
0.00387557
-9.38855e-07
0.00387592
-1.00342e-06
0.00387629
-1.10824e-06
0.00387669
-1.16604e-06
0.00387711
-1.22603e-06
0.00387755
-1.27997e-06
0.00387802
-1.36153e-06
0.0038785
-1.41007e-06
0.003879
-1.4613e-06
0.00387953
-1.50724e-06
0.00388007
-1.59528e-06
0.00388063
-1.6357e-06
0.00388121
-1.67898e-06
0.00388181
-1.7164e-06
0.00388242
-1.78121e-06
0.00388305
-1.81402e-06
0.00388369
-1.84989e-06
0.00388434
-1.88057e-06
0.00388501
-1.94991e-06
0.0038857
-1.97565e-06
0.00388639
-2.00419e-06
0.0038871
-2.02698e-06
0.00388781
-2.0737e-06
0.00388854
-2.09203e-06
0.00388928
-2.11273e-06
0.00389002
-2.1284e-06
0.00389077
-2.17297e-06
0.00389153
-2.18375e-06
0.0038923
-2.19597e-06
0.00389306
-2.20305e-06
0.00389384
-2.22408e-06
0.00389462
-2.22658e-06
0.00389539
-2.22941e-06
0.00389617
-2.2282e-06
0.00389696
-2.23573e-06
0.00389774
-2.23011e-06
0.00389851
-2.22352e-06
0.00389929
-2.21249e-06
0.00390006
-2.19938e-06
0.00390081
-2.14181e-06
0.00390156
-2.14743e-06
-1.12354e-06
0.00634387
0.00561
0.00590982
0.00148687
0.00566913
0.000730511
0.00552327
0.000441901
0.00542325
0.000308144
0.0053485
0.00023363
0.00528942
0.000186624
0.00524096
0.000154216
0.00520019
0.000130478
0.00516522
0.000112367
0.00513478
9.8115e-05
0.00510798
8.66199e-05
0.00508416
7.71573e-05
0.00506282
6.92386e-05
0.00504358
6.25181e-05
0.00502613
5.67508e-05
0.00501024
5.17492e-05
0.0049957
4.73737e-05
0.00498236
4.35108e-05
0.00497008
4.00868e-05
0.00495874
3.70286e-05
0.00494825
3.42827e-05
0.00493852
3.18011e-05
0.00492948
2.95563e-05
0.00492106
2.75137e-05
0.00491322
2.56493e-05
0.00490591
2.39327e-05
0.00489907
2.23651e-05
0.00489267
2.09206e-05
0.00488669
1.95874e-05
0.00488108
1.83465e-05
0.00487582
1.72019e-05
0.00487089
1.61365e-05
0.00486627
1.51441e-05
0.00486192
1.4203e-05
0.00485785
1.33364e-05
0.00485402
1.25227e-05
0.00485042
1.17593e-05
0.00484705
1.10303e-05
0.00484389
1.03544e-05
0.00484092
9.7152e-06
0.00483813
9.11233e-06
0.00483553
8.52187e-06
0.00483308
7.98347e-06
0.0048308
7.47151e-06
0.00482866
6.98741e-06
0.00482667
6.51262e-06
0.00482481
6.07718e-06
0.00482307
5.66105e-06
0.00482146
5.26665e-06
0.00481997
4.86404e-06
0.00481858
4.50824e-06
0.0048173
4.16662e-06
0.00481612
3.84305e-06
0.00481504
3.51396e-06
0.00481405
3.22072e-06
0.00481314
2.93769e-06
0.00481232
2.66938e-06
0.00481158
2.37859e-06
0.00481092
2.13545e-06
0.00481033
1.89949e-06
0.00480981
1.67659e-06
0.00480935
1.43831e-06
0.00480896
1.23556e-06
0.00480864
1.0375e-06
0.00480837
8.50455e-07
0.00480816
6.31026e-07
0.004808
4.61345e-07
0.0048079
2.94378e-07
0.00480784
1.37733e-07
0.00480784
-4.20703e-08
0.00480788
-1.85346e-07
0.00480797
-3.27382e-07
0.0048081
-4.60357e-07
0.00480827
-6.33097e-07
0.00480848
-7.53284e-07
0.00480873
-8.73793e-07
0.00480902
-9.85587e-07
0.00480934
-1.12477e-06
0.0048097
-1.22648e-06
0.00481009
-1.32963e-06
0.00481052
-1.42532e-06
0.00481097
-1.56531e-06
0.00481146
-1.65151e-06
0.00481197
-1.73997e-06
0.00481252
-1.82063e-06
0.00481309
-1.93175e-06
0.00481368
-2.00482e-06
0.0048143
-2.08078e-06
0.00481495
-2.14993e-06
0.00481562
-2.26563e-06
0.00481631
-2.32708e-06
0.00481702
-2.39166e-06
0.00481775
-2.44878e-06
0.00481851
-2.53622e-06
0.00481928
-2.58685e-06
0.00482008
-2.64081e-06
0.00482089
-2.68814e-06
0.00482171
-2.77819e-06
0.00482256
-2.81853e-06
0.00482342
-2.86187e-06
0.00482429
-2.89787e-06
0.00482518
-2.9602e-06
0.00482607
-2.98977e-06
0.00482699
-3.02172e-06
0.00482791
-3.04711e-06
0.00482884
-3.10413e-06
0.00482978
-3.1224e-06
0.00483073
-3.14187e-06
0.00483168
-3.15456e-06
0.00483264
-3.18214e-06
0.0048336
-3.18797e-06
0.00483457
-3.19364e-06
0.00483554
-3.19367e-06
0.00483651
-3.20237e-06
0.00483747
-3.19563e-06
0.00483844
-3.18726e-06
0.0048394
-3.17225e-06
0.00484036
-3.15414e-06
0.00484129
-3.07147e-06
0.00484223
-3.08734e-06
-1.61742e-06
0.00782498
0.00642447
0.00732969
0.00198217
0.00702383
0.00103637
0.00683327
0.000632455
0.00670272
0.000438691
0.00660586
0.000330493
0.00652983
0.000262653
0.00646783
0.00021622
0.00641588
0.000182419
0.00637149
0.000156757
0.00633297
0.000136641
0.00629912
0.000120467
0.00626909
0.000107188
0.00624223
9.60988e-05
0.00621804
8.6705e-05
0.00619614
7.86554e-05
0.0061762
7.16837e-05
0.00615798
6.55916e-05
0.00614127
6.02199e-05
0.0061259
5.54615e-05
0.00611171
5.12148e-05
0.00609859
4.74045e-05
0.00608642
4.39643e-05
0.00607513
4.08531e-05
0.00606462
3.80238e-05
0.00605482
3.54424e-05
0.00604568
3.30691e-05
0.00603715
3.09003e-05
0.00602917
2.89026e-05
0.00602169
2.7059e-05
0.00601469
2.53449e-05
0.00600813
2.37624e-05
0.00600198
2.22895e-05
0.00599621
2.09174e-05
0.00599079
1.96199e-05
0.0059857
1.84216e-05
0.00598093
1.72965e-05
0.00597644
1.62409e-05
0.00597224
1.52356e-05
0.00596829
1.4301e-05
0.00596459
1.34174e-05
0.00596112
1.25838e-05
0.00595786
1.17727e-05
0.00595482
1.10284e-05
0.00595197
1.03209e-05
0.0059493
9.65165e-06
0.00594682
8.99924e-06
0.0059445
8.39728e-06
0.00594233
7.82243e-06
0.00594032
7.27734e-06
0.00593846
6.72786e-06
0.00593673
6.23593e-06
0.00593513
5.76403e-06
0.00593366
5.31665e-06
0.0059323
4.8668e-06
0.00593106
4.46113e-06
0.00592993
4.07009e-06
0.0059289
3.69892e-06
0.00592797
3.30541e-06
0.00592714
2.9687e-06
0.0059264
2.64245e-06
0.00592574
2.33363e-06
0.00592517
2.00981e-06
0.00592467
1.72855e-06
0.00592426
1.45443e-06
0.00592391
1.19489e-06
0.00592364
9.00816e-07
0.00592344
6.64912e-07
0.0059233
4.33475e-07
0.00592322
2.15518e-07
0.0059232
-2.71172e-08
0.00592325
-2.27019e-07
0.00592334
-4.24407e-07
0.0059235
-6.0996e-07
0.0059237
-8.38939e-07
0.00592395
-1.00714e-06
0.00592425
-1.17488e-06
0.0059246
-1.33149e-06
0.00592499
-1.51796e-06
0.00592543
-1.66093e-06
0.00592591
-1.80487e-06
0.00592642
-1.93933e-06
0.00592698
-2.12281e-06
0.00592757
-2.24454e-06
0.0059282
-2.36833e-06
0.00592886
-2.48237e-06
0.00592956
-2.63004e-06
0.00593029
-2.73383e-06
0.00593105
-2.8405e-06
0.00593184
-2.93866e-06
0.00593266
-3.0886e-06
0.00593351
-3.17645e-06
0.00593439
-3.26751e-06
0.00593529
-3.34935e-06
0.00593622
-3.46477e-06
0.00593717
-3.53783e-06
0.00593815
-3.61434e-06
0.00593915
-3.68256e-06
0.00594016
-3.79828e-06
0.0059412
-3.85707e-06
0.00594226
-3.91888e-06
0.00594334
-3.97153e-06
0.00594443
-4.05323e-06
0.00594554
-4.09706e-06
0.00594666
-4.14308e-06
0.0059478
-4.18079e-06
0.00594895
-4.25338e-06
0.00595011
-4.28124e-06
0.00595128
-4.30979e-06
0.00595246
-4.3297e-06
0.00595364
-4.36556e-06
0.00595483
-4.3758e-06
0.00595602
-4.38494e-06
0.00595722
-4.38673e-06
0.00595842
-4.39761e-06
0.00595961
-4.38968e-06
0.00596081
-4.37869e-06
0.005962
-4.35894e-06
0.00596318
-4.33534e-06
0.00596433
-4.22199e-06
0.00596549
-4.23996e-06
-2.21581e-06
0.00958315
0.00712229
0.00904307
0.00252225
0.0086654
0.00141404
0.00841974
0.000878115
0.00825014
0.000608294
0.00812471
0.000455918
0.00802681
0.000360551
0.0079474
0.000295633
0.00788117
0.000248647
0.00782478
0.000213148
0.00777598
0.000185436
0.00773322
0.000163231
0.00769536
0.00014505
0.00766155
0.000129905
0.00763115
0.000117102
0.00760366
0.000106149
0.00757866
9.66775e-05
0.00755584
8.84119e-05
0.00753493
8.11337e-05
0.0075157
7.46917e-05
0.00749796
6.89477e-05
0.00748157
6.37983e-05
0.00746638
5.91537e-05
0.00745228
5.49552e-05
0.00743916
5.11393e-05
0.00742694
4.766e-05
0.00741555
4.44652e-05
0.0074049
4.15443e-05
0.00739495
3.88547e-05
0.00738563
3.63731e-05
0.00737691
3.40682e-05
0.00736873
3.19386e-05
0.00736106
2.99568e-05
0.00735387
2.81104e-05
0.00734712
2.63686e-05
0.00734079
2.4756e-05
0.00733484
2.32423e-05
0.00732926
2.18219e-05
0.00732402
2.04723e-05
0.00731911
1.92147e-05
0.0073145
1.80261e-05
0.00731018
1.6905e-05
0.00730613
1.582e-05
0.00730234
1.48189e-05
0.00729879
1.38677e-05
0.00729547
1.2968e-05
0.00729237
1.20953e-05
0.00728949
1.1286e-05
0.00728679
1.05136e-05
0.00728429
9.78112e-06
0.00728197
9.05061e-06
0.00727981
8.38937e-06
0.00727782
7.75545e-06
0.00727598
7.15419e-06
0.00727429
6.55531e-06
0.00727274
6.00989e-06
0.00727133
5.48453e-06
0.00727004
4.98553e-06
0.00726888
4.46641e-06
0.00726784
4.01332e-06
0.0072669
3.57478e-06
0.00726608
3.15914e-06
0.00726536
2.73026e-06
0.00726473
2.3513e-06
0.00726421
1.98248e-06
0.00726377
1.63275e-06
0.00726342
1.24812e-06
0.00726315
9.29668e-07
0.00726297
6.17847e-07
0.00726286
3.23466e-07
0.00726283
4.0582e-09
0.00726287
-2.66561e-07
0.00726298
-5.33182e-07
0.00726316
-7.84427e-07
0.0072634
-1.08099e-06
0.0072637
-1.30933e-06
0.00726406
-1.53621e-06
0.00726448
-1.74892e-06
0.00726495
-1.99289e-06
0.00726548
-2.18762e-06
0.00726606
-2.38278e-06
0.00726669
-2.56588e-06
0.00726736
-2.80102e-06
0.00726809
-2.96747e-06
0.00726885
-3.13575e-06
0.00726967
-3.29179e-06
0.00727052
-3.48361e-06
0.00727141
-3.6262e-06
0.00727234
-3.77167e-06
0.00727331
-3.90644e-06
0.00727432
-4.0965e-06
0.00727536
-4.21783e-06
0.00727644
-4.34245e-06
0.00727755
-4.4556e-06
0.00727868
-4.60465e-06
0.00727985
-4.70625e-06
0.00728105
-4.8114e-06
0.00728228
-4.90619e-06
0.00728353
-5.05168e-06
0.00728481
-5.13407e-06
0.00728611
-5.21946e-06
0.00728743
-5.29342e-06
0.00728878
-5.39821e-06
0.00729014
-5.4604e-06
0.00729153
-5.52451e-06
0.00729293
-5.57809e-06
0.00729434
-5.66842e-06
0.00729577
-5.7088e-06
0.00729721
-5.74922e-06
0.00729866
-5.77862e-06
0.00730012
-5.8242e-06
0.00730159
-5.84043e-06
0.00730306
-5.85454e-06
0.00730454
-5.85898e-06
0.00730601
-5.87157e-06
0.00730749
-5.86258e-06
0.00730896
-5.84927e-06
0.00731043
-5.82401e-06
0.00731189
-5.79328e-06
0.00731331
-5.64308e-06
0.00731474
-5.67425e-06
-2.9705e-06
0.0116649
0.00769174
0.0111083
0.00307884
0.0106583
0.00186413
0.0103471
0.00118927
0.0101283
0.000827093
0.00996616
0.000618052
0.00984002
0.000486694
0.00973813
0.000397517
0.00965352
0.000333263
0.00958173
0.000284936
0.0095198
0.000247361
0.00946568
0.000217358
0.00941786
0.000192867
0.00937524
0.000172519
0.00933699
0.000155356
0.00930244
0.000140702
0.00927106
0.000128051
0.00924245
0.000117027
0.00921625
0.000107334
0.00919217
9.8764e-05
0.00916999
9.11305e-05
0.00914949
8.42939e-05
0.00913051
7.81337e-05
0.0091129
7.25687e-05
0.00909652
6.75146e-05
0.00908127
6.2909e-05
0.00906705
5.86848e-05
0.00905377
5.48223e-05
0.00904136
5.12671e-05
0.00902975
4.79877e-05
0.00901887
4.49441e-05
0.00900868
4.21307e-05
0.00899912
3.95128e-05
0.00899016
3.7074e-05
0.00898175
3.47771e-05
0.00897385
3.26472e-05
0.00896645
3.06481e-05
0.0089595
2.87723e-05
0.00895297
2.69931e-05
0.00894686
2.53327e-05
0.00894112
2.37639e-05
0.00893574
2.22843e-05
0.0089307
2.08581e-05
0.00892598
1.95372e-05
0.00892156
1.82828e-05
0.00891743
1.70963e-05
0.00891358
1.59496e-05
0.00890998
1.48827e-05
0.00890663
1.38649e-05
0.00890351
1.28997e-05
0.00890062
1.19444e-05
0.00889793
1.1073e-05
0.00889545
1.02381e-05
0.00889316
9.44599e-06
0.00889105
8.66238e-06
0.00888911
7.94365e-06
0.00888735
7.25194e-06
0.00888574
6.5946e-06
0.00888428
5.91976e-06
0.00888297
5.32245e-06
0.0088818
4.74492e-06
0.00888077
4.19698e-06
0.00887986
3.63805e-06
0.00887907
3.13802e-06
0.0088784
2.65205e-06
0.00887784
2.19067e-06
0.0088774
1.6938e-06
0.00887705
1.27304e-06
0.00887681
8.61763e-07
0.00887666
4.7269e-07
0.0088766
5.82479e-08
0.00887664
-3.0007e-07
0.00887676
-6.52422e-07
0.00887696
-9.85103e-07
0.00887724
-1.3656e-06
0.0088776
-1.66859e-06
0.00887804
-1.96868e-06
0.00887854
-2.25096e-06
0.00887911
-2.5662e-06
0.00887975
-2.82521e-06
0.00888045
-3.08374e-06
0.00888122
-3.32714e-06
0.00888204
-3.62653e-06
0.00888292
-3.84857e-06
0.00888386
-4.07191e-06
0.00888485
-4.2801e-06
0.00888589
-4.5267e-06
0.00888698
-4.71753e-06
0.00888812
-4.91099e-06
0.00888931
-5.09117e-06
0.00889054
-5.33127e-06
0.00889182
-5.49426e-06
0.00889314
-5.66041e-06
0.0088945
-5.81248e-06
0.00889589
-6.00327e-06
0.00889733
-6.14042e-06
0.0088988
-6.28103e-06
0.00890031
-6.4088e-06
0.00890184
-6.59147e-06
0.00890341
-6.70328e-06
0.00890501
-6.81785e-06
0.00890664
-6.91834e-06
0.00890829
-7.05184e-06
0.00890997
-7.13695e-06
0.00891167
-7.22344e-06
0.00891339
-7.29677e-06
0.00891514
-7.40941e-06
0.00891689
-7.46546e-06
0.00891867
-7.52056e-06
0.00892045
-7.56185e-06
0.00892225
-7.6197e-06
0.00892405
-7.64352e-06
0.00892586
-7.66362e-06
0.00892768
-7.67144e-06
0.0089295
-7.68708e-06
0.00893131
-7.6769e-06
0.00893313
-7.66019e-06
0.00893493
-7.62825e-06
0.00893673
-7.5896e-06
0.00893849
-7.39481e-06
0.00894025
-7.42942e-06
-3.88237e-06
0.0141222
0.00812849
0.0135876
0.00361341
0.013076
0.00237579
0.0126916
0.00157367
0.0124125
0.00110615
0.0122038
0.000826786
0.0120413
0.000649174
0.0119104
0.000528418
0.0118021
0.00044162
0.0117104
0.000376565
0.0116316
0.000326167
0.0115629
0.000286058
0.0115024
0.000253419
0.0114485
0.000226374
0.0114002
0.000203618
0.0113567
0.000184228
0.0113172
0.00016752
0.0112813
0.000152985
0.0112484
0.000140226
0.0112182
0.000128958
0.0111904
0.000118933
0.0111647
0.000109964
0.011141
0.000101893
0.0111189
9.46058e-05
0.0110984
8.79934e-05
0.0110794
8.19721e-05
0.0110616
7.64559e-05
0.011045
7.14118e-05
0.0110295
6.6771e-05
0.011015
6.24917e-05
0.0110014
5.85233e-05
0.0109887
5.48535e-05
0.0109768
5.14395e-05
0.0109656
4.82592e-05
0.0109551
4.52686e-05
0.0109453
4.24914e-05
0.010936
3.98852e-05
0.0109274
3.74401e-05
0.0109192
3.51245e-05
0.0109116
3.29606e-05
0.0109044
3.09169e-05
0.0108977
2.89897e-05
0.0108915
2.71389e-05
0.0108856
2.5419e-05
0.0108801
2.37865e-05
0.0108749
2.22426e-05
0.0108701
2.07555e-05
0.0108656
1.93676e-05
0.0108614
1.80444e-05
0.0108576
1.67895e-05
0.0108539
1.55562e-05
0.0108506
1.44233e-05
0.0108475
1.33386e-05
0.0108446
1.23092e-05
0.010842
1.12971e-05
0.0108396
1.0363e-05
0.0108374
9.46449e-06
0.0108353
8.61043e-06
0.0108335
7.74413e-06
0.0108319
6.96753e-06
0.0108304
6.21726e-06
0.0108291
5.50492e-06
0.0108279
4.78567e-06
0.0108269
4.13511e-06
0.0108261
3.50348e-06
0.0108254
2.90327e-06
0.0108248
2.26918e-06
0.0108244
1.72103e-06
0.010824
1.18597e-06
0.0108238
6.79023e-07
0.0108237
1.47831e-07
0.0108238
-3.19772e-07
0.0108239
-7.79053e-07
0.0108241
-1.21331e-06
0.0108244
-1.69586e-06
0.0108249
-2.09213e-06
0.0108254
-2.48363e-06
0.010826
-2.85276e-06
0.0108267
-3.25531e-06
0.0108274
-3.59471e-06
0.0108283
-3.93248e-06
0.0108292
-4.25125e-06
0.0108302
-4.6281e-06
0.0108313
-4.91981e-06
0.0108324
-5.21211e-06
0.0108336
-5.48559e-06
0.0108349
-5.79898e-06
0.0108362
-6.05037e-06
0.0108376
-6.30401e-06
0.0108391
-6.54114e-06
0.0108406
-6.84096e-06
0.0108422
-7.05638e-06
0.0108438
-7.2747e-06
0.0108454
-7.47565e-06
0.0108472
-7.7171e-06
0.0108489
-7.89904e-06
0.0108507
-8.08422e-06
0.0108526
-8.25351e-06
0.0108545
-8.48018e-06
0.0108564
-8.62918e-06
0.0108583
-8.78051e-06
0.0108603
-8.91447e-06
0.0108624
-9.08259e-06
0.0108644
-9.19676e-06
0.0108665
-9.31154e-06
0.0108686
-9.40989e-06
0.0108708
-9.54858e-06
0.0108729
-9.62465e-06
0.0108751
-9.69847e-06
0.0108773
-9.755e-06
0.0108795
-9.82747e-06
0.0108817
-9.86118e-06
0.010884
-9.88937e-06
0.0108862
-9.90185e-06
0.0108884
-9.9202e-06
0.0108907
-9.90899e-06
0.0108929
-9.88906e-06
0.0108951
-9.84931e-06
0.0108973
-9.80041e-06
0.0108995
-9.55272e-06
0.0109017
-9.6014e-06
-5.02371e-06
0.0170157
0.008438
0.0165448
0.0040843
0.0160001
0.00292049
0.0155424
0.00203133
0.0151931
0.00145546
0.0149266
0.00109325
0.0147179
0.000857865
0.0145497
0.000696624
0.0144107
0.000580619
0.0142935
0.00049382
0.0141929
0.000426753
0.0141054
0.000373532
0.0140285
0.000330347
0.0139602
0.000294657
0.0138991
0.000264701
0.0138441
0.000239232
0.0137943
0.000217328
0.013749
0.000198307
0.0137076
0.000181639
0.0136696
0.000166937
0.0136347
0.000153876
0.0136024
0.000142204
0.0135726
0.000131712
0.013545
0.000122249
0.0135193
0.00011367
0.0134954
0.000105864
0.0134731
9.87197e-05
0.0134523
9.21887e-05
0.0134329
8.6183e-05
0.0134148
8.06473e-05
0.0133978
7.55173e-05
0.0133819
7.07727e-05
0.0133669
6.63597e-05
0.0133529
6.22496e-05
0.0133398
5.83892e-05
0.0133275
5.48007e-05
0.013316
5.14339e-05
0.0133051
4.82756e-05
0.013295
4.52883e-05
0.0132854
4.24944e-05
0.0132765
3.98567e-05
0.0132681
3.73699e-05
0.0132603
3.49883e-05
0.0132529
3.277e-05
0.013246
3.06655e-05
0.0132396
2.86756e-05
0.0132336
2.67637e-05
0.013228
2.49758e-05
0.0132227
2.32719e-05
0.0132179
2.16565e-05
0.0132134
2.00768e-05
0.0132092
1.86185e-05
0.0132053
1.7223e-05
0.0132017
1.58986e-05
0.0131984
1.46023e-05
0.0131953
1.34003e-05
0.0131926
1.22451e-05
0.01319
1.11466e-05
0.0131877
1.00423e-05
0.0131857
9.04296e-06
0.0131838
8.07827e-06
0.0131821
7.16181e-06
0.0131807
6.24346e-06
0.0131794
5.40593e-06
0.0131783
4.59359e-06
0.0131774
3.82112e-06
0.0131766
3.01635e-06
0.0131761
2.31e-06
0.0131756
1.62136e-06
0.0131753
9.68051e-07
0.0131752
2.91868e-07
0.0131752
-3.11475e-07
0.0131753
-9.03456e-07
0.0131756
-1.46393e-06
0.0131759
-2.0737e-06
0.0131764
-2.586e-06
0.013177
-3.09095e-06
0.0131778
-3.56802e-06
0.0131786
-4.07915e-06
0.0131795
-4.51855e-06
0.0131805
-4.95458e-06
0.0131816
-5.36693e-06
0.0131829
-5.84046e-06
0.0131842
-6.21882e-06
0.0131855
-6.59663e-06
0.013187
-6.95125e-06
0.0131886
-7.34775e-06
0.0131902
-7.67445e-06
0.0131919
-8.00267e-06
0.0131936
-8.31046e-06
0.0131955
-8.68494e-06
0.0131974
-8.96555e-06
0.0131994
-9.24849e-06
0.0132014
-9.51016e-06
0.0132035
-9.81463e-06
0.0132057
-1.00523e-05
0.0132079
-1.02926e-05
0.0132101
-1.05134e-05
0.0132124
-1.07951e-05
0.0132148
-1.09903e-05
0.0132172
-1.11871e-05
0.0132197
-1.13627e-05
0.0132222
-1.15739e-05
0.0132247
-1.17242e-05
0.0132273
-1.18739e-05
0.0132298
-1.20033e-05
0.0132325
-1.21748e-05
0.0132351
-1.22758e-05
0.0132378
-1.23727e-05
0.0132405
-1.24483e-05
0.0132432
-1.25392e-05
0.0132459
-1.25853e-05
0.0132487
-1.26234e-05
0.0132514
-1.26417e-05
0.0132542
-1.26646e-05
0.0132569
-1.26523e-05
0.0132596
-1.26279e-05
0.0132624
-1.25787e-05
0.0132651
-1.25183e-05
0.0132678
-1.22072e-05
0.0132704
-1.2258e-05
-6.40442e-06
0.0204181
0.00863698
0.020045
0.00445732
0.0195159
0.00344958
0.0190009
0.00254639
0.0185768
0.00187951
0.018242
0.0014281
0.0179759
0.00112394
0.0177603
0.0009122
0.017582
0.000758939
0.0174317
0.00064411
0.017303
0.000555464
0.0171913
0.000485251
0.0170932
0.000428406
0.0170063
0.000381538
0.0169287
0.000342289
0.016859
0.00030899
0.0167959
0.000280409
0.0167386
0.000255635
0.0166863
0.000233964
0.0166383
0.000214877
0.0165942
0.000197944
0.0165536
0.000182832
0.0165161
0.000169265
0.0164813
0.00015704
0.016449
0.000145968
0.0164189
0.000135903
0.016391
0.000126702
0.0163648
0.000118293
0.0163405
0.000110565
0.0163177
0.000103445
0.0162963
9.6852e-05
0.0162763
9.07538e-05
0.0162576
8.50836e-05
0.0162401
7.98037e-05
0.0162236
7.48504e-05
0.0162082
7.02421e-05
0.0161937
6.59196e-05
0.0161801
6.18656e-05
0.0161673
5.80357e-05
0.0161554
5.44509e-05
0.0161442
5.10679e-05
0.0161337
4.78795e-05
0.0161238
4.48338e-05
0.0161146
4.19909e-05
0.016106
3.92952e-05
0.0160979
3.6747e-05
0.0160903
3.43048e-05
0.0160833
3.20163e-05
0.0160767
2.98367e-05
0.0160706
2.77705e-05
0.0160649
2.57599e-05
0.0160597
2.38951e-05
0.0160548
2.21117e-05
0.0160503
2.0419e-05
0.0160461
1.87693e-05
0.0160423
1.72331e-05
0.0160387
1.57575e-05
0.0160355
1.43543e-05
0.0160326
1.29552e-05
0.01603
1.1678e-05
0.0160276
1.0446e-05
0.0160255
9.27498e-06
0.0160236
8.10976e-06