/*--------------------------------*- C++ -*----------------------------------*\
  =========                 |
  \\      /  F ield         | OpenFOAM: The Open Source CFD Toolbox
   \\    /   O peration     | Website:  https://openfoam.org
    \\  /    A nd           | Version:  8
     \\/     M anipulation  |
\*---------------------------------------------------------------------------*/
FoamFile
{
    version     2.0;
    format      ascii;
    class       volVectorField;
    location    "550";
    object      U;
}
// * * * * * * * * * * * * * * * * * * * * * * * * * * * * * * * * * * * * * //

dimensions      [0 1 -1 0 0 0 0];

internalField   nonuniform List<vector> 
7320
(
(22.6429 -0.848127 0)
(20.2991 -0.0156863 0)
(19.4729 0.000192365 0)
(18.9932 0.000303696 0)
(18.6577 0.000223799 0)
(18.4025 0.000174251 0)
(18.1985 0.000141558 0)
(18.0298 0.000118295 0)
(17.8872 0.000100878 0)
(17.7644 8.73842e-05 0)
(17.6573 7.66298e-05 0)
(17.5629 6.78862e-05 0)
(17.4788 6.06388e-05 0)
(17.4034 5.45407e-05 0)
(17.3353 4.93326e-05 0)
(17.2736 4.48524e-05 0)
(17.2174 4.0955e-05 0)
(17.1659 3.75375e-05 0)
(17.1186 3.44917e-05 0)
(17.0751 3.18031e-05 0)
(17.035 2.93995e-05 0)
(16.9978 2.724e-05 0)
(16.9633 2.5269e-05 0)
(16.9313 2.3497e-05 0)
(16.9015 2.18837e-05 0)
(16.8737 2.04117e-05 0)
(16.8478 1.90199e-05 0)
(16.8236 1.77764e-05 0)
(16.8009 1.6633e-05 0)
(16.7797 1.55801e-05 0)
(16.7599 1.45744e-05 0)
(16.7413 1.36685e-05 0)
(16.7239 1.28268e-05 0)
(16.7075 1.20463e-05 0)
(16.6922 1.12567e-05 0)
(16.6778 1.05723e-05 0)
(16.6642 9.93333e-06 0)
(16.6516 9.33838e-06 0)
(16.6396 8.73393e-06 0)
(16.6285 8.20594e-06 0)
(16.618 7.70772e-06 0)
(16.6081 7.24248e-06 0)
(16.5989 6.71979e-06 0)
(16.5903 6.30086e-06 0)
(16.5822 5.90529e-06 0)
(16.5747 5.53666e-06 0)
(16.5676 5.1266e-06 0)
(16.5611 4.79355e-06 0)
(16.555 4.47493e-06 0)
(16.5493 4.17874e-06 0)
(16.544 3.7913e-06 0)
(16.5391 3.52138e-06 0)
(16.5346 3.26326e-06 0)
(16.5305 3.02556e-06 0)
(16.5267 2.72171e-06 0)
(16.5232 2.50564e-06 0)
(16.52 2.29482e-06 0)
(16.5171 2.10228e-06 0)
(16.5145 1.78968e-06 0)
(16.5122 1.61407e-06 0)
(16.5102 1.44239e-06 0)
(16.5084 1.28848e-06 0)
(16.5068 1.04995e-06 0)
(16.5055 9.10468e-07 0)
(16.5043 7.69548e-07 0)
(16.5034 6.45178e-07 0)
(16.5027 3.79876e-07 0)
(16.5022 2.67742e-07 0)
(16.5019 1.5312e-07 0)
(16.5018 5.48534e-08 0)
(16.5018 -1.43711e-07 0)
(16.502 -2.31434e-07 0)
(16.5024 -3.25731e-07 0)
(16.5029 -4.04225e-07 0)
(16.5036 -6.40423e-07 0)
(16.5044 -7.09006e-07 0)
(16.5054 -7.85111e-07 0)
(16.5064 -8.45109e-07 0)
(16.5077 -1.01378e-06 0)
(16.509 -1.06573e-06 0)
(16.5104 -1.12851e-06 0)
(16.512 -1.17601e-06 0)
(16.5137 -1.38936e-06 0)
(16.5155 -1.42785e-06 0)
(16.5174 -1.47791e-06 0)
(16.5193 -1.51221e-06 0)
(16.5214 -1.66066e-06 0)
(16.5236 -1.68792e-06 0)
(16.5259 -1.72899e-06 0)
(16.5282 -1.75496e-06 0)
(16.5306 -1.94965e-06 0)
(16.5331 -1.96647e-06 0)
(16.5357 -1.99742e-06 0)
(16.5384 -2.01278e-06 0)
(16.5411 -2.13884e-06 0)
(16.5439 -2.14744e-06 0)
(16.5468 -2.17133e-06 0)
(16.5497 -2.18056e-06 0)
(16.5527 -2.34305e-06 0)
(16.5557 -2.34344e-06 0)
(16.5588 -2.35899e-06 0)
(16.562 -2.35991e-06 0)
(16.5652 -2.45751e-06 0)
(16.5684 -2.45233e-06 0)
(16.5717 -2.46144e-06 0)
(16.575 -2.45788e-06 0)
(16.5783 -2.56954e-06 0)
(16.5817 -2.55862e-06 0)
(16.5851 -2.56011e-06 0)
(16.5885 -2.5506e-06 0)
(16.5919 -2.59981e-06 0)
(16.5954 -2.5861e-06 0)
(16.5988 -2.58127e-06 0)
(16.6023 -2.56883e-06 0)
(16.6057 -2.59475e-06 0)
(16.6092 -2.57987e-06 0)
(16.6126 -2.56976e-06 0)
(16.6161 -2.55363e-06 0)
(16.6195 -2.53377e-06 0)
(16.6229 -2.47304e-06 0)
(16.6261 -2.47944e-06 0)
(16.6295 -1.3477e-06 0)
(26.6037 0.16714 0)
(23.9491 0.00743099 0)
(22.9106 0.00132354 0)
(22.324 0.000761349 0)
(21.922 0.000547508 0)
(21.6197 0.000424652 0)
(21.3794 0.000344284 0)
(21.1815 0.000287357 0)
(21.0145 0.000244854 0)
(20.8711 0.000211981 0)
(20.7461 0.000185831 0)
(20.636 0.00016458 0)
(20.5381 0.000146977 0)
(20.4503 0.000132171 0)
(20.3712 0.000119542 0)
(20.2994 0.000108673 0)
(20.2341 9.92197e-05 0)
(20.1743 9.09299e-05 0)
(20.1194 8.35699e-05 0)
(20.0688 7.70532e-05 0)
(20.0222 7.12246e-05 0)
(19.979 6.59851e-05 0)
(19.939 6.12242e-05 0)
(19.9018 5.69275e-05 0)
(19.8672 5.3014e-05 0)
(19.835 4.94401e-05 0)
(19.8049 4.61061e-05 0)
(19.7768 4.30924e-05 0)
(19.7506 4.03166e-05 0)
(19.726 3.77562e-05 0)
(19.703 3.5343e-05 0)
(19.6814 3.31423e-05 0)
(19.6611 3.10952e-05 0)
(19.6422 2.91918e-05 0)
(19.6243 2.73296e-05 0)
(19.6076 2.56653e-05 0)
(19.5919 2.41062e-05 0)
(19.5772 2.26481e-05 0)
(19.5633 2.12133e-05 0)
(19.5504 1.99215e-05 0)
(19.5382 1.87005e-05 0)
(19.5267 1.75537e-05 0)
(19.516 1.63521e-05 0)
(19.506 1.5325e-05 0)
(19.4966 1.43505e-05 0)
(19.4878 1.34347e-05 0)
(19.4797 1.24794e-05 0)
(19.472 1.16544e-05 0)
(19.4649 1.08649e-05 0)
(19.4583 1.01228e-05 0)
(19.4521 9.26495e-06 0)
(19.4465 8.5935e-06 0)
(19.4412 7.94899e-06 0)
(19.4364 7.34576e-06 0)
(19.4319 6.65899e-06 0)
(19.4278 6.11234e-06 0)
(19.4241 5.58149e-06 0)
(19.4208 5.0861e-06 0)
(19.4177 4.42643e-06 0)
(19.415 3.9778e-06 0)
(19.4126 3.53987e-06 0)
(19.4105 3.13522e-06 0)
(19.4086 2.61513e-06 0)
(19.407 2.24873e-06 0)
(19.4057 1.88477e-06 0)
(19.4046 1.55064e-06 0)
(19.4038 1.01694e-06 0)
(19.4032 7.1644e-07 0)
(19.4027 4.14637e-07 0)
(19.4025 1.41825e-07 0)
(19.4025 -2.73151e-07 0)
(19.4027 -5.18634e-07 0)
(19.4031 -7.71162e-07 0)
(19.4037 -9.96782e-07 0)
(19.4044 -1.4503e-06 0)
(19.4053 -1.64961e-06 0)
(19.4064 -1.85923e-06 0)
(19.4076 -2.04162e-06 0)
(19.4089 -2.38115e-06 0)
(19.4104 -2.54268e-06 0)
(19.412 -2.71895e-06 0)
(19.4138 -2.87025e-06 0)
(19.4157 -3.26507e-06 0)
(19.4177 -3.39447e-06 0)
(19.4199 -3.54077e-06 0)
(19.4221 -3.66098e-06 0)
(19.4245 -3.94901e-06 0)
(19.4269 -4.05212e-06 0)
(19.4295 -4.17493e-06 0)
(19.4322 -4.27344e-06 0)
(19.4349 -4.62306e-06 0)
(19.4378 -4.70155e-06 0)
(19.4407 -4.80074e-06 0)
(19.4438 -4.87409e-06 0)
(19.4469 -5.11235e-06 0)
(19.4501 -5.17027e-06 0)
(19.4533 -5.25011e-06 0)
(19.4567 -5.30601e-06 0)
(19.4601 -5.59279e-06 0)
(19.4636 -5.63036e-06 0)
(19.4671 -5.68954e-06 0)
(19.4707 -5.72371e-06 0)
(19.4743 -5.90346e-06 0)
(19.478 -5.92353e-06 0)
(19.4818 -5.96336e-06 0)
(19.4856 -5.98143e-06 0)
(19.4894 -6.17499e-06 0)
(19.4932 -6.17713e-06 0)
(19.4971 -6.19545e-06 0)
(19.501 -6.19353e-06 0)
(19.505 -6.28052e-06 0)
(19.5089 -6.26696e-06 0)
(19.5129 -6.26374e-06 0)
(19.5169 -6.24597e-06 0)
(19.5208 -6.28801e-06 0)
(19.5248 -6.26142e-06 0)
(19.5288 -6.23781e-06 0)
(19.5327 -6.2012e-06 0)
(19.5366 -6.15953e-06 0)
(19.5405 -6.00391e-06 0)
(19.5442 -6.00455e-06 0)
(19.5482 -3.16828e-06 0)
(28.9497 0.0984766 0)
(26.1304 0.00639103 0)
(24.9213 0.00233808 0)
(24.2467 0.00142132 0)
(23.7932 0.00101459 0)
(23.4561 0.000782702 0)
(23.1903 0.000632561 0)
(22.9724 0.000526911 0)
(22.7892 0.000448361 0)
(22.6322 0.000387781 0)
(22.4957 0.000339699 0)
(22.3756 0.00030068 0)
(22.2689 0.000268396 0)
(22.1734 0.000241267 0)
(22.0873 0.000218154 0)
(22.0093 0.000198269 0)
(21.9383 0.000180982 0)
(21.8733 0.000165828 0)
(21.8137 0.000152399 0)
(21.7589 0.000140497 0)
(21.7083 0.000129853 0)
(21.6615 0.000120286 0)
(21.6181 0.000111609 0)
(21.5778 0.000103768 0)
(21.5403 9.66271e-05 0)
(21.5054 9.01052e-05 0)
(21.4728 8.40543e-05 0)
(21.4423 7.85591e-05 0)
(21.4139 7.3496e-05 0)
(21.3872 6.88238e-05 0)
(21.3623 6.44438e-05 0)
(21.3389 6.04295e-05 0)
(21.317 5.66941e-05 0)
(21.2964 5.32179e-05 0)
(21.2771 4.9863e-05 0)
(21.259 4.68253e-05 0)
(21.2419 4.39767e-05 0)
(21.226 4.13087e-05 0)
(21.211 3.87173e-05 0)
(21.1969 3.63538e-05 0)
(21.1837 3.41195e-05 0)
(21.1713 3.20165e-05 0)
(21.1597 2.98761e-05 0)
(21.1488 2.79946e-05 0)
(21.1386 2.62078e-05 0)
(21.1291 2.45235e-05 0)
(21.1202 2.28126e-05 0)
(21.1119 2.12959e-05 0)
(21.1042 1.98454e-05 0)
(21.097 1.84764e-05 0)
(21.0903 1.69759e-05 0)
(21.0842 1.57388e-05 0)
(21.0785 1.45512e-05 0)
(21.0732 1.34333e-05 0)
(21.0683 1.22211e-05 0)
(21.0639 1.12079e-05 0)
(21.0599 1.02268e-05 0)
(21.0562 9.30433e-06 0)
(21.0529 8.17857e-06 0)
(21.0499 7.3432e-06 0)
(21.0472 6.52992e-06 0)
(21.0449 5.77051e-06 0)
(21.0429 4.86875e-06 0)
(21.0411 4.17988e-06 0)
(21.0396 3.50079e-06 0)
(21.0384 2.8689e-06 0)
(21.0375 1.98215e-06 0)
(21.0367 1.41217e-06 0)
(21.0363 8.45009e-07 0)
(21.036 3.23191e-07 0)
(21.036 -3.80483e-07 0)
(21.0361 -8.53208e-07 0)
(21.0365 -1.33115e-06 0)
(21.037 -1.76796e-06 0)
(21.0378 -2.50042e-06 0)
(21.0387 -2.88987e-06 0)
(21.0398 -3.29051e-06 0)
(21.0411 -3.65018e-06 0)
(21.0425 -4.2138e-06 0)
(21.044 -4.53605e-06 0)
(21.0458 -4.87572e-06 0)
(21.0476 -5.17852e-06 0)
(21.0496 -5.80046e-06 0)
(21.0517 -6.06532e-06 0)
(21.054 -6.35122e-06 0)
(21.0564 -6.59868e-06 0)
(21.0589 -7.06622e-06 0)
(21.0615 -7.28385e-06 0)
(21.0642 -7.52637e-06 0)
(21.0671 -7.73366e-06 0)
(21.07 -8.27212e-06 0)
(21.073 -8.44608e-06 0)
(21.0762 -8.64644e-06 0)
(21.0794 -8.809e-06 0)
(21.0827 -9.18911e-06 0)
(21.0861 -9.32531e-06 0)
(21.0896 -9.48943e-06 0)
(21.0932 -9.6188e-06 0)
(21.0968 -1.00538e-05 0)
(21.1005 -1.01529e-05 0)
(21.1043 -1.02791e-05 0)
(21.1081 -1.03684e-05 0)
(21.112 -1.06499e-05 0)
(21.1159 -1.07144e-05 0)
(21.1199 -1.08032e-05 0)
(21.124 -1.08595e-05 0)
(21.1281 -1.11481e-05 0)
(21.1322 -1.11767e-05 0)
(21.1364 -1.1224e-05 0)
(21.1406 -1.124e-05 0)
(21.1448 -1.13724e-05 0)
(21.149 -1.13659e-05 0)
(21.1533 -1.13699e-05 0)
(21.1575 -1.13503e-05 0)
(21.1618 -1.14079e-05 0)
(21.166 -1.1369e-05 0)
(21.1703 -1.13306e-05 0)
(21.1745 -1.12686e-05 0)
(21.1787 -1.11975e-05 0)
(21.1829 -1.09091e-05 0)
(21.1869 -1.09299e-05 0)
(21.1911 -5.74419e-06 0)
(30.6449 0.0459571 0)
(27.8131 0.00831861 0)
(26.4561 0.00392312 0)
(25.6943 0.00237907 0)
(25.1892 0.00168078 0)
(24.8184 0.00128801 0)
(24.5284 0.0010366 0)
(24.2922 0.000861087 0)
(24.0944 0.000731306 0)
(23.9254 0.000631593 0)
(23.7788 0.000552688 0)
(23.6501 0.000488786 0)
(23.5359 0.000436004 0)
(23.4338 0.000391713 0)
(23.3419 0.000354027 0)
(23.2586 0.00032163 0)
(23.1829 0.000293488 0)
(23.1137 0.000268835 0)
(23.0503 0.000247021 0)
(22.9919 0.000227681 0)
(22.9381 0.000210392 0)
(22.8883 0.000194858 0)
(22.8421 0.00018079 0)
(22.7993 0.000168068 0)
(22.7594 0.000156486 0)
(22.7223 0.000145909 0)
(22.6877 0.000136131 0)
(22.6553 0.000127225 0)
(22.6251 0.00011902 0)
(22.5968 0.000111447 0)
(22.5703 0.000104372 0)
(22.5454 9.78672e-05 0)
(22.5222 9.18139e-05 0)
(22.5003 8.61779e-05 0)
(22.4798 8.07853e-05 0)
(22.4605 7.58607e-05 0)
(22.4424 7.12411e-05 0)
(22.4255 6.69107e-05 0)
(22.4095 6.27393e-05 0)
(22.3946 5.89027e-05 0)
(22.3805 5.52761e-05 0)
(22.3674 5.18588e-05 0)
(22.355 4.84458e-05 0)
(22.3435 4.53893e-05 0)
(22.3327 4.24861e-05 0)
(22.3225 3.97448e-05 0)
(22.3131 3.7008e-05 0)
(22.3043 3.45393e-05 0)
(22.2961 3.21802e-05 0)
(22.2884 2.99486e-05 0)
(22.2813 2.75874e-05 0)
(22.2747 2.55707e-05 0)
(22.2687 2.36363e-05 0)
(22.263 2.18092e-05 0)
(22.2579 1.98901e-05 0)
(22.2532 1.8233e-05 0)
(22.2488 1.6632e-05 0)
(22.2449 1.51199e-05 0)
(22.2414 1.33806e-05 0)
(22.2382 1.20098e-05 0)
(22.2353 1.06788e-05 0)
(22.2328 9.42804e-06 0)
(22.2306 8.01907e-06 0)
(22.2287 6.88207e-06 0)
(22.2271 5.76738e-06 0)
(22.2258 4.72172e-06 0)
(22.2247 3.3797e-06 0)
(22.2239 2.4333e-06 0)
(22.2234 1.49822e-06 0)
(22.223 6.28433e-07 0)
(22.2229 -4.53229e-07 0)
(22.2231 -1.24549e-06 0)
(22.2234 -2.03738e-06 0)
(22.224 -2.7709e-06 0)
(22.2247 -3.85443e-06 0)
(22.2256 -4.51308e-06 0)
(22.2267 -5.18072e-06 0)
(22.228 -5.79143e-06 0)
(22.2295 -6.64368e-06 0)
(22.2311 -7.19532e-06 0)
(22.2328 -7.76449e-06 0)
(22.2348 -8.28324e-06 0)
(22.2368 -9.18395e-06 0)
(22.239 -9.64421e-06 0)
(22.2414 -1.01273e-05 0)
(22.2439 -1.05582e-05 0)
(22.2465 -1.12528e-05 0)
(22.2492 -1.16375e-05 0)
(22.252 -1.20502e-05 0)
(22.255 -1.24157e-05 0)
(22.258 -1.31801e-05 0)
(22.2612 -1.34955e-05 0)
(22.2645 -1.3841e-05 0)
(22.2678 -1.41357e-05 0)
(22.2713 -1.46924e-05 0)
(22.2748 -1.49466e-05 0)
(22.2785 -1.52329e-05 0)
(22.2822 -1.54726e-05 0)
(22.286 -1.60815e-05 0)
(22.2899 -1.62755e-05 0)
(22.2938 -1.65002e-05 0)
(22.2979 -1.66747e-05 0)
(22.3019 -1.70808e-05 0)
(22.3061 -1.72163e-05 0)
(22.3103 -1.73786e-05 0)
(22.3145 -1.74959e-05 0)
(22.3188 -1.78933e-05 0)
(22.3232 -1.79671e-05 0)
(22.3275 -1.80597e-05 0)
(22.3319 -1.8108e-05 0)
(22.3364 -1.82946e-05 0)
(22.3408 -1.83048e-05 0)
(22.3453 -1.83232e-05 0)
(22.3497 -1.83065e-05 0)
(22.3542 -1.83798e-05 0)
(22.3587 -1.83284e-05 0)
(22.3632 -1.82721e-05 0)
(22.3676 -1.8178e-05 0)
(22.3721 -1.80698e-05 0)
(22.3765 -1.75985e-05 0)
(22.3807 -1.76523e-05 0)
(22.3851 -9.25402e-06 0)
(31.9342 0.0469921 0)
(29.2283 0.0125097 0)
(27.7543 0.00606042 0)
(26.9065 0.00365715 0)
(26.348 0.00255939 0)
(25.9421 0.00194749 0)
(25.6273 0.00155989 0)
(25.3724 0.00129155 0)
(25.1601 0.00109433 0)
(24.9793 0.000943474 0)
(24.8229 0.000824506 0)
(24.6858 0.000728404 0)
(24.5645 0.000649191 0)
(24.4562 0.000582832 0)
(24.3587 0.000526458 0)
(24.2706 0.000478045 0)
(24.1905 0.000436035 0)
(24.1174 0.000399263 0)
(24.0504 0.00036677 0)
(23.9888 0.000337965 0)
(23.9319 0.00031223 0)
(23.8794 0.000289117 0)
(23.8308 0.000268211 0)
(23.7856 0.000249301 0)
(23.7436 0.000232092 0)
(23.7045 0.000216382 0)
(23.668 0.000201893 0)
(23.6339 0.000188674 0)
(23.6021 0.000176497 0)
(23.5723 0.000165258 0)
(23.5444 0.000154781 0)
(23.5182 0.000145129 0)
(23.4937 0.000136147 0)
(23.4707 0.000127782 0)
(23.4491 0.000119823 0)
(23.4288 0.000112513 0)
(23.4098 0.000105656 0)
(23.3919 9.92245e-05 0)
(23.3751 9.30625e-05 0)
(23.3594 8.73643e-05 0)
(23.3446 8.19786e-05 0)
(23.3307 7.69009e-05 0)
(23.3178 7.18919e-05 0)
(23.3056 6.73505e-05 0)
(23.2942 6.30377e-05 0)
(23.2836 5.89617e-05 0)
(23.2736 5.49379e-05 0)
(23.2643 5.12669e-05 0)
(23.2557 4.77611e-05 0)
(23.2476 4.44407e-05 0)
(23.2401 4.10085e-05 0)
(23.2332 3.80073e-05 0)
(23.2268 3.51305e-05 0)
(23.2209 3.24081e-05 0)
(23.2154 2.96081e-05 0)
(23.2104 2.71374e-05 0)
(23.2059 2.47542e-05 0)
(23.2017 2.24977e-05 0)
(23.1979 2.00028e-05 0)
(23.1946 1.79546e-05 0)
(23.1915 1.59701e-05 0)
(23.1889 1.40979e-05 0)
(23.1865 1.20612e-05 0)
(23.1845 1.03565e-05 0)
(23.1828 8.69128e-06 0)
(23.1813 7.1217e-06 0)
(23.1802 5.22558e-06 0)
(23.1793 3.80104e-06 0)
(23.1787 2.40019e-06 0)
(23.1783 1.08855e-06 0)
(23.1781 -4.57104e-07 0)
(23.1782 -1.65672e-06 0)
(23.1786 -2.84737e-06 0)
(23.1791 -3.95883e-06 0)
(23.1798 -5.4638e-06 0)
(23.1807 -6.46695e-06 0)
(23.1819 -7.47425e-06 0)
(23.1832 -8.40597e-06 0)
(23.1846 -9.60953e-06 0)
(23.1863 -1.04559e-05 0)
(23.1881 -1.1318e-05 0)
(23.1901 -1.21138e-05 0)
(23.1922 -1.33443e-05 0)
(23.1944 -1.40571e-05 0)
(23.1969 -1.47928e-05 0)
(23.1994 -1.54607e-05 0)
(23.2021 -1.64288e-05 0)
(23.2049 -1.70307e-05 0)
(23.2078 -1.76625e-05 0)
(23.2109 -1.82332e-05 0)
(23.2141 -1.92607e-05 0)
(23.2173 -1.97615e-05 0)
(23.2207 -2.02946e-05 0)
(23.2242 -2.07625e-05 0)
(23.2278 -2.15303e-05 0)
(23.2315 -2.19408e-05 0)
(23.2353 -2.23861e-05 0)
(23.2391 -2.27714e-05 0)
(23.2431 -2.35802e-05 0)
(23.2471 -2.39015e-05 0)
(23.2512 -2.42553e-05 0)
(23.2554 -2.45442e-05 0)
(23.2596 -2.50978e-05 0)
(23.2639 -2.53302e-05 0)
(23.2683 -2.55901e-05 0)
(23.2727 -2.57908e-05 0)
(23.2772 -2.63115e-05 0)
(23.2817 -2.64489e-05 0)
(23.2862 -2.66032e-05 0)
(23.2908 -2.6698e-05 0)
(23.2954 -2.69481e-05 0)
(23.3001 -2.69851e-05 0)
(23.3047 -2.70256e-05 0)
(23.3094 -2.70172e-05 0)
(23.3141 -2.71071e-05 0)
(23.3187 -2.70436e-05 0)
(23.3234 -2.69676e-05 0)
(23.328 -2.6836e-05 0)
(23.3327 -2.66838e-05 0)
(23.3373 -2.59844e-05 0)
(23.3417 -2.60891e-05 0)
(23.3463 -1.36601e-05 0)
(32.9266 0.0603716 0)
(30.4695 0.0174491 0)
(28.9196 0.00880603 0)
(27.99 0.00533472 0)
(27.3757 0.0037068 0)
(26.9322 0.00280122 0)
(26.5909 0.00223223 0)
(26.3162 0.00184143 0)
(26.0885 0.00155604 0)
(25.8954 0.00133878 0)
(25.7288 0.00116812 0)
(25.5832 0.00103066 0)
(25.4546 0.00091763 0)
(25.3399 0.000823134 0)
(25.2369 0.000742997 0)
(25.1439 0.00067427 0)
(25.0594 0.000614703 0)
(24.9824 0.000562619 0)
(24.9118 0.000516655 0)
(24.847 0.000475925 0)
(24.7873 0.000439562 0)
(24.7321 0.000406924 0)
(24.6809 0.000377435 0)
(24.6335 0.000350763 0)
(24.5894 0.000326502 0)
(24.5483 0.000304363 0)
(24.51 0.000283984 0)
(24.4743 0.000265369 0)
(24.4409 0.000248226 0)
(24.4096 0.000232405 0)
(24.3803 0.00021768 0)
(24.3529 0.000204095 0)
(24.3272 0.000191454 0)
(24.303 0.00017968 0)
(24.2804 0.00016852 0)
(24.2591 0.000158231 0)
(24.2392 0.000148578 0)
(24.2205 0.000139523 0)
(24.2029 0.000130879 0)
(24.1864 0.000122856 0)
(24.1709 0.000115274 0)
(24.1564 0.000108124 0)
(24.1428 0.000101131 0)
(24.13 9.47369e-05 0)
(24.1181 8.86658e-05 0)
(24.1069 8.29254e-05 0)
(24.0965 7.73034e-05 0)
(24.0868 7.21335e-05 0)
(24.0777 6.71992e-05 0)
(24.0693 6.25226e-05 0)
(24.0614 5.77675e-05 0)
(24.0541 5.35395e-05 0)
(24.0474 4.94897e-05 0)
(24.0412 4.56526e-05 0)
(24.0355 4.1764e-05 0)
(24.0302 3.82799e-05 0)
(24.0254 3.49235e-05 0)
(24.021 3.17404e-05 0)
(24.0171 2.83188e-05 0)
(24.0135 2.54264e-05 0)
(24.0103 2.26286e-05 0)
(24.0075 1.99827e-05 0)
(24.005 1.71738e-05 0)
(24.0028 1.47612e-05 0)
(24.001 1.24106e-05 0)
(23.9995 1.01882e-05 0)
(23.9982 7.61752e-06 0)
(23.9973 5.59561e-06 0)
(23.9966 3.61422e-06 0)
(23.9961 1.75097e-06 0)
(23.996 -3.62437e-07 0)
(23.996 -2.07209e-06 0)
(23.9963 -3.76105e-06 0)
(23.9968 -5.3453e-06 0)
(23.9975 -7.35915e-06 0)
(23.9985 -8.79487e-06 0)
(23.9996 -1.02269e-05 0)
(24.0009 -1.15611e-05 0)
(24.0024 -1.31926e-05 0)
(24.0041 -1.441e-05 0)
(24.0059 -1.5639e-05 0)
(24.0079 -1.6783e-05 0)
(24.0101 -1.84079e-05 0)
(24.0124 -1.94402e-05 0)
(24.0149 -2.04931e-05 0)
(24.0175 -2.14599e-05 0)
(24.0203 -2.27593e-05 0)
(24.0232 -2.36369e-05 0)
(24.0262 -2.45445e-05 0)
(24.0293 -2.5375e-05 0)
(24.0326 -2.67142e-05 0)
(24.036 -2.74516e-05 0)
(24.0395 -2.8222e-05 0)
(24.0431 -2.89102e-05 0)
(24.0468 -2.99326e-05 0)
(24.0506 -3.05434e-05 0)
(24.0545 -3.11906e-05 0)
(24.0585 -3.17621e-05 0)
(24.0626 -3.2806e-05 0)
(24.0668 -3.32918e-05 0)
(24.071 -3.38105e-05 0)
(24.0753 -3.42469e-05 0)
(24.0797 -3.49775e-05 0)
(24.0842 -3.53364e-05 0)
(24.0887 -3.57218e-05 0)
(24.0933 -3.60313e-05 0)
(24.0979 -3.66956e-05 0)
(24.1026 -3.69177e-05 0)
(24.1073 -3.71526e-05 0)
(24.1121 -3.73103e-05 0)
(24.1169 -3.76364e-05 0)
(24.1217 -3.77114e-05 0)
(24.1265 -3.77829e-05 0)
(24.1314 -3.77888e-05 0)
(24.1362 -3.78974e-05 0)
(24.1411 -3.78225e-05 0)
(24.1459 -3.77245e-05 0)
(24.1507 -3.75491e-05 0)
(24.1555 -3.73449e-05 0)
(24.1603 -3.63668e-05 0)
(24.1649 -3.65355e-05 0)
(24.1697 -1.91147e-05 0)
(33.6709 0.0694784 0)
(31.5724 0.022704 0)
(30.0008 0.0122433 0)
(28.9993 0.00751386 0)
(28.3282 0.00520142 0)
(27.8445 0.00390702 0)
(27.4742 0.00309736 0)
(27.1779 0.00254499 0)
(26.9335 0.00214409 0)
(26.727 0.00184045 0)
(26.5495 0.00160289 0)
(26.3948 0.00141218 0)
(26.2583 0.0012558 0)
(26.137 0.00112536 0)
(26.0282 0.00101496 0)
(25.93 0.000920424 0)
(25.841 0.000838606 0)
(25.7598 0.000767153 0)
(25.6856 0.000704182 0)
(25.6174 0.00064842 0)
(25.5547 0.000598679 0)
(25.4967 0.000554067 0)
(25.443 0.000513801 0)
(25.3933 0.000477393 0)
(25.347 0.000444295 0)
(25.304 0.000414108 0)
(25.2638 0.000386361 0)
(25.2264 0.000361 0)
(25.1913 0.00033765 0)
(25.1586 0.000316105 0)
(25.1279 0.000296078 0)
(25.0992 0.000277582 0)
(25.0723 0.000260373 0)
(25.047 0.000244342 0)
(25.0233 0.000229192 0)
(25.001 0.000215183 0)
(24.9801 0.00020204 0)
(24.9605 0.00018971 0)
(24.9421 0.000177973 0)
(24.9249 0.000167049 0)
(24.9087 0.000156728 0)
(24.8935 0.000146994 0)
(24.8793 0.000137537 0)
(24.8659 0.000128833 0)
(24.8534 0.000120572 0)
(24.8418 0.00011276 0)
(24.8309 0.000105154 0)
(24.8207 9.81184e-05 0)
(24.8112 9.14075e-05 0)
(24.8024 8.50448e-05 0)
(24.7941 7.86546e-05 0)
(24.7865 7.29011e-05 0)
(24.7795 6.73939e-05 0)
(24.773 6.2172e-05 0)
(24.767 5.6938e-05 0)
(24.7615 5.21947e-05 0)
(24.7564 4.763e-05 0)
(24.7518 4.32965e-05 0)
(24.7477 3.87358e-05 0)
(24.7439 3.47942e-05 0)
(24.7406 3.09866e-05 0)
(24.7376 2.73798e-05 0)
(24.7349 2.36202e-05 0)
(24.7326 2.03274e-05 0)
(24.7307 1.71256e-05 0)
(24.7291 1.40922e-05 0)
(24.7277 1.06969e-05 0)
(24.7267 7.93118e-06 0)
(24.7259 5.22827e-06 0)
(24.7254 2.67873e-06 0)
(24.7252 -1.31337e-07 0)
(24.7252 -2.47705e-06 0)
(24.7255 -4.78664e-06 0)
(24.7259 -6.96012e-06 0)
(24.7267 -9.59282e-06 0)
(24.7276 -1.15693e-05 0)
(24.7287 -1.35307e-05 0)
(24.73 -1.53672e-05 0)
(24.7316 -1.75221e-05 0)
(24.7333 -1.9204e-05 0)
(24.7352 -2.0891e-05 0)
(24.7372 -2.24701e-05 0)
(24.7394 -2.45717e-05 0)
(24.7418 -2.60051e-05 0)
(24.7444 -2.74548e-05 0)
(24.747 -2.87963e-05 0)
(24.7499 -3.04997e-05 0)
(24.7529 -3.17242e-05 0)
(24.756 -3.29774e-05 0)
(24.7592 -3.41341e-05 0)
(24.7626 -3.58472e-05 0)
(24.7661 -3.68839e-05 0)
(24.7697 -3.79521e-05 0)
(24.7734 -3.89183e-05 0)
(24.7772 -4.025e-05 0)
(24.7811 -4.11149e-05 0)
(24.7852 -4.20164e-05 0)
(24.7893 -4.28233e-05 0)
(24.7935 -4.41475e-05 0)
(24.7978 -4.48433e-05 0)
(24.8022 -4.55702e-05 0)
(24.8067 -4.61945e-05 0)
(24.8112 -4.71392e-05 0)
(24.8158 -4.76606e-05 0)
(24.8205 -4.82054e-05 0)
(24.8253 -4.86542e-05 0)
(24.83 -4.94884e-05 0)
(24.8349 -4.98208e-05 0)
(24.8398 -5.01592e-05 0)
(24.8447 -5.0399e-05 0)
(24.8497 -5.08169e-05 0)
(24.8546 -5.09435e-05 0)
(24.8596 -5.10566e-05 0)
(24.8647 -5.10837e-05 0)
(24.8697 -5.1214e-05 0)
(24.8747 -5.11281e-05 0)
(24.8797 -5.10053e-05 0)
(24.8847 -5.07786e-05 0)
(24.8897 -5.0512e-05 0)
(24.8947 -4.91965e-05 0)
(24.8994 -4.94419e-05 0)
(24.9044 -2.58622e-05 0)
(34.1947 0.0755307 0)
(32.5411 0.0282331 0)
(31.0182 0.0164209 0)
(29.9639 0.010304 0)
(29.2379 0.00713872 0)
(28.712 0.00533861 0)
(28.3102 0.00421205 0)
(27.9902 0.00344695 0)
(27.7273 0.00289464 0)
(27.5061 0.00247836 0)
(27.3165 0.00215402 0)
(27.1518 0.00189457 0)
(27.0068 0.00168245 0)
(26.8782 0.00150596 0)
(26.763 0.00135691 0)
(26.6593 0.00122952 0)
(26.5653 0.00111944 0)
(26.4798 0.00102344 0)
(26.4016 0.000938959 0)
(26.3299 0.000864216 0)
(26.2639 0.00079761 0)
(26.2029 0.000737925 0)
(26.1466 0.000684112 0)
(26.0943 0.000635478 0)
(26.0458 0.000591297 0)
(26.0007 0.000551023 0)
(25.9586 0.000514056 0)
(25.9193 0.000480253 0)
(25.8826 0.000449142 0)
(25.8483 0.000420442 0)
(25.8161 0.00039379 0)
(25.786 0.000369158 0)
(25.7578 0.000346243 0)
(25.7314 0.000324897 0)
(25.7065 0.000304767 0)
(25.6832 0.000286113 0)
(25.6614 0.000268614 0)
(25.6409 0.000252196 0)
(25.6216 0.000236603 0)
(25.6035 0.000222059 0)
(25.5866 0.000208324 0)
(25.5707 0.000195369 0)
(25.5558 0.000182847 0)
(25.5419 0.000171266 0)
(25.5288 0.000160279 0)
(25.5166 0.000149888 0)
(25.5052 0.000139818 0)
(25.4945 0.000130463 0)
(25.4846 0.000121544 0)
(25.4754 0.000113086 0)
(25.4668 0.000104673 0)
(25.4588 9.70244e-05 0)
(25.4514 8.97077e-05 0)
(25.4446 8.27668e-05 0)
(25.4383 7.58693e-05 0)
(25.4325 6.95626e-05 0)
(25.4272 6.3499e-05 0)
(25.4224 5.77385e-05 0)
(25.418 5.17755e-05 0)
(25.4141 4.65312e-05 0)
(25.4105 4.14711e-05 0)
(25.4074 3.66722e-05 0)
(25.4046 3.17407e-05 0)
(25.4022 2.7355e-05 0)
(25.4001 2.30974e-05 0)
(25.3984 1.90577e-05 0)
(25.3969 1.46513e-05 0)
(25.3958 1.09609e-05 0)
(25.395 7.36217e-06 0)
(25.3944 3.95999e-06 0)
(25.3941 2.93436e-07 0)
(25.3941 -2.84397e-06 0)
(25.3943 -5.92547e-06 0)
(25.3948 -8.83206e-06 0)
(25.3955 -1.22207e-05 0)
(25.3964 -1.48719e-05 0)
(25.3975 -1.74919e-05 0)
(25.3989 -1.9954e-05 0)
(25.4004 -2.27513e-05 0)
(25.4021 -2.50133e-05 0)
(25.404 -2.72706e-05 0)
(25.4061 -2.93922e-05 0)
(25.4084 -3.2073e-05 0)
(25.4109 -3.40088e-05 0)
(25.4135 -3.59533e-05 0)
(25.4162 -3.77631e-05 0)
(25.4191 -3.99606e-05 0)
(25.4222 -4.16203e-05 0)
(25.4254 -4.33051e-05 0)
(25.4287 -4.48697e-05 0)
(25.4322 -4.70346e-05 0)
(25.4358 -4.84479e-05 0)
(25.4395 -4.98889e-05 0)
(25.4433 -5.12038e-05 0)
(25.4472 -5.29128e-05 0)
(25.4513 -5.40981e-05 0)
(25.4555 -5.53181e-05 0)
(25.4597 -5.64208e-05 0)
(25.4641 -5.80819e-05 0)
(25.4685 -5.90434e-05 0)
(25.4731 -6.00319e-05 0)
(25.4777 -6.08932e-05 0)
(25.4824 -6.20983e-05 0)
(25.4871 -6.28259e-05 0)
(25.492 -6.35716e-05 0)
(25.4969 -6.41969e-05 0)
(25.5018 -6.52342e-05 0)
(25.5068 -6.5708e-05 0)
(25.5119 -6.61777e-05 0)
(25.517 -6.65229e-05 0)
(25.5221 -6.70523e-05 0)
(25.5272 -6.72467e-05 0)
(25.5324 -6.74142e-05 0)
(25.5376 -6.74708e-05 0)
(25.5428 -6.76266e-05 0)
(25.548 -6.75301e-05 0)
(25.5532 -6.73788e-05 0)
(25.5584 -6.70913e-05 0)
(25.5635 -6.67498e-05 0)
(25.5687 -6.50275e-05 0)
(25.5736 -6.53603e-05 0)
(25.5788 -3.41823e-05 0)
(34.5334 0.0801401 0)
(33.3602 0.0337827 0)
(31.9723 0.0212954 0)
(30.8975 0.0138031 0)
(30.1241 0.00962826 0)
(29.5558 0.00718741 0)
(29.1205 0.00564896 0)
(28.7745 0.00460532 0)
(28.4912 0.00385481 0)
(28.2535 0.00329151 0)
(28.0506 0.00285439 0)
(27.8746 0.00250593 0)
(27.7203 0.00222193 0)
(27.5835 0.00198627 0)
(27.4613 0.00178772 0)
(27.3515 0.00161836 0)
(27.2521 0.00147228 0)
(27.1617 0.00134509 0)
(27.0792 0.00123333 0)
(27.0035 0.00113457 0)
(26.934 0.00104665 0)
(26.8699 0.000967951 0)
(26.8106 0.000897073 0)
(26.7556 0.000833059 0)
(26.7046 0.000774949 0)
(26.6572 0.000722015 0)
(26.6129 0.000673486 0)
(26.5717 0.000629103 0)
(26.5332 0.000588271 0)
(26.4972 0.000550615 0)
(26.4634 0.000515676 0)
(26.4319 0.000483369 0)
(26.4023 0.000453319 0)
(26.3745 0.000425327 0)
(26.3485 0.000398977 0)
(26.3241 0.000374517 0)
(26.3012 0.000351575 0)
(26.2796 0.000330051 0)
(26.2595 0.000309645 0)
(26.2405 0.000290584 0)
(26.2228 0.000272587 0)
(26.2062 0.000255615 0)
(26.1906 0.000239278 0)
(26.1759 0.000224111 0)
(26.1623 0.000209728 0)
(26.1495 0.000196126 0)
(26.1375 0.000182996 0)
(26.1264 0.000170753 0)
(26.116 0.000159089 0)
(26.1063 0.000148027 0)
(26.0973 0.000137109 0)
(26.0889 0.000127105 0)
(26.0812 0.000117541 0)
(26.074 0.000108466 0)
(26.0674 9.95095e-05 0)
(26.0613 9.12619e-05 0)
(26.0558 8.33387e-05 0)
(26.0507 7.58078e-05 0)
(26.0461 6.81153e-05 0)
(26.0419 6.12538e-05 0)
(26.0382 5.46402e-05 0)
(26.0348 4.83624e-05 0)
(26.0319 4.19843e-05 0)
(26.0293 3.62418e-05 0)
(26.0271 3.06747e-05 0)
(26.0252 2.53864e-05 0)
(26.0237 1.9737e-05 0)
(26.0224 1.48974e-05 0)
(26.0215 1.01869e-05 0)
(26.0209 5.72571e-06 0)
(26.0205 1.00407e-06 0)
(26.0204 -3.118e-06 0)
(26.0206 -7.1589e-06 0)
(26.021 -1.09773e-05 0)
(26.0217 -1.52931e-05 0)
(26.0226 -1.87853e-05 0)
(26.0237 -2.22243e-05 0)
(26.0251 -2.54652e-05 0)
(26.0266 -2.90528e-05 0)
(26.0284 -3.20383e-05 0)
(26.0303 -3.50052e-05 0)
(26.0325 -3.78023e-05 0)
(26.0348 -4.11905e-05 0)
(26.0373 -4.37542e-05 0)
(26.04 -4.63151e-05 0)
(26.0428 -4.8709e-05 0)
(26.0458 -5.1513e-05 0)
(26.0489 -5.37171e-05 0)
(26.0522 -5.59398e-05 0)
(26.0556 -5.80136e-05 0)
(26.0591 -6.07277e-05 0)
(26.0628 -6.26131e-05 0)
(26.0667 -6.45193e-05 0)
(26.0706 -6.62703e-05 0)
(26.0747 -6.84411e-05 0)
(26.0788 -7.00285e-05 0)
(26.0831 -7.16461e-05 0)
(26.0875 -7.3119e-05 0)
(26.092 -7.51878e-05 0)
(26.0966 -7.64838e-05 0)
(26.1013 -7.77994e-05 0)
(26.106 -7.89582e-05 0)
(26.1109 -8.04808e-05 0)
(26.1158 -8.14686e-05 0)
(26.1208 -8.24659e-05 0)
(26.1258 -8.33132e-05 0)
(26.131 -8.45948e-05 0)
(26.1361 -8.52482e-05 0)
(26.1413 -8.58833e-05 0)
(26.1466 -8.63624e-05 0)
(26.1519 -8.70276e-05 0)
(26.1572 -8.73097e-05 0)
(26.1626 -8.75469e-05 0)
(26.1679 -8.76431e-05 0)
(26.1733 -8.78295e-05 0)
(26.1787 -8.77226e-05 0)
(26.1841 -8.75383e-05 0)
(26.1894 -8.71783e-05 0)
(26.1947 -8.67467e-05 0)
(26.2 -8.45367e-05 0)
(26.2051 -8.49583e-05 0)
(26.2105 -4.44236e-05 0)
(34.7383 0.0835127 0)
(34.0044 0.0389142 0)
(32.8456 0.0266757 0)
(31.8006 0.0180607 0)
(30.9964 0.0127822 0)
(30.3892 0.00956158 0)
(29.9198 0.00749905 0)
(29.546 0.00609459 0)
(29.2402 0.00508584 0)
(28.9844 0.00433091 0)
(28.7664 0.00374703 0)
(28.578 0.0032831 0)
(28.413 0.00290614 0)
(28.2672 0.00259419 0)
(28.1371 0.00233204 0)
(28.0203 0.00210889 0)
(27.9149 0.00191679 0)
(27.8191 0.00174982 0)
(27.7318 0.00160336 0)
(27.6518 0.00147408 0)
(27.5783 0.00135915 0)
(27.5106 0.00125639 0)
(27.448 0.00116395 0)
(27.3901 0.00108053 0)
(27.3363 0.00100487 0)
(27.2864 0.000936 0)
(27.2398 0.000872935 0)
(27.1964 0.000815261 0)
(27.1559 0.000762225 0)
(27.118 0.000713332 0)
(27.0825 0.000668004 0)
(27.0493 0.000626076 0)
(27.0182 0.000587084 0)
(26.989 0.000550767 0)
(26.9617 0.000516632 0)
(26.936 0.000484902 0)
(26.9119 0.000455148 0)
(26.8893 0.000427235 0)
(26.8681 0.000400814 0)
(26.8483 0.000376102 0)
(26.8296 0.00035278 0)
(26.8121 0.00033079 0)
(26.7958 0.000309696 0)
(26.7804 0.000290053 0)
(26.7661 0.000271434 0)
(26.7526 0.000253828 0)
(26.7401 0.000236887 0)
(26.7283 0.000221048 0)
(26.7174 0.000205965 0)
(26.7072 0.000191662 0)
(26.6977 0.000177636 0)
(26.6889 0.000164701 0)
(26.6808 0.000152343 0)
(26.6733 0.000140615 0)
(26.6663 0.000129106 0)
(26.6599 0.000118446 0)
(26.654 0.000108213 0)
(26.6487 9.84831e-05 0)
(26.6438 8.86525e-05 0)
(26.6394 7.97815e-05 0)
(26.6354 7.12388e-05 0)
(26.6318 6.31243e-05 0)
(26.6287 5.49571e-05 0)
(26.6259 4.75285e-05 0)
(26.6236 4.03355e-05 0)
(26.6215 3.34966e-05 0)
(26.6199 2.6315e-05 0)
(26.6185 2.00461e-05 0)
(26.6175 1.39543e-05 0)
(26.6168 8.1766e-06 0)
(26.6163 2.15244e-06 0)
(26.6162 -3.19472e-06 0)
(26.6163 -8.42892e-06 0)
(26.6167 -1.33823e-05 0)
(26.6173 -1.8839e-05 0)
(26.6182 -2.338e-05 0)
(26.6193 -2.78385e-05 0)
(26.6206 -3.20493e-05 0)
(26.6222 -3.66116e-05 0)
(26.624 -4.04997e-05 0)
(26.6259 -4.43499e-05 0)
(26.6281 -4.79884e-05 0)
(26.6304 -5.22437e-05 0)
(26.633 -5.5592e-05 0)
(26.6357 -5.89209e-05 0)
(26.6386 -6.20433e-05 0)
(26.6416 -6.55936e-05 0)
(26.6448 -6.84782e-05 0)
(26.6482 -7.13711e-05 0)
(26.6517 -7.40802e-05 0)
(26.6554 -7.74644e-05 0)
(26.6591 -7.9941e-05 0)
(26.6631 -8.24273e-05 0)
(26.6671 -8.47231e-05 0)
(26.6713 -8.74606e-05 0)
(26.6756 -8.95516e-05 0)
(26.68 -9.16651e-05 0)
(26.6845 -9.36005e-05 0)
(26.6891 -9.61644e-05 0)
(26.6939 -9.78804e-05 0)
(26.6987 -9.96042e-05 0)
(26.7036 -0.000101135 0)
(26.7086 -0.000103046 0)
(26.7137 -0.000104361 0)
(26.7188 -0.000105673 0)
(26.724 -0.000106799 0)
(26.7293 -0.000108375 0)
(26.7346 -0.000109256 0)
(26.74 -0.000110098 0)
(26.7454 -0.000110747 0)
(26.7509 -0.000111578 0)
(26.7564 -0.000111973 0)
(26.7619 -0.000112299 0)
(26.7675 -0.000112447 0)
(26.773 -0.00011267 0)
(26.7785 -0.000112554 0)
(26.7841 -0.000112331 0)
(26.7896 -0.000111885 0)