/*--------------------------------*- C++ -*----------------------------------*\
  =========                 |
  \\      /  F ield         | OpenFOAM: The Open Source CFD Toolbox
   \\    /   O peration     | Website:  https://openfoam.org
    \\  /    A nd           | Version:  7
     \\/     M anipulation  |
\*---------------------------------------------------------------------------*/
FoamFile
{
    version     2.0;
    format      ascii;
    class       volScalarField;
    location    "1.6";
    object      T;
}
// * * * * * * * * * * * * * * * * * * * * * * * * * * * * * * * * * * * * * //

dimensions      [0 0 0 1 0 0 0];

internalField   nonuniform List<scalar> 
32100
(
-6.99551e+36
-9.99906e+35
1.59065e+35
-8.07752e+33
-1.17288e+33
1.86112e+32
1.17442e+31
-2.50948e+30
1.71581e+29
1.81116e+28
-1.95844e+27
-2.65346e+25
1.45834e+23
3.59271e+23
9.53427e+22
-1.15915e+36
1.73167e+35
-8.24021e+33
-1.24839e+33
1.90557e+32
1.23245e+31
-2.58387e+30
1.7328e+29
1.73613e+28
-3.7956e+27
-8.44163e+26
-4.38738e+25
3.04948e+24
3.62935e+23
9.34375e+22
1.90211e+35
-8.51336e+33
-1.35494e+33
1.97163e+32
1.29994e+31
-2.69463e+30
1.78546e+29
1.87378e+28
-3.60009e+27
-4.64332e+26
-2.20484e+26
-2.49696e+25
4.85258e+24
2.13649e+23
7.52609e+22
-8.85194e+33
-1.58678e+33
2.02183e+32
1.49504e+31
-2.8651e+30
1.60857e+29
2.21744e+28
-2.86397e+27
-2.33138e+26
9.38549e+24
-5.36098e+25
-5.25217e+24
4.50396e+24
6.78218e+22
5.12099e+22
-2.15798e+33
1.39026e+32
1.35815e+31
-2.03916e+30
1.15447e+29
2.07958e+27
-6.00868e+26
3.90365e+26
5.86738e+25
-5.42023e+24
-2.46506e+24
2.59049e+24
2.95576e+24
-3.46109e+22
2.50482e+22
-1.8909e+32
-5.59156e+31
-5.32201e+30
1.05866e+30
-3.38896e+28
-2.19386e+28
2.39048e+27
6.68365e+26
2.60727e+24
3.21919e+24
3.99695e+24
2.88078e+24
1.4201e+24
-8.459e+22
5.09331e+21
-3.64334e+32
-7.4791e+31
-2.38948e+30
8.66572e+29
-4.67878e+28
-1.89434e+28
2.35102e+27
6.08755e+26
8.72954e+24
1.2082e+24
2.26331e+24
1.33608e+24
4.51781e+23
-8.94006e+22
-4.51027e+21
-3.60587e+32
-6.88978e+31
-2.93155e+30
8.02952e+29
-3.1103e+28
-1.88005e+28
1.942e+27
6.1168e+26
1.29549e+25
-4.25538e+23
9.64154e+23
2.72663e+23
3.88866e+22
-6.69274e+22
-5.83965e+21
-3.28472e+32
-6.65269e+31
-3.3242e+30
7.61691e+29
-1.83618e+28
-1.88241e+28
1.58881e+27
6.05792e+26
1.76164e+25
-9.63572e+23
5.51001e+23
-4.30595e+22
-5.6114e+22
-3.78368e+22
-3.56756e+21
-3.0146e+32
-6.38798e+31
-3.66714e+30
7.10702e+29
-6.1628e+27
-1.85741e+28
1.22898e+27
5.93654e+26
2.25179e+25
-1.07962e+24
4.96313e+23
-3.64716e+22
-4.52055e+22
-1.6064e+22
-1.22698e+21
-2.76301e+32
-6.12481e+31
-3.99325e+30
6.54394e+29
5.7024e+27
-1.8124e+28
8.73989e+26
5.758e+26
2.71474e+25
-1.09716e+24
4.5729e+23
-3.17088e+21
-2.34175e+22
-4.83029e+21
-4.05488e+19
-2.53098e+32
-5.88988e+31
-4.25274e+30
5.92856e+29
1.68044e+28
-1.74784e+28
5.32052e+26
5.52785e+26
3.13057e+25
-1.04397e+24
3.90543e+23
1.28697e+22
-1.22788e+22
-1.12035e+21
2.13188e+20
-2.32344e+32
-5.60646e+31
-4.26325e+30
5.24422e+29
2.55221e+28
-1.6652e+28
2.14531e+26
5.25439e+26
3.48314e+25
-9.11177e+23
3.20767e+23
1.67853e+22
-8.5245e+21
-4.73278e+20
1.03628e+20
-2.07606e+32
-4.66715e+31
-3.68088e+30
3.98092e+29
2.92854e+28
-1.5464e+28
-3.78493e+25
4.93501e+26
3.75107e+25
-7.14795e+23
2.72958e+23
2.06222e+22
-5.84829e+21
-3.47722e+20
5.1915e+19
-1.45626e+32
-3.50232e+31
-3.17432e+30
2.86267e+29
2.94604e+28
-1.26151e+28
-2.29614e+26
4.34079e+26
3.91959e+25
-5.0763e+23
2.44593e+23
2.70684e+22
-5.93493e+21
-4.2991e+20
3.26548e+19
-1.04011e+32
-2.87055e+31
-2.95857e+30
2.22177e+29
3.05173e+28
-1.02776e+28
-4.24569e+26
3.78244e+26
4.15468e+25
-2.80573e+23
2.13704e+23
3.42926e+22
-7.0538e+21
-6.35691e+20
2.63811e+19
-8.8578e+31
-2.59516e+31
-2.87686e+30
1.80845e+29
3.29432e+28
-9.19482e+27
-6.22777e+26
3.43292e+26
4.47273e+25
1.08262e+22
1.74184e+23
3.99294e+22
-7.08056e+21
-8.4917e+20
2.35923e+19
-7.80453e+31
-2.43441e+31
-2.90455e+30
1.46412e+29
3.57531e+28
-8.32993e+27
-8.01192e+26
3.13339e+26
4.81595e+25
3.89709e+23
1.3159e+23
4.42154e+22
-6.30765e+21
-1.01216e+21
1.81871e+19
-6.93531e+31
-2.28841e+31
-2.92655e+30
1.10207e+29
3.81415e+28
-7.4069e+27
-9.71092e+26
2.82749e+26
5.15868e+25
8.56008e+23
8.94772e+22
4.70211e+22
-5.10702e+21
-1.1185e+21
8.71022e+18
-6.18804e+31
-2.14565e+31
-2.9367e+30
7.13364e+28
4.01085e+28
-6.38272e+27
-1.131e+27
2.48634e+26
5.47547e+25
1.40744e+24
5.1104e+22
4.91041e+22
-3.85737e+21
-1.21018e+21
-4.36501e+18
-5.49849e+31
-1.99668e+31
-2.92524e+30
3.09277e+28
4.1498e+28
-5.25263e+27
-1.27579e+27
2.10198e+26
5.75517e+25
2.04708e+24
1.76183e+22
4.94944e+22
-2.46818e+21
-1.26406e+21
-2.01322e+19
-4.83747e+31
-1.83725e+31
-2.89761e+30
-1.02289e+28
4.21566e+28
-4.02404e+27
-1.39875e+27
1.67717e+26
5.9997e+25
2.78842e+24
-8.81847e+21
4.80016e+22
-1.00516e+21
-1.24799e+21
-3.62291e+19
-4.21279e+31
-1.67495e+31
-2.85836e+30
-5.17463e+28
4.19781e+28
-2.7116e+27
-1.49323e+27
1.2124e+26
6.20801e+25
3.65633e+24
-2.55004e+22
4.56532e+22
3.4418e+20
-1.2039e+21
-5.10946e+19
-3.63382e+31
-1.51518e+31
-2.80566e+30
-9.32879e+28
4.08178e+28
-1.32604e+27
-1.55413e+27
7.07694e+25
6.36715e+25
4.67344e+24
-2.9739e+22
4.2715e+22
1.61895e+21
-1.15788e+21
-6.48888e+19
-3.11092e+31
-1.36525e+31
-2.74363e+30
-1.34623e+29
3.86081e+28
1.03495e+26
-1.57636e+27
1.62173e+25
6.45402e+25
5.84214e+24
-1.74419e+22
3.90557e+22
2.90661e+21
-1.11373e+21
-7.89877e+19
-2.64426e+31
-1.22534e+31
-2.66686e+30
-1.75253e+29
3.52735e+28
1.53774e+27
-1.55337e+27
-4.21942e+25
6.43785e+25
7.17238e+24
1.74013e+22
3.46601e+22
4.29733e+21
-1.07259e+21
-9.58559e+19
-2.23946e+31
-1.09479e+31
-2.57723e+30
-2.15028e+29
3.07371e+28
2.93859e+27
-1.47955e+27
-1.03851e+26
6.27951e+25
8.6686e+24
8.25431e+22
2.87959e+22
5.78841e+21
-1.00862e+21
-1.1559e+20
-1.89643e+31
-9.78638e+30
-2.49003e+30
-2.54476e+29
2.49065e+28
4.26187e+27
-1.34826e+27
-1.67752e+26
5.9225e+25
1.03938e+25
1.8765e+23
2.10061e+22
7.17428e+21
-8.88229e+20
-1.34119e+20
-1.602e+31
-8.78225e+30
-2.41329e+30
-2.93799e+29
1.76616e+28
5.45844e+27
-1.15447e+27
-2.32595e+26
5.31445e+25
1.22992e+25
3.45435e+23
1.21214e+22
8.42776e+21
-7.24135e+20
-1.50919e+20
-1.34193e+31
-7.86236e+30
-2.33441e+30
-3.31657e+29
8.91068e+27
6.46327e+27
-8.91431e+26
-2.96328e+26
4.41325e+25
1.43075e+25
5.70048e+23
2.90206e+21
9.52818e+21
-5.14782e+20
-1.66054e+20
-1.10831e+31
-6.91872e+30
-2.22224e+30
-3.6561e+29
-1.32825e+27
7.19307e+27
-5.52067e+26
-3.56051e+26
3.1492e+25
1.64154e+25
8.83522e+23
-5.62366e+21
1.00505e+22
-2.50807e+20
-1.75534e+20
-9.03938e+30
-5.94557e+30
-2.06012e+30
-3.94762e+29
-1.29946e+28
7.54986e+27
-1.31909e+26
-4.06699e+26
1.43472e+25
1.84815e+25
1.32075e+24
-1.10951e+22
9.94297e+21
3.86591e+19
-1.82366e+20
-7.37197e+30
-5.08058e+30
-1.89865e+30
-4.18668e+29
-2.60126e+28
7.41563e+27
3.68043e+26
-4.40013e+26
-8.12579e+24
2.02961e+25
1.93394e+24
-1.0371e+22
9.75506e+21
3.76616e+20
-1.95642e+20
-6.02628e+30
-4.42468e+30
-1.78604e+30
-4.38987e+29
-4.03928e+28
6.66416e+27
9.34564e+26
-4.4568e+26
-3.60836e+25
2.14204e+25
2.78094e+24
3.82689e+21
9.36376e+21
8.6615e+20
-2.18953e+20
-4.89721e+30
-3.89662e+30
-1.69719e+30
-4.57253e+29
-5.62447e+28
5.13691e+27
1.53211e+27
-4.1142e+26
-6.87167e+25
2.12387e+25
3.92324e+24
4.53933e+22
7.80976e+21
1.59067e+21
-2.45533e+20
-3.94668e+30
-3.37566e+30
-1.58764e+30
-4.73731e+29
-7.36358e+28
2.62865e+27
2.08675e+27
-3.26232e+26
-1.04069e+26
1.88611e+25
5.38325e+24
1.41306e+23
4.26577e+21
2.61039e+21
-2.56011e+20
-3.15307e+30
-2.88306e+30
-1.46856e+30
-4.89324e+29
-9.27037e+28
-1.04407e+27
2.52233e+27
-1.85111e+26
-1.38732e+26
1.33381e+25
7.06217e+24
3.41547e+23
-1.65615e+21
3.89067e+21
-2.04942e+20
-2.48692e+30
-2.45743e+30
-1.36192e+30
-5.03483e+29
-1.13206e+29
-5.96873e+27
2.76747e+27
1.26041e+25
-1.67293e+26
3.97744e+24
8.6806e+24
6.83493e+23
-7.70463e+21
5.0275e+21
-2.0803e+19
-1.9299e+30
-2.09013e+30
-1.26418e+30
-5.13228e+29
-1.33639e+29
-1.20475e+28
2.72532e+27
2.61305e+26
-1.82032e+26
-9.32591e+24
9.79498e+24
1.19449e+24
-7.34073e+21
5.35023e+21
3.71482e+20
-1.46675e+30
-1.76885e+30
-1.17173e+30
-5.17378e+29
-1.50769e+29
-1.90216e+28
2.2892e+27
5.42022e+26
-1.74808e+26
-2.54868e+25
9.90867e+24
1.87656e+24
1.2483e+22
3.94521e+21
1.04222e+21
-1.08559e+30
-1.47276e+30
-1.07279e+30
-5.11326e+29
-1.635e+29
-2.65048e+28
1.38212e+27
8.13983e+26
-1.4041e+26
-4.23979e+25
8.65599e+24
2.68952e+24
7.73971e+22
-5.30229e+20
1.95509e+21
-7.80971e+29
-1.19059e+30
-9.5966e+29
-4.91098e+29
-1.73339e+29
-3.40993e+28
-1.06927e+23
1.03494e+27
-7.90267e+25
-5.78746e+25
5.9279e+24
3.44979e+24
1.87218e+23
-6.88354e+21
2.60089e+21
-5.52195e+29
-9.34379e+29
-8.33036e+29
-4.61536e+29
-1.80664e+29
-4.14719e+28
-1.7972e+27
1.14498e+27
4.79323e+24
-6.94465e+25
1.93765e+24
3.80482e+24
3.22728e+23
-1.23455e+22
2.52902e+21
-3.88276e+29
-7.22498e+29
-7.0784e+29
-4.30638e+29
-1.85535e+29
-4.83922e+28
-3.90074e+27
1.13386e+27
9.9319e+25
-7.46904e+25
-2.6279e+24
3.84647e+24
4.74207e+23
-1.48277e+22
1.81412e+21
-2.73616e+29
-5.59053e+29
-6.0089e+29
-4.01549e+29
-1.88545e+29
-5.48414e+28
-6.21128e+27
1.00059e+27
1.88011e+26
-6.96669e+25
-7.24163e+24
3.61731e+24
5.62731e+23
-1.4116e+22
-6.40134e+20
-1.93676e+29
-4.35957e+29
-5.12923e+29
-3.73799e+29
-1.90458e+29
-6.09756e+28
-8.68957e+27
7.69445e+26
2.65522e+26
-5.84856e+25
-1.02567e+25
2.94397e+24
5.36012e+23
-3.54137e+21
-1.47955e+21
-1.36755e+29
-3.41646e+29
-4.41357e+29
-3.48884e+29
-1.91646e+29
-6.69923e+28
-1.13544e+28
4.68307e+26
3.27987e+26
-4.67729e+25
-1.2021e+25
2.28524e+24
4.77259e+23
2.05788e+21
-8.17023e+20
-9.59079e+28
-2.67319e+29
-3.80812e+29
-3.264e+29
-1.9184e+29
-7.26375e+28
-1.41952e+28
8.48031e+25
3.87455e+26
-3.55554e+25
-1.39425e+25
1.87203e+24
4.55032e+23
4.56329e+21
-7.80931e+20
-6.59455e+28
-2.06781e+29
-3.25368e+29
-3.03338e+29
-1.89988e+29
-7.73018e+28
-1.70438e+28
-3.98635e+26
4.41181e+26
-2.33492e+25
-1.57312e+25
1.58629e+24
4.65717e+23
7.05951e+21
-8.60612e+20
-4.44524e+28
-1.57661e+29
-2.75024e+29
-2.79978e+29
-1.86391e+29
-8.11574e+28
-1.986e+28
-9.87613e+26
4.80563e+26
-8.9192e+24
-1.74182e+25
1.33542e+24
4.87684e+23
1.02953e+22
-9.11952e+20
-2.92261e+28
-1.18725e+29
-2.31847e+29
-2.58034e+29
-1.82266e+29
-8.49408e+28
-2.29215e+28
-1.69426e+27
5.05579e+26
8.05542e+24
-1.88403e+25
1.07602e+24
4.99983e+23
1.40908e+22
-6.45714e+20
-1.86116e+28
-8.79678e+28
-1.94149e+29
-2.3499e+29
-1.77824e+29
-8.87381e+28
-2.63707e+28
-2.56336e+27
5.13118e+26
2.76645e+25
-1.96851e+25
7.86586e+23
4.84695e+23
1.75217e+22
2.45592e+20
-1.1568e+28
-6.356e+28
-1.58388e+29
-2.10458e+29
-1.72731e+29
-9.25831e+28
-3.00983e+28
-3.63242e+27
4.94817e+26
4.93394e+25
-1.98183e+25
4.97652e+23
4.41093e+23
1.98425e+22
1.75739e+21
-6.97606e+27
-4.47764e+28
-1.25765e+29
-1.86567e+29
-1.6805e+29
-9.66005e+28
-3.41458e+28
-4.92311e+27
4.40475e+26
7.19609e+25
-1.92611e+25
2.54235e+23
3.76288e+23
2.11013e+22
4.25099e+21
-3.95461e+27
-3.07969e+28
-9.85395e+28
-1.64433e+29
-1.63115e+29
-1.00397e+29
-3.85032e+28
-6.45541e+27
3.39959e+26
9.3925e+25
-1.79228e+25
9.66339e+22
2.9457e+23
2.13946e+22
8.13474e+21
-2.02807e+27
-2.03343e+28
-7.53873e+28
-1.4291e+29
-1.55967e+29
-1.03637e+29
-4.31941e+28
-8.25206e+27
1.82816e+26
1.1236e+26
-1.5644e+25
5.89713e+22
2.00555e+23
1.59227e+22
9.6706e+21
-8.76365e+26
-1.2587e+28
-5.55413e+28
-1.20871e+29
-1.46536e+29
-1.0615e+29
-4.8324e+28
-1.04033e+28
-4.0256e+25
1.2033e+26
-1.21085e+25
1.18656e+23
8.74073e+22
6.95014e+21
9.15745e+21
-2.73828e+26
-7.15153e+27
-3.89831e+28
-9.90701e+28
-1.34744e+29
-1.0741e+29
-5.3552e+28
-1.29202e+28
-3.33642e+26
1.16207e+26
-8.08395e+24
1.74961e+23
1.74389e+22
3.48661e+21
8.84109e+21
-2.23943e+25
-3.59572e+27
-2.55948e+28
-7.79909e+28
-1.20375e+29
-1.06947e+29
-5.87195e+28
-1.56425e+28
-7.05856e+26
1.11413e+26
-4.77514e+24
1.10878e+23
2.37873e+22
-3.17093e+21
9.58126e+21
4.17533e+25
-1.49887e+27
-1.52737e+28
-5.82276e+28
-1.04079e+29
-1.04683e+29
-6.38652e+28
-1.82223e+28
-1.18816e+27
1.46999e+26
-3.366e+24
1.98342e+23
5.01881e+22
4.36297e+22
3.93611e+22
2.44304e+25
-4.31747e+26
-7.7798e+27
-4.03914e+28
-8.6711e+28
-1.00601e+29
-6.88552e+28
-2.02206e+28
-1.81185e+27
2.26442e+26
-1.17829e+25
-3.8471e+23
-4.70282e+23
-2.30297e+23
-3.06516e+22
-1.33376e+25
-5.63941e+25
-2.89919e+27
-2.48588e+28
-6.88431e+28
-9.45857e+28
-7.35146e+28
-2.17243e+28
-2.50856e+27
1.04035e+26
-9.49844e+24
-1.4725e+24
1.52559e+23
-3.34406e+23
-2.12001e+23
-3.08591e+25
-6.42334e+25
-3.84655e+26
-1.20393e+28
-5.06968e+28
-8.62945e+28
-7.76003e+28
-2.40062e+28
-3.53877e+27
-3.87181e+26
5.02752e+25
2.21473e+25
2.53753e+25
1.90069e+25
7.09737e+24
-3.72608e+25
-1.08934e+26
2.40174e+26
-2.68211e+27
-3.25862e+28
-7.54469e+28
-8.05117e+28
-2.68132e+28
-4.5416e+27
-1.36849e+27
-5.44117e+26
-5.07086e+26
-7.28781e+26
-9.24099e+26
-5.36809e+26
-8.3798e+25
-1.67523e+26
1.93618e+26
1.93e+27
-1.56527e+28
-6.22983e+28
-8.1427e+28
-2.88684e+28
-4.65125e+27
-1.45851e+27
-1.98746e+27
-1.82639e+27
-2.33225e+27
-1.84853e+27
-1.02025e+27
-4.6018e+26
-1.46729e+26
5.90693e+26
2.08014e+27
-3.73163e+27
-4.77651e+28
-7.88312e+28
-3.01648e+28
-4.56335e+27
-1.00606e+26
-4.11935e+26
-8.63792e+26
-8.1082e+26
-6.99708e+26
-9.76308e+26
1.03688e+28
4.83098e+27
2.35936e+27
1.82154e+27
-3.61498e+27
-3.30024e+28
-7.14069e+28
-3.06813e+28
-5.25024e+27
-1.90011e+24
-6.21905e+24
-7.61655e+25
-1.2373e+26
-2.18222e+26
-8.32283e+26
-3.58406e+28
-1.77937e+28
-3.79208e+27
4.3608e+26
-1.23192e+28
-3.90741e+28
-6.18866e+28
-2.98358e+28
-7.25023e+27
-2.8252e+27
-1.10286e+27
-5.19974e+26
-3.33233e+26
-2.42569e+26
-6.76634e+26
-1.00624e+30
-3.15164e+29
-1.53112e+29
-9.91802e+28
-6.55871e+28
-7.02486e+28
-7.91652e+28
-2.83361e+28
-1.05037e+28
-4.62627e+27
-1.99235e+27
-9.20751e+26
-4.96148e+26
-2.76509e+26
-5.7759e+26
-3.86137e+30
-1.23578e+30
-1.06504e+30
-7.16557e+29
-4.91263e+29
-3.20729e+29
-1.76724e+29
-8.59961e+28
-3.24526e+28
-1.1838e+28
-4.46192e+27
-1.82565e+27
-8.31839e+26
-3.91549e+26
-4.79874e+26
2.72379e+32
5.11502e+31
1.20095e+31
3.27881e+30
7.75975e+29
1.90319e+28
-1.63261e+29
-1.16263e+29
-5.51448e+28
-2.17647e+28
-8.32379e+27
-3.31861e+27
-1.42056e+27
-6.56378e+26
-9.12739e+26
-2.69251e+33
-1.7173e+32
5.90331e+31
3.18502e+31
1.34103e+31
4.00103e+30
5.4508e+29
-2.16477e+28
-4.24232e+28
-1.86232e+28
-5.81605e+27
-1.02844e+27
3.05114e+26
3.74774e+26
4.25492e+26
1.18282e+33
-2.23153e+33
-5.57265e+32
-6.70852e+31
8.30764e+30
5.66665e+30
9.62521e+29
2.46548e+28
-3.70406e+28
-2.70847e+28
-1.77217e+28
-1.13504e+28
-6.51756e+27
-2.97984e+27
-8.66062e+26
1.9936e+35
7.39684e+33
-2.76061e+33
-1.75027e+32
-2.33013e+31
8.17952e+29
6.53068e+29
-1.18285e+29
-1.66286e+29
-9.37748e+28
-5.30238e+28
-3.10967e+28
-1.8631e+28
-1.0651e+28
-7.07739e+27
1.06533e+36
2.16696e+35
7.25433e+33
-3.29195e+33
4.51119e+32
-5.07275e+30
7.28535e+30
1.00051e+31
8.96668e+30
7.59379e+30
6.07256e+30
4.40828e+30
2.74266e+30
1.3476e+30
5.00756e+29
-2.82368e+37
1.16808e+36
2.05765e+35
-4.3512e+33
-2.39554e+33
5.89925e+32
9.62479e+31
8.35439e+31
6.46217e+31
4.61061e+31
3.19456e+31
2.1505e+31
1.35003e+31
7.45819e+30
2.81947e+30
2.03291e+38
-2.55286e+37
1.16768e+36
1.86856e+35
-3.84591e+33
-2.2665e+33
4.20284e+32
-1.22064e+32
-1.54729e+32
-1.62188e+32
-1.48976e+32
-1.16448e+32
-7.30773e+31
-3.28186e+31
-1.06984e+31
-1.23146e+38
1.75522e+38
-2.35319e+37
1.13848e+36
1.78736e+35
-5.94263e+33
-3.1632e+33
2.49716e+32
2.88499e+32
5.84168e+32
6.71407e+32
5.79879e+32
3.8559e+32
1.8484e+32
6.78605e+31
-9.39257e+39
-2.53859e+37
1.56266e+38
-2.22309e+37
1.13689e+36
1.95872e+35
1.06021e+34
9.74801e+33
9.54874e+33
6.43014e+33
4.34307e+33
2.88559e+33
1.8176e+33
1.04884e+33
4.50039e+32
-2.93912e+40
-8.72167e+39
3.03338e+37
1.4428e+38
-2.14401e+37
8.39783e+35
-1.07316e+35
-3.07948e+35
-3.06088e+35
-2.82843e+35
-2.47035e+35
-1.99591e+35
-1.43921e+35
-8.91349e+34
-4.37505e+34
3.12156e+42
-7.65645e+40
-2.43355e+40
-1.25982e+38
4.28411e+38
-7.70787e+37
-8.3942e+36
-8.20681e+36
-6.78017e+36
-4.98634e+36
-3.45667e+36
-2.40719e+36
-1.64783e+36
-1.12337e+36
-8.57269e+35
-2.99747e+43
2.91723e+42
-6.4641e+40
-2.39817e+40
-4.20875e+38
4.28533e+38
-8.85606e+37
-1.47337e+37
-1.061e+37
-8.27026e+36
-5.67856e+36
-3.43775e+36
-2.08996e+36
-1.50903e+36
-9.44304e+35
4.72697e+43
-2.62158e+43
2.7401e+42
-6.16126e+40
-2.50145e+40
-6.24328e+38
5.207e+38
-3.14156e+36
4.32168e+37
3.28955e+37
2.19416e+37
1.30129e+37
6.49711e+36
2.71189e+36
1.41267e+36
1.50479e+45
2.88962e+43
-2.40269e+43
2.46039e+42
7.79997e+40
-3.10122e+40
-1.79458e+39
1.95959e+39
9.0997e+38
5.06267e+38
3.08147e+38
1.64811e+38
7.63214e+37
2.90333e+37
1.35254e+37
1.29566e+45
1.43559e+45
1.94085e+43
-2.15024e+43
2.31761e+42
-3.93648e+40
-1.08938e+40
2.37745e+39
1.66515e+39
8.35485e+38
5.50725e+38
3.61149e+38
2.21473e+38
1.13629e+38
5.84144e+37
1.54723e+45
2.19029e+43
-2.38472e+43
2.81095e+42
-1.54286e+40
-8.50393e+39
5.87812e+39
3.85583e+39
1.80166e+39
9.93053e+38
5.5053e+38
3.62497e+38
2.81941e+38
1.88866e+38
1.13043e+38
5.13381e+43
-2.95298e+43
2.35336e+42
1.39718e+41
1.96904e+40
1.26662e+40
7.56867e+39
4.18548e+39
2.34833e+39
1.29192e+39
6.74136e+38
3.95178e+38
2.94361e+38
2.06643e+38
1.26196e+38
-2.15406e+43
-7.20108e+41
1.50852e+41
7.89872e+40
3.65681e+40
1.78349e+40
9.00947e+39
4.74943e+39
2.58595e+39
1.42292e+39
7.95636e+38
5.14757e+38
2.84395e+38
1.40957e+38
5.81493e+37
1.30818e+42
2.47471e+41
7.42473e+40
2.86523e+40
1.20498e+40
5.52657e+39
2.69685e+39
1.36804e+39
6.97475e+38
3.8006e+38
2.39387e+38
2.2309e+38
-5.47349e+37
-3.10111e+37
-1.25156e+37
-1.7774e+39
-9.96554e+38
-2.51046e+39
-1.76027e+39
-1.19383e+39
-8.45962e+38
-6.14143e+38
-4.68189e+38
-5.03531e+38
-8.05154e+38
-1.10732e+38
5.55242e+37
7.37923e+36
1.03974e+36
6.20952e+35
-3.71391e+39
-1.13528e+39
-6.67391e+38
-4.60971e+38
-3.14016e+38
-2.17159e+38
-1.59697e+38
-1.22483e+38
-2.10974e+38
-6.62115e+38
-5.23191e+38
-2.29842e+38
-3.85856e+37
-1.64145e+37
-7.63019e+36
-4.14362e+38
-1.7816e+38
-4.6101e+37
-2.37496e+36
1.34474e+37
1.55092e+37
-6.26328e+36
-2.5204e+37
-2.44293e+37
-3.44578e+38
-4.57878e+38
-3.15707e+38
-1.89192e+38
-1.12786e+38
-6.5617e+37
1.21072e+38
4.67026e+37
1.92306e+37
9.97122e+36
6.0317e+36
3.38781e+36
1.74321e+36
5.52921e+35
-6.80955e+35
-4.97174e+36
-5.06365e+37
-7.06955e+37
-6.02668e+37
-4.49666e+37
-3.28549e+37
-1.13569e+37
-4.26728e+36
-2.15103e+36
-1.38365e+36
-1.02337e+36
-7.20162e+35
-3.07825e+35
2.34824e+34
1.71274e+35
8.61052e+35
-1.19218e+36
-2.79448e+36
-2.86202e+36
-2.48315e+36
-2.13673e+36
1.31843e+35
3.55675e+34
4.97422e+34
4.63118e+34
4.3502e+34
3.60964e+34
8.56491e+33
-1.33296e+34
-1.97403e+34
-2.49401e+34
3.18336e+35
4.31638e+35
3.64832e+35
2.89349e+35
2.3481e+35
7.28554e+34
2.51627e+34
1.47547e+34
1.14727e+34
9.70245e+33
7.69321e+33
4.8926e+33
1.89188e+33
-3.26391e+33
-1.34548e+34
-1.68323e+34
-6.35518e+33
-2.10451e+32
1.62475e+33
1.80158e+33
6.2698e+33
2.94305e+33
7.14332e+32
-7.0072e+31
-3.42837e+32
-3.06356e+32
1.51565e+32
6.00208e+32
7.75364e+32
4.55129e+31
-4.57928e+33
-6.33647e+33
-5.63658e+33
-4.51316e+33
-3.46699e+33
-2.31215e+33
-9.16236e+32
-3.83416e+32
-1.99841e+32
-1.20228e+32
-6.95473e+31
-2.90447e+31
3.42041e+31
1.89495e+32
5.0515e+32
8.78507e+32
8.08591e+32
6.20319e+32
4.67467e+32
3.53691e+32
2.4101e+32
9.05665e+31
4.64825e+31
3.04676e+31
2.20535e+31
1.35878e+31
3.27792e+30
-4.96178e+30
-6.38541e+30
1.25502e+31
5.94113e+31
7.42287e+31
6.50377e+31
5.18133e+31
4.01544e+31
-1.13405e+30
-3.6328e+29
-9.39487e+29
-9.21425e+29
-7.65726e+29
-3.67225e+29
1.95542e+29
9.40943e+28
-1.5415e+30
-5.30228e+30
-9.85891e+30
-9.69768e+30
-7.62991e+30
-5.50769e+30
-3.51779e+30
-1.68467e+30
-5.9012e+29
-3.53277e+29
-2.76368e+29
-2.26711e+29
-1.55302e+29
-4.07183e+28
1.25841e+29
3.31995e+29
4.2116e+29
2.90526e+29
1.4696e+29
1.65774e+29
3.62725e+29
8.0423e+29
-1.45609e+29
-6.4089e+28
-1.24705e+28
4.30633e+27
8.17317e+27
2.94192e+27
-9.39362e+27
-1.47855e+28
6.39008e+27
7.22087e+28
1.48944e+29
1.72093e+29
2.10889e+29
3.50439e+29
6.81831e+29
5.36331e+28
2.10169e+28
8.58614e+27
4.41021e+27
2.59325e+27
1.36581e+27
2.4932e+25
-2.63494e+27
-8.08898e+27
-1.55124e+28
-1.83218e+28
-3.62578e+27
3.96541e+28
1.57565e+29
4.22561e+29
-5.5913e+27
-2.13308e+27
-1.11066e+27
-7.37058e+26
-5.33736e+26
-3.26757e+26
-8.22578e+25
1.09393e+26
7.10128e+25
-5.42673e+26
-1.57609e+27
-1.27322e+27
8.05092e+27
6.38684e+28
2.25342e+29
4.47716e+24
-2.87594e+24
1.97344e+25
2.32972e+25
2.08635e+25
1.19409e+25
-6.47392e+23
1.61356e+24
4.0917e+25
1.06651e+26
1.64074e+26
1.33516e+26
4.17737e+26
3.60637e+27
1.58404e+28
4.70303e+25
1.81172e+25
9.91974e+24
6.99338e+24
5.45567e+24
3.96624e+24
2.12985e+24
1.62003e+24
2.88677e+24
-2.33246e+25
-7.52704e+25
-1.35392e+26
-2.13219e+26
-2.29312e+26
1.43034e+26
1.02081e+24
5.91116e+23
-3.10644e+20
-2.08927e+23
-2.39169e+23
-1.15089e+23
4.72261e+23
3.86218e+24
1.04679e+25
-1.9053e+25
-8.35646e+25
-1.52298e+26
-2.32436e+26
-3.32091e+26
-4.48187e+26
-8.07196e+23
-3.44064e+23
-1.47401e+23
-7.49613e+22
-4.29292e+22
-5.24148e+21
3.90358e+23
4.02235e+24
1.16193e+25
-2.20508e+25
-9.60126e+25
-1.75919e+26
-2.66421e+26
-3.67786e+26
-4.71435e+26
9.06336e+22
3.72836e+22
2.02063e+22
1.34121e+22
1.03632e+22
2.65277e+22
4.23045e+23
4.5462e+24
1.26964e+25
-2.1239e+25
-1.01379e+26
-1.95293e+26
-3.03684e+26
-4.23912e+26
-5.42208e+26
-4.03282e+20
-7.29415e+19
-3.79737e+20
-4.4966e+20
6.01056e+19
1.92272e+22
4.47516e+23
5.2506e+24
1.53954e+25
-1.08003e+25
-8.5021e+25
-1.80668e+26
-2.99416e+26
-4.39352e+26
-5.90946e+26
-6.73902e+20
-2.90832e+20
-1.9458e+20
-1.83327e+20
2.2581e+20
1.79126e+22
4.62945e+23
6.10116e+24
1.8884e+25
8.91058e+24
-5.21409e+25
-1.34819e+26
-2.40883e+26
-3.74284e+26
-5.37135e+26
-3.77101e+19
-4.02148e+19
-4.75914e+19
-7.87325e+19
2.1366e+20
1.55148e+22
4.49803e+23
7.16755e+24
2.01483e+25
2.55603e+25
-1.06362e+25
-6.58154e+25
-1.37608e+26
-2.29834e+26
-3.48118e+26
1.11473e+18
-2.15253e+19
-4.84755e+19
-9.17694e+19
1.24121e+20
1.30058e+22
4.05789e+23
8.26981e+24
2.15289e+25
3.14188e+25
2.18937e+25
-1.87518e+24
-3.7304e+25
-8.41183e+25
-1.45148e+26
-1.77045e+19
-3.37514e+19
-5.99528e+19
-1.06059e+20
5.96991e+19
1.12548e+22
3.57553e+23
9.97646e+24
2.11882e+25
2.86796e+25
3.08321e+25
2.68511e+25
1.65097e+25
7.05009e+22
-2.35527e+25
-1.86745e+19
-3.87472e+19
-6.96494e+19
-1.21121e+20
-7.59513e+18
1.00963e+22
3.65769e+23
8.38774e+24
1.77758e+25
2.3781e+25
2.80805e+25
3.06527e+25
3.1209e+25
2.95409e+25
2.50079e+25
-2.20843e+19
-4.62768e+19
-8.32081e+19
-1.41266e+20
-9.05059e+19
8.24916e+21
3.84594e+23
5.64396e+24
1.20095e+25
1.6494e+25
2.03334e+25
2.36538e+25
2.65892e+25
2.91637e+25
3.10282e+25
-2.57344e+19
-5.44434e+19
-9.80826e+19
-1.62755e+20
-1.63586e+20
5.45321e+21
4.28131e+23
3.47505e+24
6.43425e+24
8.90771e+24
1.12187e+25
1.3447e+25
1.57251e+25
1.80965e+25
2.04359e+25
-2.94702e+19
-6.28461e+19
-1.13331e+20
-1.84063e+20
-2.06927e+20
2.70711e+21
3.00575e+23
1.58617e+24
2.68655e+24
3.68672e+24
4.65505e+24
5.66793e+24
6.78332e+24
8.00264e+24
9.28856e+24
-3.36657e+19
-7.23364e+19
-1.30535e+20
-2.07441e+20
-2.25422e+20
1.28335e+21
8.29345e+22
5.20775e+23
8.70617e+23
1.1748e+24
1.47096e+24
1.7941e+24
2.16729e+24
2.58818e+24
3.04542e+24
-3.83462e+19
-8.31681e+19
-1.50774e+20
-2.35808e+20
-2.29259e+20
1.02291e+21
3.3921e+22
1.21959e+23
2.01388e+23
2.69607e+23
3.3495e+23
4.09422e+23
4.95914e+23
5.92934e+23
6.99052e+23
-4.32725e+19
-9.45683e+19
-1.72171e+20
-2.67017e+20
-2.5086e+20
1.13311e+21
7.8229e+21
1.91034e+22
2.94228e+22
3.8806e+22
4.81286e+22
5.85981e+22
7.05437e+22
8.38501e+22
9.84344e+22
-4.77126e+19
-1.07189e+20
-2.02028e+20
-3.28317e+20
-4.29734e+20
-3.48881e+20
4.61857e+19
7.27448e+20
1.44466e+21
2.09456e+21
2.714e+21
3.36329e+21
4.06808e+21
4.83701e+21
5.68148e+21
-4.26007e+19
-9.64733e+19
-1.84082e+20
-3.07894e+20
-4.57633e+20
-6.05005e+20
-6.97449e+20
-7.07791e+20
-6.79919e+20
-6.54066e+20
-6.38735e+20
-6.362e+20
-6.45252e+20
-6.62922e+20
-6.86504e+20
-2.78852e+19
-6.09015e+19
-1.10647e+20
-1.73807e+20
-2.39809e+20
-2.97691e+20
-3.35235e+20
-3.47464e+20
-3.44009e+20
-3.368e+20
-3.29942e+20
-3.23804e+20
-3.18197e+20
-3.12887e+20
-3.07988e+20
-1.17957e+19
-2.39958e+19
-4.01592e+19
-5.80091e+19
-7.39649e+19
-8.65254e+19
-9.46994e+19
-9.83099e+19
-9.87417e+19
-9.77873e+19
-9.6337e+19
-9.44961e+19
-9.21652e+19
-8.93281e+19
-8.6085e+19
-3.19571e+18
-5.90357e+18
-8.7183e+18
-1.13713e+19
-1.34845e+19
-1.50252e+19
-1.60298e+19
-1.65582e+19
-1.67491e+19
-1.67697e+19
-1.6704e+19
-1.65512e+19
-1.6291e+19
-1.59167e+19
-1.54405e+19
-3.3108e+17
-7.55989e+17
-1.0754e+18
-1.28908e+18
-1.41066e+18
-1.47638e+18
-1.50531e+18
-1.51096e+18
-1.5072e+18
-1.50132e+18
-1.49279e+18
-1.47864e+18
-1.4567e+18
-1.42624e+18
-1.38756e+18
1.32694e+17
5.88252e+16
-1.61152e+15
-3.55882e+16
-5.2257e+16
-5.8978e+16
-6.00498e+16
-5.83421e+16
-5.58152e+16
-5.32643e+16
-5.07332e+16
-4.81974e+16
-4.56895e+16
-4.32749e+16
-4.08533e+16
8.61266e+16
7.53645e+16
5.62319e+16
4.12654e+16
3.01682e+16
2.22279e+16
1.66206e+16
1.26353e+16
9.828e+15
7.89687e+15
6.55717e+15
5.59273e+15
4.87134e+15
4.30984e+15
3.89092e+15
2.254e+16
2.27246e+16
1.91916e+16
1.56969e+16
1.26262e+16
1.01072e+16
8.09312e+15
6.49732e+15
5.27944e+15
4.36747e+15
3.65372e+15
3.07167e+15
2.58905e+15
2.18627e+15
1.85384e+15
2.81755e+15
3.17875e+15
2.93123e+15
2.56976e+15
2.18798e+15
1.83488e+15
1.52674e+15
1.27458e+15
1.0797e+15
9.26723e+14
7.99003e+14
6.88481e+14
5.92004e+14
5.07859e+14
4.34983e+14
9.23418e+13
1.39837e+14
1.5317e+14
1.50028e+14
1.3829e+14
1.23472e+14
1.08382e+14
9.51184e+13
8.43556e+13
7.52129e+13
6.68851e+13
5.91419e+13
5.19745e+13
4.54214e+13
3.9503e+13
-1.95071e+13
-1.6367e+13
-1.22458e+13
-8.96293e+12
-6.49398e+12
-4.69299e+12
-3.38624e+12
-2.44989e+12
-1.77966e+12
-1.28822e+12
-9.19085e+11
-6.39447e+11
-4.28824e+11
-2.71753e+11
-1.59979e+11
-4.65951e+12
-3.53484e+12
-2.59213e+12
-1.9841e+12
-1.55607e+12
-1.23996e+12
-1.00487e+12
-8.33984e+11
-7.05895e+11
-6.02898e+11
-5.15744e+11
-4.40369e+11
-3.74818e+11
-3.17886e+11
-2.69288e+11
-1.04607e+12
-7.32877e+11
-4.62824e+11
-3.04443e+11
-2.08864e+11
-1.49168e+11
-1.10712e+11
-8.55201e+10
-6.83076e+10
-5.57002e+10
-4.59269e+10
-3.8095e+10
-3.17019e+10
-2.64234e+10
-2.21134e+10
-1.76843e+11
-1.32005e+11
-8.73156e+10
-5.84774e+10
-4.00254e+10
-2.81982e+10
-2.05615e+10
-1.55495e+10
-1.20617e+10
-9.48337e+09
-7.50768e+09
-5.96784e+09
-4.75697e+09
-3.80004e+09
-3.04925e+09
-2.13619e+10
-1.49733e+10
-9.75907e+09
-6.61377e+09
-4.60681e+09
-3.31708e+09
-2.48908e+09
-1.93686e+09
-1.5374e+09
-1.23023e+09
-9.87523e+08
-7.93657e+08
-6.38084e+08
-5.13184e+08
-4.13446e+08
-2.13024e+09
-1.38734e+09
-7.80262e+08
-4.75982e+08
-3.08284e+08
-2.11787e+08
-1.54432e+08
-1.17811e+08
-9.20529e+07
-7.27328e+07
-5.7817e+07
-4.61388e+07
-3.69136e+07
-2.9605e+07
-2.38008e+07
8.00667e+07
-1.08652e+07
-2.11667e+07
-1.83422e+07
-1.3723e+07
-1.01039e+07
-7.55262e+06
-5.68003e+06
-4.23142e+06
-3.11571e+06
-2.27832e+06
-1.66122e+06
-1.21058e+06
-885348
-642946
8.84454e+07
4.5525e+07
2.13387e+07
1.0819e+07
5.87897e+06
3.3874e+06
2.05856e+06
1.31375e+06
873198
597686
417894
297314
214801
157260
118317
1.40412e+07
8.86353e+06
4.88766e+06
2.86578e+06
1.78125e+06
1.1723e+06
809644
577484
419844
308422
227894
169112
125946
94171.9
70881.5
843646
599404
369290
237912
160740
113750
83539.3
62818.8
47716.4
36328.6
27655.9
21032.8
15970.3
12122.5
9218.68
5936.99
1658.61
557.923
672.764
799.574
839.443
814.55
748.956
661.079
565.546
472.513
387.363
312.643
249.635
197.539
-5259.74
-2768.72
-1611.99
-1001.04
-665.289
-466.558
-341.306
-257.279
-196.805
-151.042
-115.665
-88.2213
-67.043
-50.8323
-38.7476
-1928.12
-926.727
-422.263
-214.406
-119.806
-72.519
-47.0082
-32.186
-22.8634
-16.5939
-12.1913
-9.02474
-6.71844
-5.02663
-3.81026
-312.38
-174.845
-87.2862
-47.5973
-28.0698
-17.6452
-11.6632
-7.9917
-5.58994
-3.9498
-2.80583
-2.00135
-1.43413
-1.03415
-0.755453
-25.3519
-14.6403
-7.79263
-4.52425
-2.83673
-1.88593
-1.3081
-0.932723
-0.674031
-0.489156
-0.355177
-0.257982
-0.187756
-0.137383
-0.101673
-1.8947
-0.836601
-0.360984
-0.186939
-0.1107
-0.0717126
-0.0493671
-0.0352927
-0.0256989
-0.018832
-0.0138198
-0.0101502
-0.00747362
-0.00554038
-0.00415429
-0.0456064
-0.0344926
-0.013836
-0.007094
-0.00394251
-0.00226931
-0.00132132
-0.00075796
-0.000416563
-0.000213599
-9.79812e-05
-3.5359e-05
-3.35259e-06
1.12523e-05
1.80409e-05
0.0547998
0.0212843
0.0080214
0.00332913
0.00151867
0.000751797
0.000402479
0.0002324
0.000143518
9.34239e-05
6.31952e-05
4.39349e-05
3.11283e-05
2.23123e-05
1.6495e-05
0.0106318
0.00520108
0.00229571
0.00114103
0.000623139
0.000366117
0.000227674
0.000147431
9.79254e-05
6.60765e-05
4.50925e-05
3.1067e-05
2.16044e-05
1.5184e-05
1.08337e-05
0.000629692
0.000374424
0.00019026
0.000106331
6.39657e-05
4.06999e-05
2.7009e-05
1.8426e-05
1.27609e-05
8.91192e-06
6.26285e-06
4.42808e-06
3.15372e-06
2.26722e-06
1.6469e-06
-1.01313e-05
-4.37438e-06
-1.24138e-06
-1.59136e-07
1.99335e-07
2.88755e-07
2.82235e-07
2.43966e-07
1.98433e-07
1.5588e-07
1.20096e-07
9.16848e-08
6.98566e-08
5.33568e-08
4.06723e-08
-2.22001e-06
-1.51916e-06
-8.69256e-07
-5.00502e-07
-3.02113e-07
-1.91632e-07
-1.26854e-07
-8.65411e-08
-6.00668e-08
-4.21181e-08
-2.97669e-08
-2.11851e-08
-1.51808e-08
-1.09531e-08
-7.97407e-09
-5.05905e-07
-2.0629e-07
-8.8034e-08
-4.16161e-08
-2.21111e-08
-1.3008e-08
-8.30339e-09
-5.61513e-09
-3.93264e-09
-2.81021e-09
-2.03301e-09
-1.48271e-09
-1.08861e-09
-8.04208e-10
-6.0037e-10
-1.33816e-07
-5.8051e-08
-2.30817e-08
-1.03156e-08
-5.14371e-09
-2.81713e-09
-1.66238e-09
-1.03596e-09
-6.70013e-10
-4.44671e-10
-3.00566e-10
-2.05793e-10
-1.42442e-10
-9.96965e-11
-7.09436e-11
-1.70967e-08
-7.6226e-09
-3.16744e-09
-1.48636e-09
-7.84139e-10
-4.53482e-10
-2.8027e-10
-1.81037e-10
-1.2025e-10
-8.14412e-11
-5.59573e-11
-3.88455e-11
-2.72008e-11
-1.92116e-11
-1.36941e-11
-1.94453e-09
-6.78185e-10
-2.39851e-10
-1.02992e-10
-5.24955e-11
-3.0047e-11
-1.85787e-11
-1.20588e-11
-8.06361e-12
-5.50618e-12
-3.81965e-12
-2.67884e-12
-1.89523e-12
-1.35192e-12
-9.70588e-13
-1.54869e-10
-5.21276e-11
-1.52666e-11
-6.29831e-12
-3.14774e-12
-1.73914e-12
-1.0214e-12
-6.22526e-13
-3.8881e-13
-2.47867e-13
-1.60886e-13
-1.05929e-13
-7.06084e-14
-4.76828e-14
-3.23476e-14
2.71323e-11
7.7741e-12
2.35611e-12
7.17672e-13
2.35015e-13
8.11778e-14