/*--------------------------------*- C++ -*----------------------------------*\
  =========                 |
  \\      /  F ield         | OpenFOAM: The Open Source CFD Toolbox
   \\    /   O peration     | Website:  https://openfoam.org
    \\  /    A nd           | Version:  8
     \\/     M anipulation  |
\*---------------------------------------------------------------------------*/
FoamFile
{
    version     2.0;
    format      ascii;
    class       volScalarField;
    location    "0.1";
    object      p;
}
// * * * * * * * * * * * * * * * * * * * * * * * * * * * * * * * * * * * * * //

dimensions      [0 2 -2 0 0 0 0];

internalField   nonuniform List<scalar> 
576
(
1.9422e-07
3.73778
3.81992
4.01747
4.08501
4.1277
4.15511
4.1766
4.19602
4.21538
4.23572
4.25759
4.28137
4.30755
4.33691
4.37079
4.41128
4.46195
4.52781
4.62236
4.74869
5.03984
5.21172
9.25337
0.417044
3.58702
3.74853
3.98108
4.06293
4.11362
4.1458
4.17031
4.19177
4.21256
4.23397
4.2567
4.28126
4.30825
4.33859
4.37376
4.41605
4.46943
4.53953
4.64157
4.78074
5.10783
5.3443
8.81045
0.91895
3.44444
3.68047
3.93834
4.03674
4.09637
4.13421
4.1624
4.18635
4.20894
4.23168
4.25548
4.28101
4.30901
4.34054
4.37724
4.42169
4.47824
4.5533
4.66336
4.81758
5.16845
5.46292
8.2556
1.48525
3.34621
3.63333
3.89424
4.00827
4.07655
4.12051
4.15283
4.17969
4.20438
4.22872
4.25381
4.2805
4.30967
4.34254
4.38097
4.42777
4.48768
4.5679
4.68499
4.85367
5.20235
5.54068
7.62365
2.10311
3.31757
3.61317
3.85456
3.97871
4.05427
4.10429
4.14111
4.17132
4.19852
4.22479
4.25146
4.27953
4.31008
4.34449
4.3848
4.43408
4.49732
4.58227
4.70431
4.88227
5.20341
5.55302
6.93983
2.71554
3.37262
3.62816
3.83088
3.95342
4.03221
4.08675
4.12771
4.16134
4.19128
4.21976
4.24824
4.2779
4.30997
4.346
4.38815
4.43967
4.50552
4.59332
4.71595
4.8913
5.16434
5.47774
6.25789
3.23838
3.50955
3.68682
3.83641
3.94206
4.01655
4.07163
4.11483
4.15104
4.18341
4.21401
4.24432
4.2756
4.30915
4.3466
4.39017
4.44299
4.50956
4.59624
4.71204
4.86832
5.07827
5.30728
5.65361
3.62772
3.69449
3.78564
3.87894
3.95578
4.01669
4.06608
4.10759
4.144
4.17738
4.20926
4.24088
4.27338
4.30799
4.34626
4.39021
4.44247
4.50644
4.58614
4.68579
4.8084
4.94967
5.07798
5.17844
3.8926
3.88175
3.91037
3.95589
4.00092
4.04195
4.07941
4.1141
4.14686
4.17847
4.20968
4.24118
4.27378
4.30844
4.34631
4.38889
4.43787
4.49501
4.56158
4.63763
4.72057
4.80027
4.84973
4.84549
4.07088
4.04193
4.03898
4.05306
4.07263
4.09422
4.11725
4.14153
4.16696
4.19353
4.2213
4.25044
4.28125
4.31419
4.3498
4.38872
4.43149
4.47823
4.52817
4.57911
4.62674
4.66212
4.66783
4.63429
4.19288
4.16433
4.1503
4.14872
4.15312
4.16118
4.17244
4.18673
4.20388
4.22373
4.24609
4.27082
4.29782
4.32706
4.35844
4.39181
4.42673
4.46225
4.4966
4.52707
4.54999
4.55976
4.54774
4.51351
4.26391
4.23831
4.22201
4.21496
4.21304
4.21469
4.21966
4.22789
4.23935
4.25394
4.27153
4.29192
4.31489
4.34012
4.36723
4.39563
4.42438
4.45206
4.47667
4.49572
4.50646
4.50562
4.48918
4.45986
4.26416
4.23855
4.22224
4.21518
4.21324
4.21488
4.21982
4.22804
4.23948
4.25405
4.27162
4.29199
4.31495
4.34016
4.36726
4.39565
4.4244
4.45207
4.47668
4.49573
4.50647
4.50563
4.48919
4.45986
4.19361
4.16504
4.15098
4.14934
4.15369
4.16169
4.1729
4.18713
4.20423
4.22402
4.24634
4.27103
4.29799
4.32719
4.35854
4.39189
4.42679
4.46229
4.49663
4.5271
4.55002
4.55979
4.54777
4.51353
4.07213
4.04311
4.04008
4.05404
4.0735
4.09499
4.11792
4.14212
4.16747
4.19397
4.22167
4.25075
4.2815
4.31439
4.34995
4.38884
4.43157
4.47829
4.52821
4.57915
4.62677
4.66215
4.66785
4.63433
3.89444
3.88345
3.91188
3.9572
4.00204
4.04291
4.08025
4.11483
4.14749
4.17902
4.21014
4.24157
4.27409
4.30868
4.3465
4.38903
4.43797
4.49508
4.56163
4.63767
4.7206
4.8003
4.84976
4.84553
3.63025
3.69675
3.78755
3.88052
3.9571
4.0178
4.06703
4.10841
4.14471
4.17799
4.20978
4.24131
4.27372
4.30826
4.34647
4.39036
4.44257
4.50651
4.58619
4.68583
4.80844
4.9497
5.07802
5.17849
3.24177
3.51244
3.6891
3.8382
3.94353
4.01776
4.07265
4.1157
4.15179
4.18406
4.21455
4.24477
4.27595
4.30942
4.3468
4.39032
4.44309
4.50962
4.59629
4.71209
4.86837
5.07832
5.30733
5.65366
2.72006
3.37624
3.63075
3.83283
3.955
4.03352
4.08782
4.12862
4.16212
4.19196
4.22033
4.2487
4.27825
4.31023
4.34618
4.38829
4.43977
4.50559
4.59337
4.716
4.89135
5.16441
5.47781
6.25796
2.10924
3.3221
3.61602
3.85662
3.98039
4.05565
4.10542
4.14205
4.17212
4.19922
4.22538
4.25192
4.27988
4.31032
4.34466
4.38492
4.43417
4.49738
4.58232
4.70437
4.88234
5.20348
5.5531
6.93991
1.49391
3.35181
3.63638
3.89639
4.01003
4.07799
4.12168
4.15379
4.18051
4.2051
4.22933
4.25429
4.28084
4.3099
4.3427
4.38107
4.42786
4.48775
4.56795
4.68507
4.85375
5.20244
5.54077
7.62373
0.931562
3.45114
3.68369
3.94056
4.03856
4.09786
4.13541
4.16337
4.18718
4.20966
4.23229
4.25596
4.28135
4.30923
4.34068
4.37733
4.42177
4.47831
4.55336
4.66344
4.81765
5.16854
5.46302
8.25569
0.43434
3.59478
3.75191
3.98337
4.06479
4.11515
4.14702
4.17129
4.1926
4.2133
4.2346
4.25719
4.2816
4.30847
4.33873
4.37385
4.41612
4.46951
4.53958
4.64165
4.78081
5.10791
5.3444
8.81053
0.0216282
3.74631
3.82344
4.0198
4.08689
4.12925
4.15636
4.17759
4.19685
4.21612
4.23636
4.25808
4.28172
4.30777
4.33705
4.37088
4.41135
4.46203
4.52787
4.62243
4.74876
5.03992
5.21181
9.25345
)
;

boundaryField
{
    movingWall
    {
        type            zeroGradient;
    }
    fixedWalls
    {
        type            zeroGradient;
    }
    frontAndBack
    {
        type            empty;
    }
}


// ************************************************************************* //
