/*--------------------------------*- C++ -*----------------------------------*\
  =========                 |
  \\      /  F ield         | OpenFOAM: The Open Source CFD Toolbox
   \\    /   O peration     | Website:  https://openfoam.org
    \\  /    A nd           | Version:  8
     \\/     M anipulation  |
\*---------------------------------------------------------------------------*/
FoamFile
{
    version     2.0;
    format      ascii;
    class       surfaceScalarField;
    location    "0.1";
    object      phi;
}
// * * * * * * * * * * * * * * * * * * * * * * * * * * * * * * * * * * * * * //

dimensions      [0 3 -1 0 0 0 0];

internalField   nonuniform List<scalar> 
1104
(
0.00105603
-0.00105603
0.00113679
-8.07583e-05
0.0011705
-3.3713e-05
0.00118605
-1.55512e-05
0.00119553
-9.47627e-06
0.00120146
-5.93046e-06
0.00120535
-3.89607e-06
0.00120796
-2.60207e-06
0.0012097
-1.74302e-06
0.00121084
-1.14501e-06
0.00121155
-7.03469e-07
0.00121189
-3.47278e-07
0.00121192
-2.16942e-08
0.00121159
3.22127e-07
0.00121086
7.35875e-07
0.00120957
1.28524e-06
0.00120751
2.06432e-06
0.00120427
3.24276e-06
0.00119919
5.08028e-06
0.00119072
8.46662e-06
0.00117673
1.3993e-05
0.00114351
3.32161e-05
0.00106295
8.05573e-05
0.00106295
0.000957262
-0.00201329
0.00120591
-0.000329408
0.00133528
-0.000163083
0.00139948
-7.9748e-05
0.001439
-4.89966e-05
0.00146413
-3.10565e-05
0.00148076
-2.05343e-05
0.00149196
-1.37964e-05
0.00149951
-9.29062e-06
0.0015045
-6.13767e-06
0.0015076
-3.80092e-06
0.00150916
-1.91327e-06
0.00150933
-1.91176e-07
0.00150803
1.61913e-06
0.00150498
3.78638e-06
0.00149962
6.65049e-06
0.00149099
1.06977e-05
0.00147744
1.67862e-05
0.00145626
2.62658e-05
0.00142136
4.33607e-05
0.00136384
7.15153e-05
0.00123709
0.000159961
0.000989523
0.000328129
0.00205248
0.00072303
-0.00273632
0.00116172
-0.000768103
0.00142963
-0.000430987
0.00157761
-0.000227728
0.00167064
-0.000142033
0.00173113
-9.15386e-05
0.00177165
-6.10586e-05
0.00179918
-4.13253e-05
0.00181789
-2.80007e-05
0.00183036
-1.86105e-05
0.00183818
-1.16152e-05
0.00184221
-5.95024e-06
0.00184281
-7.86741e-07
0.00183981
4.62068e-06
0.00183253
1.10621e-05
0.00181965
1.9531e-05
0.0017989
3.14457e-05
0.00176645
4.92357e-05
0.00171587
7.68531e-05
0.00163411
0.000125116
0.00150017
0.000205458
0.00123714
0.000422986
0.000793675
0.000771597
0.00284615
0.000355485
-0.00309181
0.000960151
-0.00137277
0.00138776
-0.000858599
0.00165919
-0.000499151
0.001837
-0.000319844
0.00195643
-0.000210975
0.00203802
-0.000142642
0.00209424
-9.75482e-05
0.00213289
-6.66507e-05
0.00215892
-4.46386e-05
0.00217541
-2.81088e-05
0.00218412
-1.46598e-05
0.00218573
-2.39481e-06
0.00217994
1.0407e-05
0.00216543
2.55728e-05
0.00213958
4.53817e-05
0.00209796
7.3067e-05
0.00203324
0.000113953
0.0019332
0.000176894
0.00177595
0.000282372
0.001524
0.000457403
0.00109741
0.000849581
0.000463079
0.00140593
0.00330923
-6.33738e-05
-0.00302843
0.000584527
-0.00202067
0.00114486
-0.00141893
0.001562
-0.000916295
0.00185508
-0.000612929
0.00206127
-0.000417163
0.00220644
-0.000287814
0.00230867
-0.000199773
0.00238011
-0.000138094
0.00242889
-9.34134e-05
0.00246021
-5.94357e-05
0.00247711
-3.15605e-05
0.00248078
-6.06209e-06
0.0024707
2.04907e-05
0.00244452
5.1753e-05
0.00239766
9.22355e-05
0.0023225
0.00014823
0.00220684
0.00022961
0.0020312
0.00035254
0.00176531
0.000548254
0.00136103
0.000861691
0.000779139
0.00143147
5.50431e-05
0.00213002
0.00336427
-0.000424491
-0.00260394
8.19404e-05
-0.0025271
0.000676563
-0.00201355
0.00120768
-0.00144741
0.00162184
-0.00102709
0.00193294
-0.000728259
0.00216207
-0.000516949
0.00232867
-0.000366372
0.00244793
-0.000257349
0.00253088
-0.000176364
0.00258501
-0.000113571
0.00261479
-6.13361e-05
0.00262194
-1.32145e-05
0.00260555
3.6877e-05
0.00256186
9.54504e-05
0.00248368
0.000170413
0.00235948
0.00027243
0.00217192
0.00041717
0.00189598
0.000628475
0.00150023
0.000944012
0.000950526
0.00141139
0.000287462
0.00209453
-0.000345366
0.00276285
0.00301891
-0.000590674
-0.00201327
-0.000410765
-0.00270701
4.43351e-05
-0.00246865
0.000572926
-0.001976
0.00105198
-0.00150615
0.00144721
-0.00112348
0.00175788
-0.000827619
0.00199457
-0.000603066
0.00216994
-0.000432716
0.00229508
-0.000301506
0.0023783
-0.000196789
0.00242472
-0.00010776
0.00243618
-2.46684e-05
0.00241102
6.20371e-05
0.00234383
0.000162637
0.00222497
0.000289273
0.00204004
0.000457354
0.00176997
0.000687243
0.00139309
0.00100536
0.000895069
0.00144203
0.00029231
0.00201415
-0.000284328
0.00267117
-0.000596322
0.00307484
0.00242258
-0.000563731
-0.00144954
-0.000757899
-0.00251284
-0.000608021
-0.00261853
-0.000263037
-0.00232098
0.0001405
-0.00190969
0.000526071
-0.00150905
0.000860298
-0.00116185
0.00113321
-0.000875982
0.0013458
-0.000645298
0.00150293
-0.000458635
0.00160966
-0.000303526
0.00166932
-0.000167418
0.00168246
-3.7806e-05
0.00164631
9.81803e-05
0.00155454
0.000254414
0.00139737
0.00044644
0.00116279
0.000691936
0.000839909
0.00101012
0.000427184
0.00141808
-5.02541e-05
0.00191947
-0.000511719
0.00247562
-0.000781957
0.00294141
-0.000649873
0.00294276
0.00177271
-0.00044986
-0.000999676
-0.00091104
-0.00205166
-0.00113805
-0.00239152
-0.00114109
-0.00231795
-0.00100039
-0.00205038
-0.000791884
-0.00171756
-0.000567852
-0.00138588
-0.000359126
-0.00108471
-0.000181793
-0.000822632
-4.33425e-05
-0.000597085
5.28978e-05
-0.000399766
0.000104904
-0.000219424
0.000110261
-4.31627e-05
6.5512e-05
0.000142929
-3.37495e-05
0.000353676
-0.000191397
0.000604087
-0.00040742
0.00090796
-0.000671702
0.0012744
-0.000954037
0.00170042
-0.00119125
0.00215668
-0.00127856
0.00256292
-0.00108779
0.00275064
-0.000571064
0.00242603
0.00120165
-0.000355769
-0.000643907
-0.000953737
-0.00145369
-0.00151269
-0.00183256
-0.00192817
-0.00190247
-0.00219247
-0.00178608
-0.0023358
-0.00157423
-0.00239596
-0.00132571
-0.00240612
-0.00107456
-0.00239146
-0.000837289
-0.00236978
-0.000618768
-0.00235309
-0.000416454
-0.00234923
-0.000223284
-0.00236294
-2.94489e-05
-0.00239552
0.000175504
-0.00244478
0.000402939
-0.00250257
0.000661879
-0.00255174
0.00095713
-0.00256222
0.00128488
-0.00248791
0.00162611
-0.00226858
0.00193735
-0.00184529
0.00213964
-0.00120429
0.00210964
-0.000465337
0.00168708
0.00073631
-0.000316315
-0.000327592
-0.000994223
-0.000775785
-0.00180324
-0.00102354
-0.00259563
-0.00111008
-0.0032967
-0.00108502
-0.00387954
-0.000991396
-0.0043439
-0.000861349
-0.00470207
-0.000716387
-0.00497027
-0.000569085
-0.0051639
-0.000425135
-0.00529506
-0.000285295
-0.00537128
-0.000147063
-0.00539503
-5.70636e-06
-0.00536238
0.000142861
-0.00526365
0.0003042
-0.00508225
0.000480479
-0.00479539
0.00067027
-0.00437617
0.000865662
-0.00379924
0.00104918
-0.00305257
0.00119068
-0.00215846
0.00124552
-0.00120552
0.0011567
-0.000385233
0.000866793
0.000351077
-0.000327568
-2.36144e-08
-0.00110342
7.02803e-08
-0.00212713
1.62317e-07
-0.00323744
2.27778e-07
-0.00432272
2.68238e-07
-0.0053144
2.85995e-07
-0.00617604
2.84266e-07
-0.00689269
2.66313e-07
-0.00746201
2.35e-07
-0.00788734
1.92738e-07
-0.00817277
1.41622e-07
-0.00831992
8.35163e-08
-0.00832565
1.97981e-08
-0.00818274
-4.59571e-08
-0.00787843
-1.12659e-07
-0.00739777
-1.76645e-07
-0.00672727
-2.33851e-07
-0.00586133
-2.79286e-07
-0.00481184
-3.07371e-07
-0.00362084
-3.12783e-07
-0.00237503
-2.91306e-07
-0.00121808
-2.40388e-07
-0.000351131
-1.60138e-07
-5.34298e-08
-0.00032754
0.000327516
-0.00110335
0.000775879
-0.00212701
0.00102382
-0.00323728
0.0011105
-0.00432253
0.00108552
-0.00531419
0.000991945
-0.00617581
0.000861903
-0.00689246
0.000716914
-0.00746178
0.000569559
-0.00788712
0.000425531
-0.00817258
0.000285595
-0.00831974
0.000147252
-0.0083255
5.77349e-06
-0.00818262
-0.000142924
-0.00787834
-0.000304394
-0.00739772
-0.0004808
-0.00672724
-0.000670707
-0.00586133
-0.000866193
-0.00481186
-0.00104977
-0.00362088
-0.0011913
-0.00237506
-0.00124611
-0.00121811
-0.00115719
-0.00035114
-0.000867129
-0.000351194
-0.000316206
0.000643722
-0.000993969
0.00145364
-0.00180287
0.00183272
-0.00259515
0.00190278
-0.00329614
0.00178651
-0.00387892
0.00157473
-0.00434325
0.00132623
-0.00470139
0.00107506
-0.00496959
0.000837753
-0.00516323
0.00061917
-0.00529441
0.000416774
-0.00537066
0.000223507
-0.00539445
2.95626e-05
-0.00536187
-0.000175508
-0.0052632
-0.000403062
-0.00508188
-0.00066212
-0.0047951
-0.000957481
-0.00437597
-0.00128533
-0.00379912
-0.00162662
-0.00305252
-0.0019379
-0.00215845
-0.00214017
-0.00120553
-0.00211011
-0.000385242
-0.00168742
-0.000736435
-0.000355609
0.000999331
-0.000953401
0.00205143
-0.00151222
0.00239154
-0.0019276
0.00231817
-0.00219182
0.00205073
-0.00233508
0.00171799
-0.00239519
0.00138633
-0.00240529
0.00108516
-0.00239059
0.000823057
-0.00236889
0.000597463
-0.00235219
0.000400078
-0.00234834
0.000219656
-0.00236208
4.33021e-05
-0.0023947
-0.000142888
-0.00244403
-0.000353735
-0.0025019
-0.000604244
-0.00255117
-0.00090821
-0.00256176
-0.00127474
-0.00248757
-0.00170081
-0.00226835
-0.00215712
-0.00184517
-0.00256336
-0.00120424
-0.00275104
-0.000465329
-0.00242633
-0.00120176
-0.000449686
0.00144902
-0.000910737
0.00251249
-0.00113768
0.00261848
-0.00114067
0.00232116
-0.000999926
0.00190999
-0.000791355
0.00150941
-0.000567251
0.00116223
-0.000358452
0.000876361
-0.000181051
0.000645656
-4.25442e-05
0.000458956
5.37376e-05
0.000303796
0.000105768
0.000167625
0.000111128
3.79418e-05
6.63609e-05
-9.81207e-05
-3.29419e-05
-0.000254432
-0.000190653
-0.000446533
-0.000406761
-0.000692101
-0.000671146
-0.00101035
-0.000953597
-0.00141836
-0.00119093
-0.00191978
-0.00127836
-0.00247594
-0.0010877
-0.0029417
-0.000571042
-0.00294298
-0.00177281
-0.000563608
0.00201263
-0.000757738
0.00270662
-0.000607872
0.00246862
-0.000262891
0.00197618
0.00014068
0.00150642
0.000526317
0.00112378
0.000860625
0.00082792
0.00113363
0.000603357
0.0013463
0.000432988
0.0015035
0.000301751
0.0016103
0.000196998
0.00167
0.000107923
0.00168316
2.47798e-05
0.00164702
-6.19804e-05
0.00155523
-0.000162635
0.00139802
-0.000289325
0.00116338
-0.000457457
0.000840416
-0.000687392
0.000427598
-0.00100555
-4.99461e-05
-0.00144224
-0.000511517
-0.00201436
-0.000781853
-0.00267136
-0.000649846
-0.00307499
-0.00242265
-0.00059068
0.00260331
-0.000410801
0.00252674
4.4246e-05
0.00201357
0.00057283
0.00144759
0.00105193
0.00102731
0.00144723
0.000728478
0.00175799
0.000517163
0.00199477
0.000366575
0.00217022
0.000257536
0.00229544
0.000176532
0.00237873
0.000113715
0.0024252
6.14498e-05
0.00243669
1.32941e-05
0.00241154
-3.68331e-05
0.00234435
-9.54426e-05
0.00222546
-0.000170441
0.0020405
-0.000272493
0.00177036
-0.00041726
0.00139341
-0.000628596
0.000895313
-0.000944138
0.000292472
-0.00141152
-0.000284242
-0.00209465
-0.000596296
-0.00276294
-0.00301895
-0.000424645
0.00302795
8.17436e-05
0.00202035
0.000676318
0.001419
0.00120745
0.000916459
0.00162168
0.000613083
0.00193285
0.000417305
0.00216207
0.00028795
0.00232874
0.000199899
0.00244807
0.000138209
0.00253109
9.35155e-05
0.00258528
5.95237e-05
0.0026151
3.16309e-05
0.00262228
6.11225e-06
0.00260591
-2.04618e-05
0.00256221
-5.17456e-05
0.00248402
-9.22492e-05
0.00235979
-0.000148266
0.00217219
-0.00022966
0.00189621
-0.000352613
0.0015004
-0.000548324
0.000950638
-0.000861766
0.000287522
-0.00143153
-0.000345347
-0.00213007
-0.0033643
-6.36056e-05
0.00309156
0.000584252
0.00137249
0.00114457
0.000858679
0.00156176
0.000499265
0.00185491
0.000319932
0.00206117
0.000211052
0.0022064
0.000142716
0.00230868
9.76168e-05
0.00238018
6.67119e-05
0.002429
4.46932e-05
0.00246037
2.81563e-05
0.0024773
1.46981e-05
0.00248099
2.42247e-06
0.00247092
-1.03906e-05
0.00244474
-2.55679e-05
0.00239788
-4.53876e-05
0.0023227
-7.30856e-05
0.00220702
-0.000113977
0.00203134
-0.000176933
0.00176542
-0.000282407
0.00136109
-0.00045744
0.000779175
-0.000849614
5.5055e-05
-0.00140595
-0.00330924
0.000355283
0.00273627
0.000959891
0.000767883
0.00138753
0.000431042
0.00165901
0.000227784
0.00183687
0.000142071
0.00195635
9.15728e-05
0.00203797
6.10928e-05
0.00209423
4.13565e-05
0.00213292
2.80282e-05
0.00215897
1.86351e-05
0.00217549
1.16369e-05
0.00218422
5.96773e-06
0.00218585
7.99524e-07
0.00218007
-4.61298e-06
0.00216556
-1.10596e-05
0.00213971
-1.95329e-05
0.00209808
-3.14542e-05
0.00203334
-4.92456e-05
0.00193328
-7.6871e-05
0.00177601
-0.000125132
0.00152404
-0.000205475
0.00109743
-0.000423
0.000463085
-0.000771606
-0.00284615
0.00072294
0.00201333
0.00116155
0.000329277
0.00142949
0.000163102
0.00157751
7.97652e-05
0.00167057
4.90082e-05
0.00173107
3.10678e-05
0.00177162
2.05461e-05
0.00179917
1.3807e-05
0.0018179
9.29994e-06
0.00183039
6.14622e-06
0.00183822
3.80858e-06
0.00184226
1.91941e-06
0.00184287
1.9563e-07
0.00183987
-1.61645e-06
0.0018326
-3.7855e-06
0.00181971
-6.65082e-06
0.00179896
-1.07006e-05
0.0017665
-1.67893e-05
0.00171591
-2.62722e-05
0.00163414
-4.33658e-05
0.00150019
-7.15209e-05
0.00123715
-0.000159966
0.000793678
-0.000328132
-0.00205248
0.000957267
0.00105607
0.00120583
8.07094e-05
0.00133522
3.37121e-05
0.00139944
1.55535e-05
0.00143897
9.4781e-06
0.0014641
5.93253e-06
0.00148075
3.89832e-06
0.00149195
2.60402e-06
0.00149951
1.74474e-06
0.00150451
1.14669e-06
0.00150761
7.05031e-07
0.00150918
3.48489e-07
0.00150936
2.25317e-08
0.00150806
-3.21644e-07
0.00150501
-7.35744e-07
0.00149964
-1.28528e-06
0.00149101
-2.06494e-06
0.00147746
-3.24328e-06
0.00145627
-5.0816e-06
0.00142137
-8.46755e-06
0.00136385
-1.39941e-05
0.0012371
-3.3217e-05
0.000989524
-8.05578e-05
-0.00106295
0.00105607
0.00113678
0.00117049
0.00118604
0.00119552
0.00120145
0.00120535
0.00120795
0.0012097
0.00121085
0.00121155
0.0012119
0.00121192
0.0012116
0.00121086
0.00120958
0.00120751
0.00120427
0.00119919
0.00119072
0.00117673
0.00114351
0.00106295
)
;

boundaryField
{
    movingWall
    {
        type            calculated;
        value           uniform 0;
    }
    fixedWalls
    {
        type            calculated;
        value           uniform 0;
    }
    frontAndBack
    {
        type            empty;
        value           nonuniform List<scalar> 0();
    }
}


// ************************************************************************* //
