/*--------------------------------*- C++ -*----------------------------------*\
  =========                 |
  \\      /  F ield         | OpenFOAM: The Open Source CFD Toolbox
   \\    /   O peration     | Website:  https://openfoam.org
    \\  /    A nd           | Version:  8
     \\/     M anipulation  |
\*---------------------------------------------------------------------------*/
FoamFile
{
    version     2.0;
    format      ascii;
    class       volVectorField;
    location    "0.1";
    object      U;
}
// * * * * * * * * * * * * * * * * * * * * * * * * * * * * * * * * * * * * * //

dimensions      [0 1 -1 0 0 0 0];

internalField   nonuniform List<vector> 
576
(
(0.84279 -0.0655943 0)
(0.884897 -0.004458 0)
(0.937855 -0.00164349 0)
(0.952029 -0.000679005 0)
(0.961843 -0.000410249 0)
(0.967625 -0.000250649 0)
(0.971415 -0.000162742 0)
(0.973931 -0.000107579 0)
(0.975621 -7.1409e-05 0)
(0.976747 -4.63988e-05 0)
(0.97747 -2.80399e-05 0)
(0.977883 -1.32844e-05 0)
(0.97803 2.41593e-07 0)
(0.977917 1.46528e-05 0)
(0.977509 3.21878e-05 0)
(0.976727 5.57042e-05 0)
(0.97543 8.92872e-05 0)
(0.973391 0.00014067 0)
(0.970169 0.000220728 0)
(0.965224 0.000375684 0)
(0.956093 0.000617585 0)
(0.943962 0.00164617 0)
(0.888951 0.004349 0)
(0.851536 0.0657967 0)
(0.563489 -0.195413 0)
(0.659977 -0.0220695 0)
(0.798729 -0.00978813 0)
(0.844249 -0.00447508 0)
(0.875026 -0.00272019 0)
(0.893644 -0.00169942 0)
(0.905923 -0.00111544 0)
(0.914143 -0.000744771 0)
(0.9197 -0.000498816 0)
(0.923429 -0.000327571 0)
(0.925841 -0.000201078 0)
(0.927237 -9.89943e-05 0)
(0.927765 -5.64202e-06 0)
(0.927443 9.29523e-05 0)
(0.926167 0.000211588 0)
(0.923687 0.000369097 0)
(0.919559 0.000592452 0)
(0.913063 0.000930672 0)
(0.902839 0.00145813 0)
(0.887099 0.00243744 0)
(0.858834 0.00402534 0)
(0.819679 0.00966263 0)
(0.675527 0.0217199 0)
(0.591399 0.19708 0)
(0.310032 -0.300372 0)
(0.427621 -0.0637946 0)
(0.63021 -0.0330752 0)
(0.710433 -0.01655 0)
(0.764856 -0.0101569 0)
(0.798859 -0.00645538 0)
(0.821537 -0.0042703 0)
(0.836881 -0.00287146 0)
(0.847341 -0.00193509 0)
(0.854413 -0.00127942 0)
(0.859025 -0.000793234 0)
(0.861731 -0.000400432 0)
(0.862803 -4.22015e-05 0)
(0.862284 0.000334155 0)
(0.859986 0.000784462 0)
(0.855461 0.00137927 0)
(0.847905 0.00221972 0)
(0.836012 0.00348299 0)
(0.817399 0.00545343 0)
(0.78875 0.0089803 0)
(0.739025 0.0148562 0)
(0.668572 0.0323888 0)
(0.456794 0.0634172 0)
(0.352682 0.308086 0)
(0.111984 -0.363836 0)
(0.21134 -0.129703 0)
(0.440418 -0.0760092 0)
(0.551549 -0.0417643 0)
(0.629221 -0.026166 0)
(0.680011 -0.016969 0)
(0.714559 -0.0113492 0)
(0.738314 -0.00769848 0)
(0.754705 -0.00522588 0)
(0.7659 -0.00347954 0)
(0.773276 -0.00217652 0)
(0.777665 -0.00112047 0)
(0.779485 -0.000158114 0)
(0.778804 0.000848658 0)
(0.775346 0.00204627 0)
(0.768438 0.00361845 0)
(0.756876 0.00582783 0)
(0.738711 0.00911792 0)
(0.710538 0.0142273 0)
(0.667426 0.0230221 0)
(0.596015 0.0378227 0)
(0.494555 0.0745784 0)
(0.250832 0.131221 0)
(0.156774 0.383411 0)
(-0.0112542 -0.377085 0)
(0.03987 -0.209473 0)
(0.248252 -0.138181 0)
(0.37553 -0.084237 0)
(0.470263 -0.0547328 0)
(0.536223 -0.0364755 0)
(0.582584 -0.0248058 0)
(0.615245 -0.0170345 0)
(0.638191 -0.011677 0)
(0.65409 -0.00784346 0)
(0.664701 -0.00495569 0)
(0.67111 -0.00260193 0)
(0.673876 -0.000454936 0)
(0.67309 0.00178323 0)
(0.668379 0.00442919 0)
(0.658839 0.00787652 0)
(0.642874 0.012682 0)
(0.617931 0.0197467 0)
(0.579816 0.0305788 0)
(0.522441 0.0483796 0)
(0.433124 0.077784 0)
(0.309783 0.13736 0)
(0.0793843 0.217356 0)
(0.0213279 0.412173 0)
(-0.0612494 -0.34277 0)
(-0.0644835 -0.282426 0)
(0.0814426 -0.211657 0)
(0.199775 -0.143962 0)
(0.297719 -0.0987102 0)
(0.371938 -0.0682602 0)
(0.426829 -0.0475811 0)
(0.466927 -0.0332638 0)
(0.495858 -0.0231194 0)
(0.516318 -0.015711 0)
(0.5302 -0.0100443 0)
(0.53872 -0.00537819 0)
(0.542511 -0.00110451 0)
(0.541661 0.00334078 0)
(0.535702 0.00855967 0)
(0.523536 0.0152909 0)
(0.503281 0.0245551 0)
(0.472037 0.037916 0)
(0.425443 0.0578797 0)
(0.357669 0.0888761 0)
(0.260372 0.137126 0)
(0.135698 0.215982 0)
(-0.0383629 0.303071 0)
(-0.0476571 0.39071 0)
(-0.0610728 -0.277773 0)
(-0.100651 -0.324164 0)
(-0.0337863 -0.278674 0)
(0.0489648 -0.211805 0)
(0.130494 -0.155563 0)
(0.199917 -0.112842 0)
(0.255296 -0.0813713 0)
(0.297963 -0.0583256 0)
(0.329973 -0.0413202 0)
(0.353277 -0.0285123 0)
(0.369431 -0.0184789 0)
(0.379503 -0.0100733 0)
(0.384047 -0.00230275 0)
(0.383086 0.00578274 0)
(0.376078 0.0152041 0)
(0.361856 0.0271885 0)
(0.338539 0.0433568 0)
(0.303474 0.0659967 0)
(0.253278 0.0983829 0)
(0.184603 0.145065 0)
(0.0962929 0.21051 0)
(-0.0016152 0.295417 0)
(-0.0952295 0.361888 0)
(-0.0623807 0.329307 0)
(-0.0410759 -0.206113 0)
(-0.0909288 -0.320278 0)
(-0.0885379 -0.316284 0)
(-0.0553592 -0.268027 0)
(-0.00779054 -0.212773 0)
(0.0410314 -0.163406 0)
(0.0847739 -0.122976 0)
(0.121287 -0.0910547 0)
(0.15031 -0.0661357 0)
(0.172333 -0.0465208 0)
(0.188031 -0.0306009 0)
(0.197944 -0.016897 0)
(0.202329 -0.00401321 0)
(0.201065 0.00944932 0)
(0.19361 0.0250043 0)
(0.178985 0.0444051 0)
(0.155835 0.0697842 0)
(0.122654 0.103747 0)
(0.0783678 0.149214 0)
(0.0237839 0.208487 0)
(-0.0353922 0.279966 0)
(-0.0841095 0.350051 0)
(-0.101914 0.371438 0)
(-0.0482939 0.250826 0)
(-0.0224503 -0.144473 0)
(-0.06575 -0.276529 0)
(-0.0977019 -0.309169 0)
(-0.107893 -0.28938 0)
(-0.100091 -0.248405 0)
(-0.0827125 -0.202836 0)
(-0.0620495 -0.160201 0)
(-0.0417907 -0.123207 0)
(-0.0239162 -0.0921624 0)
(-0.00938786 -0.0662547 0)
(0.00137754 -0.0441817 0)
(0.00818397 -0.024434 0)
(0.0108555 -0.0053935 0)
(0.00913325 0.0146561 0)
(0.00264418 0.0375637 0)
(-0.00903273 0.0653193 0)
(-0.0261603 0.0999875 0)
(-0.0484353 0.143414 0)
(-0.0742762 0.196421 0)
(-0.099663 0.256992 0)
(-0.116631 0.31666 0)
(-0.113418 0.35435 0)
(-0.0822458 0.328108 0)
(-0.0291022 0.175989 0)
(-0.0117475 -0.0963364 0)
(-0.0446604 -0.209731 0)
(-0.086629 -0.25759 0)
(-0.122025 -0.261432 0)
(-0.145687 -0.240448 0)
(-0.159248 -0.208035 0)
(-0.165688 -0.172357 0)
(-0.167632 -0.137789 0)
(-0.167115 -0.106206 0)
(-0.165606 -0.0779319 0)
(-0.164114 -0.052373 0)
(-0.163305 -0.0284057 0)
(-0.163604 -0.00460107 0)
(-0.165224 0.0206346 0)
(-0.168152 0.0489446 0)
(-0.172063 0.0818467 0)
(-0.176128 0.120425 0)
(-0.178766 0.164769 0)
(-0.177366 0.213015 0)
(-0.168099 0.259866 0)
(-0.146138 0.29459 0)
(-0.107905 0.29897 0)
(-0.0581619 0.247237 0)
(-0.0157718 0.113385 0)
(-0.00701526 -0.0565338 0)
(-0.0321384 -0.131666 0)
(-0.0728481 -0.171622 0)
(-0.117095 -0.184278 0)
(-0.157523 -0.1785 0)
(-0.191704 -0.161742 0)
(-0.219328 -0.139456 0)
(-0.240907 -0.115209 0)
(-0.257279 -0.0910198 0)
(-0.269326 -0.0677361 0)
(-0.2778 -0.0453888 0)
(-0.283231 -0.0234764 0)
(-0.285888 -0.00118885 0)
(-0.285737 0.0224034 0)
(-0.282418 0.0481485 0)
(-0.275229 0.0765902 0)
(-0.263107 0.107651 0)
(-0.244695 0.140201 0)
(-0.218526 0.171518 0)
(-0.183395 0.196689 0)
(-0.13908 0.208175 0)
(-0.088131 0.195985 0)
(-0.0395228 0.149504 0)
(-0.00871011 0.0623322 0)
(-0.00517056 -0.0187791 0)
(-0.0259352 -0.044988 0)
(-0.0631015 -0.06038 0)
(-0.107793 -0.0668338 0)
(-0.153169 -0.0667043 0)
(-0.19561 -0.062165 0)
(-0.233234 -0.0549609 0)
(-0.265139 -0.0463582 0)
(-0.291058 -0.0371724 0)
(-0.311072 -0.027837 0)
(-0.325373 -0.018491 0)
(-0.334098 -0.00906916 0)
(-0.337229 0.000612029 0)
(-0.334554 0.0107717 0)
(-0.325654 0.0215683 0)
(-0.309937 0.0330109 0)
(-0.286778 0.0448407 0)
(-0.255722 0.0563973 0)
(-0.21681 0.0664832 0)
(-0.170984 0.0732726 0)
(-0.120602 0.0743449 0)
(-0.0703128 0.0669732 0)
(-0.0284793 0.0488615 0)
(-0.00549712 0.0194223 0)
(-0.00516994 0.0187722 0)
(-0.0259332 0.0450039 0)
(-0.0630975 0.0604185 0)
(-0.107788 0.0668885 0)
(-0.153162 0.0667688 0)
(-0.195602 0.0622338 0)
(-0.233225 0.0550293 0)
(-0.26513 0.0464222 0)
(-0.291049 0.0372288 0)
(-0.311063 0.0278832 0)
(-0.325365 0.0185248 0)
(-0.334091 0.00908895 0)
(-0.337223 -0.000607495 0)
(-0.334549 -0.0107831 0)
(-0.325649 -0.0215958 0)
(-0.309934 -0.0330536 0)
(-0.286776 -0.0448971 0)
(-0.255722 -0.0564644 0)
(-0.21681 -0.0665569 0)
(-0.170985 -0.0733474 0)
(-0.120604 -0.0744146 0)
(-0.0703141 -0.0670307 0)
(-0.02848 -0.0488998 0)
(-0.00549729 -0.0194351 0)
(-0.00701258 0.0565185 0)
(-0.0321289 0.131669 0)
(-0.0728313 0.171649 0)
(-0.117073 0.184323 0)
(-0.157496 0.178557 0)
(-0.191673 0.161806 0)
(-0.219295 0.139521 0)
(-0.240871 0.115272 0)
(-0.257242 0.0910767 0)
(-0.26929 0.0677843 0)
(-0.277764 0.045426 0)
(-0.283197 0.0235007 0)
(-0.285857 0.00119894 0)
(-0.285708 -0.0224084 0)
(-0.282392 -0.048169 0)
(-0.275207 -0.0766258 0)
(-0.26309 -0.1077 0)
(-0.244683 -0.140262 0)
(-0.218518 -0.171587 0)
(-0.183391 -0.196762 0)
(-0.139079 -0.208245 0)
(-0.0881314 -0.196045 0)
(-0.0395235 -0.149546 0)
(-0.00871029 -0.062347 0)
(-0.0117431 0.0963045 0)
(-0.0446433 0.209714 0)
(-0.0866012 0.257601 0)
(-0.121989 0.261463 0)
(-0.145645 0.240495 0)
(-0.159201 0.208091 0)
(-0.165636 0.172416 0)
(-0.167576 0.137848 0)
(-0.167056 0.106261 0)
(-0.165545 0.0779806 0)
(-0.164051 0.0524128 0)
(-0.163243 0.0284346 0)
(-0.163543 0.00461767 0)
(-0.165165 -0.0206312 0)
(-0.168097 -0.0489548 0)
(-0.172013 -0.0818704 0)
(-0.176085 -0.120462 0)
(-0.17873 -0.164817 0)
(-0.177338 -0.213071 0)
(-0.168079 -0.259927 0)
(-0.146126 -0.294651 0)
(-0.107899 -0.299025 0)
(-0.0581604 -0.247277 0)
(-0.0157715 -0.113401 0)
(-0.0224445 0.144418 0)
(-0.0657284 0.27649 0)
(-0.0976717 0.309165 0)
(-0.107858 0.289403 0)
(-0.100051 0.248443 0)
(-0.082667 0.202884 0)
(-0.0619976 0.160252 0)
(-0.041732 0.123258 0)
(-0.0238511 0.0922109 0)
(-0.00931721 0.0662982 0)
(0.00145259 0.0442183 0)
(0.00826203 0.0244619 0)
(0.0109349 0.00541153 0)
(0.00921205 -0.0146487 0)
(0.00272029 -0.0375672 0)
(-0.00896147 -0.0653336 0)
(-0.0260959 -0.100012 0)
(-0.0483795 -0.143448 0)
(-0.0742302 -0.196462 0)
(-0.0996283 -0.257037 0)
(-0.116608 -0.316706 0)
(-0.113405 -0.354393 0)
(-0.0822414 -0.32814 0)
(-0.0291013 -0.176002 0)
(-0.0410728 0.206035 0)
(-0.0909134 0.320227 0)
(-0.0885213 0.316277 0)
(-0.0553426 0.268048 0)
(-0.00777152 0.212808 0)
(0.0410566 0.163446 0)
(0.0848084 0.123017 0)
(0.121332 0.0910957 0)
(0.150365 0.0661743 0)
(0.172398 0.0465556 0)
(0.188104 0.0306305 0)
(0.198023 0.0169201 0)
(0.202412 0.00402885 0)
(0.201151 -0.00944159 0)
(0.193695 -0.0250047 0)
(0.179066 -0.0444135 0)
(0.155909 -0.0698002 0)
(0.12272 -0.10377 0)
(0.0784237 -0.149243 0)
(0.0238276 -0.208519 0)
(-0.0353616 -0.279999 0)
(-0.0840916 -0.35008 0)
(-0.101907 -0.371461 0)
(-0.0482927 -0.250836 0)
(-0.0610836 0.27768 0)
(-0.100662 0.324111 0)
(-0.0337993 0.278673 0)
(0.0489495 0.211828 0)
(0.130482 0.155593 0)
(0.199915 0.112873 0)
(0.255306 0.0814027 0)
(0.297988 0.0583557 0)
(0.330012 0.0413481 0)
(0.353328 0.0285374 0)
(0.369493 0.0185002 0)
(0.379575 0.0100901 0)
(0.384125 0.00231438 0)
(0.383168 -0.0057765 0)
(0.376161 -0.0152033 0)
(0.361936 -0.027193 0)
(0.338614 -0.0433666 0)
(0.303541 -0.066011 0)
(0.253336 -0.0984016 0)
(0.184648 -0.145085 0)
(0.096325 -0.210531 0)
(-0.0015958 -0.295435 0)
(-0.095222 -0.361901 0)
(-0.0623795 -0.329314 0)
(-0.0612863 0.342678 0)
(-0.0645392 0.282378 0)
(0.0813941 0.211663 0)
(0.199728 0.143984 0)
(0.29768 0.0987333 0)
(0.371912 0.0682822 0)
(0.42682 0.0476022 0)
(0.466935 0.0332836 0)
(0.495882 0.0231375 0)
(0.516356 0.0157271 0)
(0.53025 0.0100581 0)
(0.53878 0.00538909 0)
(0.542579 0.00111215 0)
(0.541733 -0.00333654 0)
(0.535776 -0.00855882 0)
(0.523608 -0.0152934 0)
(0.50335 -0.0245609 0)
(0.472098 -0.0379243 0)
(0.425496 -0.0578912 0)
(0.35771 -0.0888876 0)
(0.260401 -0.137138 0)
(0.135716 -0.215993 0)
(-0.0383562 -0.303078 0)
(-0.047656 -0.390714 0)
(-0.0113212 0.377008 0)
(0.0397672 0.209435 0)
(0.248177 0.138191 0)
(0.375465 0.0842543 0)
(0.47021 0.0547477 0)
(0.536186 0.0364887 0)
(0.582564 0.0248183 0)
(0.615242 0.0170461 0)
(0.638203 0.0116875 0)
(0.654116 0.00785275 0)
(0.664738 0.00496368 0)
(0.671157 0.00260827 0)
(0.67393 0.000459402 0)
(0.673149 -0.00178071 0)
(0.66844 -0.00442857 0)
(0.6589 -0.00787769 0)
(0.642932 -0.0126851 0)
(0.617982 -0.0197508 0)
(0.57986 -0.0305852 0)
(0.522475 -0.0483855 0)
(0.433147 -0.0777905 0)
(0.309797 -0.137365 0)
(0.0793895 -0.217359 0)
(0.0213288 -0.412175 0)
(0.111899 0.363786 0)
(0.211213 0.129677 0)
(0.440338 0.0760185 0)
(0.551483 0.0417746 0)
(0.629169 0.0261737 0)
(0.679973 0.0169756 0)
(0.714536 0.0113556 0)
(0.738305 0.00770422 0)
(0.754709 0.00523094 0)
(0.765915 0.00348407 0)
(0.773301 0.0021805 0)
(0.777698 0.00112367 0)
(0.779524 0.000160391 0)
(0.778848 -0.000847354 0)
(0.775392 -0.00204593 0)
(0.768484 -0.00361892 0)
(0.75692 -0.00582933 0)
(0.738749 -0.00911976 0)
(0.710571 -0.0142306 0)
(0.667451 -0.0230248 0)
(0.596032 -0.0378257 0)
(0.494566 -0.0745811 0)
(0.250835 -0.131223 0)
(0.156774 -0.383411 0)
(0.309955 0.300411 0)
(0.427514 0.0637707 0)
(0.63015 0.0330783 0)
(0.710383 0.0165538 0)
(0.764816 0.0101594 0)
(0.798829 0.00645782 0)
(0.821517 0.00427289 0)
(0.836872 0.00287378 0)
(0.847341 0.00193713 0)
(0.854421 0.0012813 0)
(0.85904 0.000794897 0)
(0.861752 0.000401745 0)
(0.862829 4.3095e-05 0)
(0.862313 -0.000333697 0)
(0.860016 -0.000784424 0)
(0.855492 -0.00137963 0)
(0.847934 -0.00222054 0)
(0.836037 -0.00348354 0)
(0.817421 -0.00545469 0)
(0.788766 -0.00898131 0)
(0.739035 -0.0148573 0)
(0.668578 -0.0323899 0)
(0.456797 -0.0634178 0)
(0.352683 -0.308087 0)
(0.563444 0.195427 0)
(0.659921 0.0220712 0)
(0.798703 0.00979106 0)
(0.844223 0.00447649 0)
(0.875003 0.00272093 0)
(0.893626 0.00170005 0)
(0.905911 0.00111604 0)
(0.914137 0.000745234 0)
(0.919699 0.000499154 0)
(0.923432 0.000327905 0)
(0.925848 0.000201466 0)
(0.927248 9.93635e-05 0)
(0.927779 5.99153e-06 0)
(0.927459 -9.26493e-05 0)
(0.926183 -0.000211368 0)
(0.923704 -0.000368852 0)
(0.919575 -0.000592473 0)
(0.913076 -0.000930914 0)
(0.902851 -0.00145859 0)
(0.887108 -0.00243783 0)
(0.85884 -0.0040258 0)
(0.819682 -0.00966293 0)
(0.675528 -0.0217201 0)
(0.5914 -0.19708 0)
(0.842787 0.0656943 0)
(0.884895 0.00445858 0)
(0.937852 0.00164382 0)
(0.952022 0.00067915 0)
(0.961836 0.000410222 0)
(0.96762 0.000250794 0)
(0.971411 0.00016297 0)
(0.973929 0.000107696 0)
(0.97562 7.14588e-05 0)
(0.976748 4.64743e-05 0)
(0.977472 2.81335e-05 0)
(0.977886 1.33452e-05 0)
(0.978034 -2.27926e-07 0)
(0.977922 -1.46766e-05 0)
(0.977514 -3.22401e-05 0)
(0.976732 -5.5801e-05 0)
(0.975435 -8.94434e-05 0)
(0.973395 -0.000140613 0)
(0.970173 -0.000220745 0)
(0.965227 -0.000375762 0)
(0.956095 -0.000617581 0)
(0.943963 -0.00164618 0)
(0.888951 -0.004349 0)
(0.851536 -0.0657967 0)
)
;

boundaryField
{
    movingWall
    {
        type            fixedValue;
        value           uniform (1 0 0);
    }
    fixedWalls
    {
        type            noSlip;
    }
    frontAndBack
    {
        type            empty;
    }
}


// ************************************************************************* //
