/*--------------------------------*- C++ -*----------------------------------*\
  =========                 |
  \\      /  F ield         | OpenFOAM: The Open Source CFD Toolbox
   \\    /   O peration     | Website:  https://openfoam.org
    \\  /    A nd           | Version:  7
     \\/     M anipulation  |
\*---------------------------------------------------------------------------*/
FoamFile
{
    version     2.0;
    format      ascii;
    class       volVectorField;
    location    "500";
    object      U;
}
// * * * * * * * * * * * * * * * * * * * * * * * * * * * * * * * * * * * * * //

dimensions      [0 1 -1 0 0 0 0];

internalField   nonuniform List<vector> 
32100
(
(-3.11571e-06 6.20859e-17 1.6)
(-7.06673e-06 -1.58269e-16 1.6)
(-1.09078e-05 -1.08118e-16 1.6)
(-1.41952e-05 3.54737e-16 1.6)
(-1.61761e-05 1.06348e-17 1.6)
(-1.58437e-05 2.91e-20 1.6)
(-1.13357e-05 3.52e-18 1.6)
(1.0889e-06 -2.08014e-16 1.6)
(3.02299e-05 1.33761e-16 1.59999)
(9.49034e-05 -5.62284e-18 1.59999)
(0.000237623 -3.21525e-17 1.59998)
(0.000895762 1.52479e-16 1.59993)
(0.00345332 1.50789e-16 1.59832)
(-0.00877672 3.53115e-17 1.5995)
(0.068534 7.25422e-17 1.60054)
(-9.09731e-06 2.00608e-16 1.60001)
(-2.13076e-05 1.7714e-15 1.60001)
(-3.29938e-05 6.61129e-16 1.60001)
(-4.31135e-05 4.71663e-16 1.60001)
(-4.94341e-05 3.61746e-17 1.60001)
(-4.9136e-05 1.27518e-18 1.6)
(-3.69562e-05 -1.75087e-16 1.59999)
(-2.86023e-06 -1.6667e-16 1.59998)
(7.55512e-05 1.63547e-16 1.59994)
(0.000256329 4.44392e-17 1.59985)
(0.000584997 -1.30575e-16 1.59967)
(0.00109576 -3.92356e-16 1.59924)
(0.00867928 7.35768e-16 1.59336)
(-0.0204855 -2.2742e-17 1.59631)
(0.0818804 -1.81597e-17 1.60944)
(-1.51829e-05 -5.75358e-17 1.60004)
(-3.6215e-05 -2.43719e-16 1.60004)
(-5.62422e-05 1.24554e-15 1.60003)
(-7.40627e-05 -2.78496e-15 1.60003)
(-8.61572e-05 6.97181e-17 1.60002)
(-8.85527e-05 -1.22001e-17 1.60001)
(-7.39324e-05 -2.59802e-16 1.59998)
(-2.92497e-05 -2.15319e-16 1.59993)
(6.80058e-05 -1.16954e-15 1.59984)
(0.000284584 2.58768e-16 1.59963)
(0.000771399 -8.82881e-16 1.59909)
(-5.22753e-05 -4.95745e-16 1.59849)
(0.0117451 -6.0534e-16 1.59004)
(-0.0260668 -2.8338e-16 1.59236)
(0.0716043 -3.61448e-16 1.61813)
(-2.16443e-05 9.46371e-19 1.60008)
(-5.22591e-05 -7.90519e-16 1.60007)
(-8.14937e-05 1.29142e-15 1.60007)
(-0.00010848 8.69777e-16 1.60006)
(-0.000128742 9.49499e-17 1.60004)
(-0.000138116 -3.55601e-17 1.60002)
(-0.000129215 -3.08779e-16 1.59997)
(-8.91179e-05 -2.68551e-16 1.59988)
(-2.52022e-06 4.24424e-16 1.59972)
(0.000147581 -3.8741e-16 1.59941)
(0.000890705 3.75704e-16 1.59852)
(-0.00157566 -1.68115e-17 1.59794)
(0.0129572 -1.27563e-16 1.58907)
(-0.0278668 -6.17945e-16 1.58925)
(0.059635 -3.27058e-16 1.62303)
(-2.85894e-05 1.83529e-16 1.60013)
(-6.96793e-05 6.18788e-17 1.60012)
(-0.000109223 1.17276e-15 1.60012)
(-0.000147092 4.37752e-16 1.6001)
(-0.000178211 1.23068e-16 1.60008)
(-0.000198992 -6.60257e-17 1.60004)
(-0.000203466 -5.21985e-16 1.59997)
(-0.000180935 -2.01666e-16 1.59985)
(-0.0001132 3.26925e-16 1.59964)
(-0.000106944 -4.75276e-16 1.59928)
(0.000976579 1.36549e-16 1.59813)
(-0.00290337 -5.17462e-16 1.59752)
(0.0129784 -1.04549e-16 1.58938)
(-0.0279437 -8.61963e-17 1.58751)
(0.0495488 -2.72278e-16 1.62486)
(-3.60605e-05 7.93818e-16 1.6002)
(-8.85094e-05 3.59516e-15 1.60019)
(-0.00013944 -2.87756e-15 1.60018)
(-0.000189812 -1.55288e-15 1.60016)
(-0.000234131 2.3439e-16 1.60013)
(-0.000269752 -9.13226e-17 1.60008)
(-0.00029246 -4.35851e-16 1.6)
(-0.000296891 -8.86495e-16 1.59985)
(-0.00023994 4.88637e-16 1.59959)
(-0.00041863 -5.30498e-17 1.59922)
(0.00100153 1.03682e-15 1.59793)
(-0.00391658 -5.59229e-16 1.59714)
(0.0124066 -2.31038e-16 1.59007)
(-0.0272552 3.21589e-16 1.58686)
(0.041333 -1.33087e-16 1.62517)
(-4.40077e-05 7.50438e-16 1.60028)
(-0.000108609 3.76913e-15 1.60027)
(-0.000171858 1.85166e-15 1.60026)
(-0.000236014 2.18089e-15 1.60024)
(-0.000295249 3.15118e-16 1.6002)
(-0.000347993 -1.40759e-16 1.60014)
(-0.000390938 8.23751e-16 1.60005)
(-0.000429395 -8.54885e-16 1.59989)
(-0.000372152 -1.36128e-16 1.59959)
(-0.000744632 2.20465e-17 1.59922)
(0.000952246 -4.8166e-16 1.59787)
(-0.00465575 9.06884e-16 1.59686)
(0.0116023 -1.01243e-15 1.59083)
(-0.026145 5.30661e-17 1.58729)
(0.0345437 -3.62353e-16 1.62427)
(-5.23502e-05 6.95967e-16 1.60038)
(-0.000129725 2.62799e-15 1.60037)
(-0.000205971 -1.1058e-15 1.60036)
(-0.000284823 -9.50224e-16 1.60033)
(-0.000360043 3.83889e-16 1.60029)
(-0.000431346 -1.52746e-16 1.60023)
(-0.00049453 -1.08089e-15 1.60012)
(-0.000571863 -1.71195e-15 1.59996)
(-0.000506667 1.39492e-15 1.59964)
(-0.00105849 1.28526e-16 1.59927)
(0.000844381 -8.33628e-16 1.59792)
(-0.00517531 -3.01314e-16 1.59668)
(0.0106973 2.10007e-16 1.5916)
(-0.0247976 4.88624e-16 1.58839)
(0.0288883 -8.69019e-16 1.62248)
(-6.0945e-05 8.37679e-16 1.6005)
(-0.000151531 2.05332e-15 1.60049)
(-0.000241218 3.96827e-15 1.60048)
(-0.000335291 2.41514e-15 1.60045)
(-0.000426978 3.85131e-16 1.60041)
(-0.000517626 -1.56618e-16 1.60034)
(-0.000599816 1.28792e-15 1.60023)
(-0.00071807 -1.13845e-16 1.60007)
(-0.000641133 8.15515e-16 1.59973)
(-0.00134574 2.05698e-16 1.59935)
(0.000698465 6.59682e-16 1.59804)
(-0.0055216 -1.4611e-15 1.59662)
(0.00973907 -2.93969e-16 1.59239)
(-0.0233473 -2.22861e-15 1.5899)
(0.0241543 -4.15062e-16 1.62001)
(-6.96775e-05 1.3591e-15 1.60064)
(-0.000173692 5.2055e-15 1.60063)
(-0.000276988 6.634e-15 1.60062)
(-0.000386485 1.75397e-15 1.60059)
(-0.0004946 3.62894e-16 1.60054)
(-0.000604802 -1.57086e-16 1.60048)
(-0.000704121 -5.71895e-16 1.60036)
(-0.00086266 -3.5738e-16 1.6002)
(-0.000773117 -4.19173e-16 1.59987)
(-0.00160048 2.50615e-16 1.59947)
(0.000527894 1.24997e-15 1.59821)
(-0.00573237 -1.55332e-16 1.59664)
(0.00876164 -4.01433e-16 1.59318)
(-0.0218882 -4.67089e-16 1.59167)
(0.0201659 1.80385e-16 1.61707)
(-7.83989e-05 1.36241e-15 1.6008)
(-0.00019587 5.29339e-15 1.60079)
(-0.000312734 2.46555e-15 1.60077)
(-0.000437549 1.75697e-15 1.60075)
(-0.000561636 3.76435e-16 1.6007)
(-0.000691094 -1.99982e-16 1.60063)
(-0.000805502 7.18934e-16 1.60052)
(-0.00100181 -2.52972e-16 1.60037)
(-0.000900913 1.39113e-15 1.60003)
(-0.00182183 3.08436e-16 1.59962)
(0.000340882 -1.33717e-16 1.59843)
(-0.00583995 -1.32246e-15 1.59674)
(0.00779562 -1.56635e-15 1.59397)
(-0.020476 -1.43082e-15 1.59362)
(0.0167815 -6.95599e-16 1.61378)
(-8.70159e-05 1.2052e-15 1.60097)
(-0.000217778 3.2601e-15 1.60096)
(-0.000347935 1.90842e-15 1.60095)
(-0.000487748 2.44206e-15 1.60092)
(-0.00062707 4.47092e-16 1.60088)
(-0.000775094 -2.38727e-16 1.60082)
(-0.000902691 -1.47615e-15 1.60071)
(-0.00113318 2.81322e-16 1.60056)
(-0.0010236 1.31988e-15 1.60023)
(-0.00201134 3.96745e-16 1.5998)
(0.000143892 7.49616e-16 1.59867)
(-0.0058719 -1.31348e-16 1.5969)
(0.00686252 -2.62332e-16 1.59476)
(-0.0191389 1.77659e-16 1.59568)
(0.0138912 -1.19531e-15 1.61025)
(-9.54078e-05 8.98306e-16 1.60117)
(-0.000239157 2.27313e-15 1.60116)
(-0.000382204 1.12034e-15 1.60115)
(-0.0005365 2.82814e-15 1.60112)
(-0.000690152 5.11707e-16 1.60108)
(-0.000855777 -2.43097e-16 1.60102)
(-0.000994943 -2.98058e-15 1.60092)
(-0.00125548 2.72066e-16 1.60077)
(-0.00114073 1.02603e-15 1.60045)
(-0.00217178 4.66503e-16 1.6)
(-5.76382e-05 8.65306e-16 1.59893)
(-0.00585053 -9.69405e-16 1.59711)
(0.00597427 -1.44982e-15 1.59554)
(-0.0178908 -1.23951e-15 1.59778)
(0.0114093 -1.73692e-15 1.60656)
(-0.000103524 9.2924e-16 1.60138)
(-0.000259821 3.12624e-15 1.60137)
(-0.000415206 -2.21844e-15 1.60136)
(-0.000583364 5.25991e-15 1.60134)
(-0.000750369 5.19593e-16 1.6013)
(-0.000932454 -2.15338e-16 1.60125)
(-0.00108187 -5.65584e-16 1.60115)
(-0.00136817 -6.59122e-17 1.601)
(-0.00125208 -5.67731e-16 1.6007)
(-0.00230663 5.16719e-16 1.60023)
(-0.000259458 1.77159e-15 1.5992)
(-0.00579298 3.37193e-16 1.59737)
(0.00513682 -1.66421e-16 1.59631)
(-0.0167373 6.6601e-17 1.5999)
(0.00926748 -3.31662e-16 1.60273)
(-0.000111283 9.98358e-16 1.60161)
(-0.000279615 3.30226e-15 1.6016)
(-0.00044674 2.47484e-15 1.60159)
(-0.00062804 1.32444e-15 1.60157)
(-0.000807406 5.52166e-16 1.60154)
(-0.00100471 -1.92966e-16 1.60149)
(-0.00116337 8.98477e-16 1.60139)
(-0.00147121 2.04127e-16 1.60125)
(-0.00135764 5.76015e-16 1.60096)
(-0.00241956 5.77149e-16 1.60047)
(-0.000458474 1.46596e-16 1.5995)
(-0.00571203 -1.19475e-15 1.59767)
(0.00435281 1.66458e-16 1.59708)
(-0.0156789 -2.6021e-16 1.602)
(0.0074105 -1.8767e-15 1.59882)
(-0.000118674 1.29484e-15 1.60186)
(-0.000298453 4.51083e-15 1.60185)
(-0.000476639 9.96647e-17 1.60184)
(-0.000670336 2.73845e-15 1.60182)
(-0.000861106 6.42386e-16 1.60179)
(-0.00107236 -1.4847e-16 1.60175)
(-0.0012395 -1.15696e-15 1.60166)
(-0.00156497 2.4201e-16 1.60152)
(-0.00145746 6.52554e-16 1.60123)
(-0.00251407 6.0132e-16 1.60073)
(-0.000652501 5.98024e-16 1.5998)
(-0.00561711 4.79743e-17 1.598)
(0.00362266 -1.07767e-16 1.59784)
(-0.0147124 -1.50495e-15 1.60407)
(0.00579385 -3.22727e-16 1.59484)
(-0.000125647 1.5769e-15 1.60212)
(-0.000316267 5.21727e-15 1.60211)
(-0.000504857 5.28109e-15 1.60211)
(-0.000710164 3.06324e-15 1.60209)
(-0.000911441 7.38362e-16 1.60207)
(-0.00113539 -8.20246e-17 1.60202)
(-0.00131047 -8.1513e-17 1.60194)
(-0.00165002 2.34409e-16 1.60181)
(-0.00155173 1.94365e-15 1.60152)
(-0.00259335 4.6975e-16 1.60101)
(-0.000840032 5.63425e-16 1.60011)
(-0.0055151 -4.88666e-16 1.59836)
(0.0029453 2.82057e-17 1.5986)
(-0.0138328 1.14708e-15 1.6061)
(0.0043812 7.67233e-16 1.59083)
(-0.000132225 1.4908e-15 1.6024)
(-0.000333047 5.10424e-15 1.60239)
(-0.000531349 4.10101e-15 1.60239)
(-0.000747509 2.70868e-15 1.60237)
(-0.00095847 7.91379e-16 1.60235)
(-0.00119391 -5.42624e-17 1.60231)
(-0.00137655 -1.45262e-16 1.60223)
(-0.00172707 1.58461e-16 1.6021)
(-0.00164065 1.99586e-15 1.60183)
(-0.00266016 -4.6084e-16 1.6013)
(-0.00102009 1.13382e-16 1.60043)
(-0.0054109 -4.66683e-16 1.59876)
(0.00231854 1.01151e-15 1.59936)
(-0.0130339 -1.50618e-16 1.60808)
(0.0031429 -7.03317e-16 1.58678)
(-0.00013838 1.17064e-15 1.60269)
(-0.000348786 2.64373e-15 1.60268)
(-0.000556167 8.7523e-15 1.60268)
(-0.000782419 3.05792e-15 1.60267)
(-0.00100232 8.54784e-16 1.60265)
(-0.00124811 -4.25355e-17 1.60261)
(-0.00143806 -3.3114e-16 1.60254)
(-0.00179687 -1.05028e-15 1.60241)
(-0.00172446 3.43111e-15 1.60214)
(-0.00271688 1.14502e-15 1.6016)
(-0.0011921 -5.62836e-16 1.60077)
(-0.00530794 -2.7386e-16 1.59917)
(0.00173963 -4.80509e-16 1.60012)
(-0.0123095 2.38458e-17 1.61)
(0.00205436 -6.20992e-16 1.58271)
(-0.000144154 1.19778e-15 1.60299)
(-0.000363522 3.22526e-15 1.60299)
(-0.000579337 3.4669e-15 1.60298)
(-0.000814979 3.21663e-15 1.60298)
(-0.00104315 9.05834e-16 1.60296)
(-0.00129826 -5.57666e-17 1.60293)
(-0.00149533 -9.72973e-16 1.60286)
(-0.0018602 9.74728e-16 1.60273)
(-0.00180344 1.67832e-15 1.60246)
(-0.0027655 7.88257e-16 1.60191)
(-0.0013558 7.98645e-16 1.60111)
(-0.00520853 -3.02276e-16 1.5996)
(0.00120546 -3.56984e-16 1.60088)
(-0.0116532 3.45396e-16 1.61187)
(0.00109524 5.8012e-16 1.57864)
(-0.000149531 8.19984e-16 1.60331)
(-0.000377282 9.02905e-15 1.6033)
(-0.000600968 8.09638e-15 1.6033)
(-0.000845308 3.17593e-15 1.6033)
(-0.00108116 9.22928e-16 1.60328)
(-0.00134462 -3.81718e-17 1.60325)
(-0.00154868 -7.11822e-16 1.60319)
(-0.00191777 1.92813e-16 1.60306)
(-0.00187786 1.51112e-15 1.60279)
(-0.00280765 7.45621e-16 1.60223)
(-0.00151116 5.23934e-16 1.60146)
(-0.00511416 -9.46946e-17 1.60006)
(0.000712894 -5.17278e-16 1.60164)
(-0.0110589 -6.99353e-16 1.61368)
(0.000248423 -1.07162e-15 1.57456)
(-0.000154566 8.55454e-16 1.60363)
(-0.00039013 1.4575e-15 1.60363)
(-0.000621118 2.33311e-15 1.60363)
(-0.00087354 2.99701e-15 1.60363)
(-0.00111654 9.55987e-16 1.60362)
(-0.00138751 -3.05297e-17 1.60359)
(-0.00159844 1.08554e-15 1.60353)
(-0.00197026 -1.09024e-16 1.60339)
(-0.001948 1.72749e-15 1.60313)
(-0.00284468 7.41846e-16 1.60257)
(-0.0016583 5.29445e-16 1.60183)
(-0.00502571 -2.85463e-16 1.60053)
(0.000258748 6.56515e-16 1.60241)
(-0.0105208 -4.14894e-17 1.61544)
(-0.000500363 -1.90946e-15 1.57047)
(-0.000159247 8.28514e-16 1.60397)
(-0.000402109 9.65272e-15 1.60397)
(-0.000639918 3.04818e-15 1.60397)
(-0.00089982 6.80907e-15 1.60397)
(-0.0011495 1.00648e-15 1.60396)
(-0.00142722 -2.58011e-17 1.60394)
(-0.00164491 -1.13737e-15 1.60387)
(-0.00201828 -3.11774e-16 1.60374)
(-0.00201413 2.59936e-15 1.60347)
(-0.00287768 7.15316e-16 1.60291)
(-0.00179747 5.7527e-16 1.6022)
(-0.00494364 -2.75843e-16 1.60101)
(-0.000160003 -5.64493e-16 1.60317)
(-0.0100336 -3.53433e-16 1.61714)
(-0.00116332 -6.1998e-16 1.5664)
(-0.000163631 8.11788e-16 1.60432)
(-0.000413289 2.22768e-15 1.60432)
(-0.000657435 3.28419e-15 1.60432)
(-0.000924291 2.71455e-15 1.60432)
(-0.00118024 1.00803e-15 1.60431)
(-0.00146403 -4.63277e-18 1.60429)
(-0.00168836 -2.68907e-15 1.60423)
(-0.00206238 -2.08493e-16 1.60409)
(-0.00207653 1.08421e-15 1.60383)
(-0.0029075 6.93039e-16 1.60327)
(-0.00192896 4.51284e-16 1.60258)
(-0.00486812 7.79807e-16 1.60151)
(-0.000546266 8.35738e-17 1.60393)
(-0.0095923 -4.37499e-16 1.61878)
(-0.0017507 -1.9557e-15 1.56232)
(-0.000167706 9.002e-16 1.60467)
(-0.000423717 2.27606e-15 1.60467)
(-0.000673799 3.90796e-16 1.60468)
(-0.000947099 3.10047e-15 1.60468)
(-0.00120894 1.02665e-15 1.60467)
(-0.00149822 2.47453e-17 1.60465)
(-0.00172907 -4.38049e-16 1.60459)
(-0.00210304 -1.60546e-16 1.60446)
(-0.00213543 9.12727e-16 1.60419)
(-0.00293483 5.68161e-16 1.60363)
(-0.00205315 2.64449e-16 1.60297)
(-0.00479908 -6.68992e-16 1.60201)
(-0.000902723 -1.27174e-15 1.6047)
(-0.00919246 -6.05711e-16 1.62036)
(-0.00227139 -7.28634e-16 1.55826)
(-0.000171532 1.25008e-15 1.60504)
(-0.000433465 4.07e-15 1.60504)
(-0.000689074 8.75945e-16 1.60504)
(-0.00096838 6.44985e-15 1.60505)
(-0.00123578 1.04045e-15 1.60504)
(-0.00153002 4.61781e-17 1.60502)
(-0.00176725 -4.31781e-16 1.60497)
(-0.00214068 1.47387e-15 1.60482)
(-0.0021911 3.6003e-16 1.60455)
(-0.00296021 7.39689e-16 1.604)
(-0.00217039 2.26147e-16 1.60337)
(-0.00473632 -6.85657e-16 1.60253)
(-0.0012319 -9.3825e-16 1.60546)
(-0.00882995 -1.66311e-15 1.62189)
(-0.00273289 -1.77357e-15 1.5542)
(-0.000175094 1.48666e-15 1.60541)
(-0.000442574 4.7105e-15 1.60541)
(-0.000703379 8.2543e-15 1.60542)
(-0.000988264 2.90069e-15 1.60542)
(-0.00126091 1.0435e-15 1.60542)
(-0.00155967 6.20775e-17 1.6054)
(-0.00180313 -4.5585e-16 1.60534)
(-0.00217567 -1.32699e-16 1.6052)
(-0.00224375 1.45989e-15 1.60493)
(-0.00298404 7.89804e-16 1.60438)
(-0.00228109 2.24328e-16 1.60378)
(-0.00467955 -8.16192e-16 1.60306)
(-0.00153607 -7.85989e-16 1.60623)
(-0.00850112 9.28551e-16 1.62336)
(-0.00314182 -1.69902e-16 1.55016)
(-0.000178449 1.45138e-15 1.60579)
(-0.000451108 4.20135e-15 1.60579)
(-0.000716767 3.29879e-15 1.6058)
(-0.00100687 2.7872e-15 1.6058)
(-0.00128449 1.04374e-15 1.6058)
(-0.00158737 7.95029e-17 1.60578)
(-0.0018369 -4.01473e-16 1.60573)
(-0.00220832 -4.83186e-16 1.60558)
(-0.00229359 1.71145e-15 1.60531)
(-0.00300666 -3.95398e-17 1.60477)
(-0.0023856 1.98911e-16 1.6042)
(-0.00462841 -7.85296e-16 1.60359)
(-0.00181736 -1.25016e-15 1.60699)
(-0.00820258 -7.38988e-16 1.62478)
(-0.00350377 -4.56045e-16 1.54613)
(-0.000181577 1.39773e-15 1.60618)
(-0.000459102 3.67707e-15 1.60618)
(-0.000729343 3.03056e-15 1.60619)
(-0.00102431 2.76415e-15 1.60619)
(-0.00130664 1.05772e-15 1.60619)
(-0.00161331 9.78042e-17 1.60617)
(-0.00186873 -3.59876e-16 1.60612)
(-0.0022389 -4.10793e-16 1.60597)
(-0.00234081 1.83636e-15 1.60569)
(-0.0030283 2.2554e-15 1.60516)
(-0.00248431 1.55032e-16 1.60463)
(-0.00458254 6.93315e-16 1.60413)
(-0.00207768 -1.42803e-15 1.60776)
(-0.00793138 -8.09236e-16 1.62615)
(-0.00382374 -8.72521e-16 1.54212)
(-0.000184535 1.3472e-15 1.60657)
(-0.000466615 3.65421e-15 1.60657)
(-0.000741145 4.463e-15 1.60658)
(-0.00104067 2.76446e-15 1.60659)
(-0.00132749 1.07487e-15 1.60659)
(-0.00163765 1.17144e-16 1.60657)
(-0.00189876 -3.10363e-16 1.60651)
(-0.00226764 2.70576e-19 1.60636)
(-0.0023856 7.32061e-16 1.60608)
(-0.00304914 -1.05059e-15 1.60556)
(-0.00257756 1.25826e-16 1.60506)
(-0.00454152 -5.58341e-16 1.60468)
(-0.00231878 -1.03735e-15 1.60853)
(-0.00768475 -7.25773e-16 1.62747)
(-0.00410597 1.62494e-16 1.53812)
(-0.000187299 1.25844e-15 1.60697)
(-0.000473671 3.3401e-15 1.60697)
(-0.000752268 3.25906e-15 1.60698)
(-0.00105606 2.60633e-15 1.60699)
(-0.00134713 1.08194e-15 1.60699)
(-0.00166052 1.3638e-16 1.60697)
(-0.00192715 -2.66712e-16 1.60691)
(-0.00229472 6.53811e-18 1.60676)
(-0.00242812 2.8644e-15 1.60648)
(-0.00306931 1.09212e-15 1.60597)
(-0.00266567 1.60176e-16 1.6055)
(-0.00450497 -2.4277e-16 1.60524)
(-0.00254223 -9.74314e-16 1.60929)
(-0.00746032 -7.42447e-16 1.62874)
(-0.00435432 -1.85846e-16 1.53413)
(-0.000189921 1.13968e-15 1.60738)
(-0.00048032 2.97643e-15 1.60738)
(-0.000762732 -2.21608e-15 1.60739)
(-0.00107054 2.3957e-15 1.6074)
(-0.00136567 1.07717e-15 1.6074)
(-0.00168206 1.56775e-16 1.60738)
(-0.00195399 -2.23951e-16 1.60732)
(-0.00232031 3.61365e-17 1.60716)
(-0.0024685 3.47785e-17 1.60688)
(-0.0030889 -5.64881e-17 1.60638)
(-0.00274897 2.10472e-16 1.60595)
(-0.00447249 9.58833e-16 1.6058)
(-0.00274948 -9.40407e-16 1.61006)
(-0.00725583 -7.56194e-16 1.62996)
(-0.00457202 -2.0623e-15 1.53017)
(-0.000192375 1.01552e-15 1.60779)
(-0.000486581 2.50053e-15 1.60779)
(-0.000772621 1.24589e-15 1.6078)
(-0.0010842 2.07615e-15 1.60781)
(-0.00138317 1.06181e-15 1.60781)
(-0.00170238 1.77866e-16 1.60779)
(-0.00197942 -1.77408e-16 1.60773)
(-0.00234455 8.25288e-17 1.60757)
(-0.00250688 -1.42784e-16 1.60729)
(-0.00310797 2.14076e-16 1.6068)
(-0.00282773 2.59575e-16 1.60641)
(-0.00444373 -7.91796e-16 1.60636)
(-0.00294181 -9.02736e-16 1.61082)
(-0.00706937 -7.66064e-16 1.63113)
(-0.00476211 9.05051e-17 1.52622)
(-0.000194711 9.51923e-16 1.6082)
(-0.000492494 2.29636e-15 1.60821)
(-0.000781944 1.0234e-15 1.60822)
(-0.00109709 1.73724e-15 1.60823)
(-0.00139973 1.06093e-15 1.60823)
(-0.00172157 2.01341e-16 1.60821)
(-0.00200351 -1.28316e-16 1.60814)
(-0.00236755 2.90565e-16 1.60798)
(-0.00254339 1.52526e-15 1.6077)
(-0.00312656 1.10384e-15 1.60723)
(-0.00290223 3.07236e-16 1.60687)
(-0.00441832 -1.67108e-15 1.60693)
(-0.00312041 -8.4349e-16 1.61159)
(-0.0068991 -6.12255e-16 1.63225)
(-0.0049271 -6.64943e-16 1.52229)
(-0.000196899 8.94507e-16 1.60863)
(-0.000498074 9.30694e-15 1.60863)
(-0.000790774 -9.23664e-16 1.60864)
(-0.00110926 -3.74411e-16 1.60865)
(-0.0014154 1.12057e-15 1.60865)
(-0.00173971 2.25207e-16 1.60863)
(-0.00202635 -1.13091e-16 1.60856)
(-0.00238941 1.22226e-15 1.6084)
(-0.00257812 -2.94115e-16 1.60812)
(-0.0031447 6.9645e-16 1.60766)
(-0.00297271 3.57581e-16 1.60734)
(-0.00439593 -1.2877e-15 1.60751)
(-0.00328632 -8.19246e-16 1.61235)
(-0.00674348 -1.05212e-15 1.63332)
(-0.00506939 -8.50133e-16 1.51838)
(-0.000198988 7.5099e-16 1.60905)
(-0.000503353 2.13937e-15 1.60906)
(-0.000799109 4.01688e-15 1.60907)
(-0.00112077 6.97055e-15 1.60907)
(-0.00143023 1.14006e-15 1.60908)
(-0.00175688 2.46608e-16 1.60905)
(-0.00204802 4.01419e-17 1.60899)
(-0.00241021 -6.98418e-16 1.60882)
(-0.00261118 9.07054e-17 1.60854)
(-0.00316239 8.80437e-16 1.6081)
(-0.00303939 4.13601e-16 1.60782)
(-0.00437626 2.34936e-16 1.60809)
(-0.00344052 -6.98592e-16 1.61311)
(-0.00660101 -8.30061e-16 1.63435)
(-0.00519096 -5.96409e-16 1.51449)
(-0.000200945 6.35017e-16 1.60948)
(-0.00050834 1.57175e-15 1.60949)
(-0.000807014 1.76826e-15 1.6095)
(-0.00113166 2.54629e-15 1.6095)
(-0.00144428 1.12885e-15 1.60951)
(-0.00177313 2.33579e-16 1.60948)
(-0.00206858 -7.48993e-16 1.60941)
(-0.00243001 -1.00808e-16 1.60925)
(-0.00264265 4.00652e-16 1.60897)
(-0.00317963 7.83657e-16 1.60855)
(-0.00310248 4.46333e-16 1.6083)
(-0.00435901 3.00957e-16 1.60867)
(-0.00358386 6.46022e-16 1.61387)
(-0.00647047 -4.74272e-16 1.63534)
(-0.00529374 -6.63154e-16 1.51062)
(-0.000202816 6.58257e-16 1.60992)
(-0.000513063 1.10586e-15 1.60992)
(-0.000814482 2.50591e-15 1.60993)
(-0.00114196 3.35067e-15 1.60994)
(-0.00145759 1.14809e-15 1.60994)
(-0.00178853 2.40207e-16 1.60992)
(-0.00208809 -6.91381e-16 1.60984)
(-0.00244888 1.94039e-16 1.60968)
(-0.0026726 3.47459e-16 1.6094)
(-0.00319642 8.88945e-16 1.609)
(-0.00316218 3.81559e-16 1.60878)
(-0.00434392 3.18699e-16 1.60925)
(-0.00371716 -7.41959e-16 1.61463)
(-0.00635061 -9.56439e-16 1.63627)
(-0.00537931 -6.73131e-16 1.50677)
(-0.000204569 9.64405e-16 1.61035)
(-0.000517528 -2.85147e-15 1.61036)
(-0.000821568 2.16313e-15 1.61037)
(-0.00115171 5.66316e-15 1.61038)
(-0.0014702 1.07493e-15 1.61038)
(-0.00180312 2.64155e-16 1.61035)
(-0.0021066 -2.65321e-16 1.61028)
(-0.00246685 1.22809e-15 1.61011)
(-0.00270111 -1.17408e-15 1.60984)
(-0.00321273 2.31213e-15 1.60945)
(-0.00321866 9.28267e-16 1.60928)
(-0.00433074 -4.54562e-17 1.60984)
(-0.0038411 -7.76371e-16 1.61539)
(-0.00624046 -9.31174e-16 1.63717)
(-0.00544924 -5.89816e-16 1.50295)
(-0.000206246 7.85473e-16 1.6108)
(-0.000521757 3.49591e-15 1.6108)
(-0.00082826 6.10805e-15 1.61081)
(-0.00116094 7.95868e-16 1.61082)
(-0.00148214 9.85986e-16 1.61082)
(-0.00181694 3.33011e-16 1.61079)
(-0.00212416 -3.44149e-16 1.61072)
(-0.00248398 -6.30964e-16 1.61055)
(-0.00272825 1.00275e-15 1.61028)
(-0.00322857 5.37836e-16 1.60991)
(-0.00327208 8.78384e-16 1.60977)
(-0.00431925 -2.97945e-17 1.61043)
(-0.00395637 -6.08379e-16 1.61614)
(-0.00613897 6.09496e-16 1.63802)
(-0.00550478 -5.49646e-16 1.49915)
(-0.000207814 6.67648e-16 1.61124)
(-0.000525753 1.56283e-15 1.61125)
(-0.000834608 -6.07945e-17 1.61126)
(-0.00116967 6.39986e-16 1.61127)
(-0.00149344 9.68635e-16 1.61127)
(-0.00183003 3.2224e-16 1.61124)
(-0.00214082 -1.73928e-15 1.61116)
(-0.00250028 -4.7802e-17 1.61099)
(-0.00275405 8.30158e-16 1.61073)
(-0.0032439 1.19243e-15 1.61037)
(-0.0033226 4.45594e-16 1.61028)
(-0.00430924 1.92157e-16 1.61103)
(-0.00406352 1.22213e-16 1.61689)
(-0.00604538 -6.67303e-16 1.63882)
(-0.00554725 -4.91903e-16 1.49537)
(-0.000209316 6.46369e-16 1.61169)
(-0.000529535 1.69985e-15 1.6117)
(-0.000840597 1.95709e-17 1.61171)
(-0.00117793 1.56579e-15 1.61171)
(-0.00150414 1.00053e-15 1.61171)
(-0.00184242 5.29469e-16 1.61168)
(-0.0021566 2.28803e-16 1.6116)
(-0.00251581 1.01178e-17 1.61143)
(-0.00277858 4.57683e-16 1.61118)
(-0.00325871 2.52675e-15 1.61084)
(-0.00337035 1.14954e-15 1.61078)
(-0.00430052 5.86472e-17 1.61162)
(-0.00416313 -1.98781e-15 1.61764)
(-0.00595883 -7.86849e-16 1.63959)
(-0.00557766 -2.64909e-16 1.49162)
(-0.000210718 6.44328e-16 1.61214)
(-0.000533105 1.73303e-15 1.61215)
(-0.000846272 -2.79248e-15 1.61216)
(-0.00118573 1.46347e-15 1.61217)
(-0.00151425 1.03547e-15 1.61216)
(-0.00185413 6.27339e-16 1.61213)
(-0.00217154 -1.7155e-16 1.61205)
(-0.00253057 6.42689e-17 1.61188)
(-0.00280189 -5.32807e-16 1.61163)
(-0.00327299 9.17593e-16 1.61131)
(-0.00341546 1.24099e-15 1.61129)
(-0.00429291 7.32629e-16 1.61222)
(-0.00425565 -2.43869e-16 1.61839)
(-0.0058787 -8.25272e-16 1.64031)
(-0.00559709 1.40628e-15 1.4879)
(-0.000212059 6.2915e-16 1.6126)
(-0.000536479 1.64066e-15 1.6126)
(-0.000851616 2.0232e-15 1.61261)
(-0.00119309 1.50822e-15 1.61262)
(-0.00152379 1.09045e-15 1.61262)
(-0.0018652 7.53069e-16 1.61259)
(-0.00218567 2.41244e-17 1.6125)
(-0.00254458 9.1065e-17 1.61233)
(-0.00282401 1.93811e-15 1.61208)
(-0.00328671 9.21736e-16 1.61179)
(-0.00345804 8.06152e-16 1.61181)
(-0.00428627 6.16598e-16 1.61282)
(-0.00434157 -6.18192e-16 1.61913)
(-0.00580427 -8.44961e-16 1.64099)
(-0.00560638 -7.92853e-16 1.4842)
(-0.000213306 6.12452e-16 1.61305)
(-0.000539657 1.54822e-15 1.61306)
(-0.000856669 -3.92722e-15 1.61307)
(-0.00120003 1.51352e-15 1.61308)
(-0.0015328 1.13627e-15 1.61307)
(-0.00187565 7.48812e-16 1.61304)
(-0.00219903 8.34243e-17 1.61296)
(-0.00255788 1.20262e-16 1.61279)
(-0.00284499 -1.77337e-15 1.61254)
(-0.00329987 1.69492e-15 1.61227)
(-0.00349822 7.47318e-16 1.61232)
(-0.00428045 4.58101e-16 1.61342)
(-0.00442128 -5.11348e-16 1.61987)
(-0.00573505 -8.53143e-16 1.64163)
(-0.00560645 -1.32517e-15 1.48053)
(-0.000214496 5.93929e-16 1.61352)
(-0.000542652 1.48418e-15 1.61352)
(-0.000861414 4.84001e-16 1.61353)
(-0.00120657 1.52854e-15 1.61354)
(-0.00154128 1.16955e-15 1.61353)
(-0.00188549 7.25534e-16 1.6135)
(-0.00221163 1.34164e-16 1.61341)
(-0.00257048 2.07909e-16 1.61325)
(-0.00286487 -7.61794e-16 1.61301)
(-0.00331245 -3.59748e-16 1.61275)
(-0.00353609 7.69206e-16 1.61284)
(-0.00427532 7.19259e-16 1.61403)
(-0.00449516 -4.98003e-16 1.6206)
(-0.00567044 -8.53898e-16 1.64222)
(-0.00559798 -5.01864e-16 1.47689)
(-0.000215601 5.60044e-16 1.61398)
(-0.000545467 1.44705e-15 1.61398)
(-0.000865888 -3.34712e-15 1.61399)
(-0.00121271 1.55349e-15 1.614)
(-0.00154925 1.19391e-15 1.614)
(-0.00189475 7.55237e-16 1.61396)
(-0.00222351 1.84333e-16 1.61387)
(-0.00258239 2.90115e-16 1.61371)
(-0.00288367 -5.68968e-17 1.61347)
(-0.00332444 1.28831e-15 1.61324)
(-0.00357174 7.83064e-16 1.61337)
(-0.00427077 1.33683e-15 1.61463)
(-0.00456356 -4.90876e-16 1.62133)
(-0.00561006 -8.42824e-16 1.64278)
(-0.00558175 6.16671e-16 1.47327)
(-0.000216653 5.35236e-16 1.61444)
(-0.000548109 1.36577e-15 1.61445)
(-0.000870074 -3.26612e-15 1.61446)
(-0.00121847 1.75153e-15 1.61446)
(-0.00155673 1.21755e-15 1.61446)
(-0.00190344 9.24532e-16 1.61442)
(-0.00223468 2.22442e-16 1.61433)
(-0.00259362 2.74278e-16 1.61417)
(-0.00290143 4.05723e-16 1.61394)
(-0.00333584 -1.86432e-16 1.61373)
(-0.00360528 8.98873e-16 1.61389)
(-0.00426669 -7.19664e-16 1.61523)
(-0.00462682 -4.63747e-16 1.62206)
(-0.0055534 -9.51491e-16 1.64329)
(-0.00555834 7.23152e-16 1.46969)
(-0.000217622 5.24646e-16 1.61491)
(-0.000550582 1.52319e-15 1.61492)
(-0.000874004 3.47304e-15 1.61493)
(-0.00122387 5.3843e-15 1.61493)
(-0.00156373 1.16966e-15 1.61492)
(-0.00191159 2.37936e-15 1.61489)
(-0.00224517 2.11444e-16 1.6148)
(-0.00260421 2.31887e-16 1.61463)
(-0.00291818 -2.50575e-16 1.61442)
(-0.00334662 2.64795e-15 1.61422)
(-0.00363678 2.9718e-16 1.61442)
(-0.00426299 2.52234e-15 1.61584)
(-0.0046852 -4.27092e-16 1.62278)
(-0.00550016 -9.31879e-16 1.64377)
(-0.00552841 9.43609e-16 1.46613)
(-0.000218542 4.48659e-16 1.61538)
(-0.000552892 1.35249e-15 1.61539)
(-0.000877664 2.00822e-15 1.61539)
(-0.0012289 1.23949e-15 1.6154)
(-0.00157028 1.10962e-15 1.61539)
(-0.0019192 -3.1137e-17 1.61535)
(-0.002255 2.0983e-16 1.61526)
(-0.00261414 2.30585e-16 1.6151)
(-0.00293395 -9.47938e-16 1.61489)
(-0.0033568 9.95007e-16 1.61472)
(-0.00366633 3.04026e-16 1.61496)
(-0.00425958 1.77836e-15 1.61644)
(-0.00473901 -4.15559e-16 1.62349)
(-0.0054499 -7.49705e-16 1.64421)
(-0.00549245 -2.17324e-15 1.46261)
(-0.000219386 3.19681e-16 1.61585)
(-0.000555044 9.02239e-16 1.61586)
(-0.000881082 -4.9514e-15 1.61587)
(-0.0012336 1.15594e-15 1.61587)
(-0.00157637 1.08278e-15 1.61586)
(-0.00192629 4.87399e-16 1.61582)
(-0.00226418 2.13513e-16 1.61573)
(-0.00262345 1.90764e-16 1.61557)
(-0.00294878 1.91598e-15 1.61537)
(-0.00336637 2.61055e-15 1.61522)
(-0.00369401 6.38783e-16 1.61549)
(-0.0042564 6.68251e-17 1.61705)
(-0.00478847 -4.08054e-16 1.62421)
(-0.00540241 -7.86886e-16 1.64461)
(-0.00545102 -6.51642e-16 1.45912)
(-0.000220181 2.07411e-16 1.61632)
(-0.000557041 5.78112e-16 1.61633)
(-0.000884246 -6.1909e-16 1.61634)
(-0.00123795 1.15174e-15 1.61634)
(-0.00158203 1.05855e-15 1.61633)
(-0.00193288 4.20734e-16 1.61629)
(-0.00227274 1.61601e-16 1.6162)
(-0.00263215 1.31785e-16 1.61604)
(-0.00296268 -1.06349e-16 1.61585)
(-0.00337532 3.38078e-16 1.61572)
(-0.00371989 5.31921e-16 1.61603)
(-0.00425338 -5.11048e-17 1.61766)
(-0.00483387 -3.53621e-16 1.62491)
(-0.0053573 -8.36557e-16 1.64497)
(-0.00540456 -1.65076e-15 1.45565)
(-0.000220904 7.7847e-16 1.6168)
(-0.000558888 9.84664e-16 1.6168)
(-0.000887178 -3.95704e-15 1.61681)
(-0.00124197 1.03719e-15 1.61682)
(-0.00158727 8.21877e-16 1.61681)
(-0.00193898 4.34697e-16 1.61676)
(-0.0022807 -3.94727e-17 1.61667)
(-0.00264025 8.4234e-17 1.61652)
(-0.00297569 -1.55235e-16 1.61633)
(-0.00338367 3.23744e-16 1.61622)
(-0.00374404 5.08832e-16 1.61656)
(-0.00425047 -2.60166e-16 1.61826)
(-0.00487538 -1.35723e-16 1.62561)
(-0.00531442 -8.04503e-16 1.64529)
(-0.00535353 6.20773e-16 1.45223)
(-0.000221581 -2.13915e-15 1.61728)
(-0.000560586 7.23225e-15 1.61728)
(-0.00088987 4.57535e-15 1.61729)
(-0.00124567 9.21594e-16 1.61729)
(-0.00159209 -2.06683e-15 1.61728)
(-0.00194461 4.8112e-16 1.61724)
(-0.00228808 -1.41811e-15 1.61715)
(-0.00264776 7.85763e-17 1.61699)
(-0.00298784 -3.21908e-16 1.61682)
(-0.00339142 -5.00308e-16 1.61672)
(-0.00376654 5.42774e-16 1.6171)
(-0.0042476 9.61444e-17 1.61887)
(-0.00491325 7.15567e-16 1.62631)
(-0.00527344 -8.13257e-16 1.64557)
(-0.00529833 1.89304e-15 1.44883)
(-0.00022219 -2.57122e-15 1.61775)
(-0.000562143 -9.11402e-16 1.61776)
(-0.00089234 -1.82237e-15 1.61777)
(-0.00124906 8.22521e-16 1.61777)
(-0.00159651 1.1972e-15 1.61776)
(-0.00194977 5.33814e-16 1.61771)
(-0.00229488 7.28439e-16 1.61762)
(-0.0026547 8.37008e-17 1.61747)
(-0.00299916 -1.23582e-15 1.6173)
(-0.00339857 -4.05979e-16 1.61723)
(-0.00378746 6.14573e-16 1.61764)
(-0.00424476 1.02977e-15 1.61947)
(-0.00494766 -7.83668e-16 1.627)
(-0.00523427 -8.11833e-16 1.64582)
(-0.00523934 -8.07133e-17 1.44546)
(-0.000222753 -1.58024e-15 1.61823)
(-0.000563555 -9.35609e-16 1.61824)
(-0.00089458 3.41649e-15 1.61824)
(-0.00125214 6.91214e-16 1.61825)
(-0.00160054 1.04531e-15 1.61823)
(-0.00195448 5.15163e-16 1.61819)
(-0.00230113 1.06497e-16 1.6181)
(-0.00266109 2.59451e-18 1.61795)
(-0.00300966 -3.72626e-16 1.61779)
(-0.00340514 1.67947e-15 1.61774)
(-0.00380686 6.94294e-16 1.61819)
(-0.0042419 1.09078e-15 1.62008)
(-0.00497881 -2.84211e-16 1.62768)
(-0.0051966 -7.89842e-16 1.64603)
(-0.00517693 9.60345e-16 1.44213)
(-0.000223251 -8.17042e-16 1.61871)
(-0.00056483 -7.27134e-16 1.61872)
(-0.000896602 1.37528e-15 1.61872)
(-0.00125491 5.18013e-16 1.61873)
(-0.00160419 1.05695e-15 1.61871)
(-0.00195875 4.91218e-16 1.61867)
(-0.00230685 -1.40752e-16 1.61857)
(-0.00266693 -5.21912e-17 1.61843)
(-0.00301939 -7.2801e-16 1.61828)
(-0.00341114 2.76328e-16 1.61825)
(-0.00382481 7.47119e-16 1.61873)
(-0.004239 -5.23421e-16 1.62068)
(-0.00500686 -4.40018e-16 1.62836)
(-0.00516039 -7.76703e-16 1.64621)
(-0.00511142 1.20268e-15 1.43884)
(-0.0002237 -5.60881e-16 1.61919)