/*--------------------------------*- C++ -*----------------------------------*\
  =========                 |
  \\      /  F ield         | OpenFOAM: The Open Source CFD Toolbox
   \\    /   O peration     | Website:  https://openfoam.org
    \\  /    A nd           | Version:  8
     \\/     M anipulation  |
\*---------------------------------------------------------------------------*/
FoamFile
{
    version     2.0;
    format      ascii;
    class       volScalarField;
    location    "500";
    object      epsilon;
}
// * * * * * * * * * * * * * * * * * * * * * * * * * * * * * * * * * * * * * //

dimensions      [0 2 -3 0 0 0 0];

internalField   nonuniform List<scalar> 
7320
(
11607.3
10157.7
9314.43
8772.22
8390.2
8102.8
7875.93
7690.7
7535.77
7403.76
7289.61
7189.73
7101.46
7022.84
6952.31
6888.69
6831
6778.46
6730.43
6686.36
6645.81
6608.4
6573.78
6541.68
6511.84
6484.05
6458.14
6433.93
6411.3
6390.12
6370.28
6351.71
6334.3
6317.99
6302.71
6288.4
6274.99
6262.43
6250.67
6239.66
6229.36
6219.72
6210.72
6202.3
6194.45
6187.11
6180.28
6173.91
6167.99
6162.49
6157.39
6152.66
6148.3
6144.27
6140.57
6137.17
6134.07
6131.25
6128.69
6126.39
6124.34
6122.51
6120.91
6119.52
6118.34
6117.35
6116.55
6115.93
6115.49
6115.22
6115.11
6115.16
6115.36
6115.7
6116.19
6116.82
6117.57
6118.46
6119.48
6120.61
6121.87
6123.24
6124.72
6126.31
6128.01
6129.81
6131.71
6133.72
6135.81
6138.01
6140.29
6142.67
6145.13
6147.67
6150.3
6153
6155.79
6158.64
6161.58
6164.57
6167.64
6170.77
6173.96
6177.2
6180.5
6183.85
6187.24
6190.68
6194.15
6197.66
6201.19
6204.75
6208.33
6211.92
6215.52
6219.13
6222.74
6226.34
6229.92
6233.5
6236.93
6240.46
3749.32
3919.37
3598.69
3368.86
3210.19
3093.2
3002.11
2928.43
2867.18
2815.25
2770.5
2731.45
2697.02
2666.41
2638.99
2614.29
2591.92
2571.56
2552.97
2535.92
2520.24
2505.78
2492.41
2480.02
2468.51
2457.8
2447.81
2438.5
2429.8
2421.67
2414.06
2406.94
2400.28
2394.05
2388.22
2382.76
2377.65
2372.87
2368.4
2364.22
2360.31
2356.65
2353.24
2350.06
2347.09
2344.32
2341.74
2339.34
2337.11
2335.04
2333.13
2331.36
2329.73
2328.22
2326.85
2325.59
2324.44
2323.4
2322.46
2321.63
2320.88
2320.22
2319.65
2319.17
2318.76
2318.42
2318.17
2317.98
2317.85
2317.8
2317.8
2317.87
2317.99
2318.18
2318.41
2318.7
2319.04
2319.43
2319.87
2320.36
2320.89
2321.47
2322.09
2322.75
2323.46
2324.2
2324.98
2325.8
2326.66
2327.55
2328.48
2329.44
2330.44
2331.46
2332.52
2333.61
2334.72
2335.87
2337.04
2338.23
2339.45
2340.7
2341.96
2343.25
2344.55
2345.87
2347.21
2348.57
2349.93
2351.31
2352.7
2354.09
2355.49
2356.89
2358.3
2359.7
2361.1
2362.5
2363.89
2365.28
2366.61
2367.97
1528.99
1989.05
1884.98
1770.23
1685.89
1623.05
1574.14
1534.67
1501.95
1474.25
1450.43
1429.67
1411.39
1395.16
1380.63
1367.55
1355.71
1344.94
1335.11
1326.1
1317.82
1310.18
1303.13
1296.59
1290.53
1284.88
1279.63
1274.73
1270.17
1265.9
1261.91
1258.18
1254.7
1251.44
1248.39
1245.54
1242.87
1240.37
1238.04
1235.86
1233.82
1231.92
1230.14
1228.49
1226.94
1225.5
1224.16
1222.92
1221.76
1220.69
1219.7
1218.79
1217.95
1217.18
1216.47
1215.82
1215.24
1214.71
1214.23
1213.81
1213.44
1213.11
1212.83
1212.59
1212.39
1212.24
1212.12
1212.04
1211.99
1211.98
1212.01
1212.06
1212.14
1212.26
1212.4
1212.57
1212.77
1212.99
1213.24
1213.51
1213.81
1214.13
1214.48
1214.84
1215.23
1215.63
1216.06
1216.5
1216.97
1217.45
1217.95
1218.47
1219
1219.56
1220.12
1220.7
1221.3
1221.91
1222.53
1223.16
1223.81
1224.47
1225.14
1225.82
1226.51
1227.2
1227.91
1228.62
1229.33
1230.06
1230.78
1231.51
1232.24
1232.98
1233.71
1234.44
1235.17
1235.9
1236.62
1237.34
1238.03
1238.73
720.941
1168.15
1165.72
1105.65
1054.38
1014.75
983.61
958.429
937.557
919.91
904.75
891.557
879.953
869.656
860.45
852.167
844.676
837.867
831.654
825.964
820.736
815.919
811.47
807.352
803.532
799.984
796.683
793.609
790.743
788.069
785.573
783.241
781.061
779.024
777.12
775.339
773.674
772.117
770.661
769.301
768.03
766.843
765.736
764.702
763.74
762.844
762.01
761.236
760.518
759.853
759.239
758.673
758.153
757.676
757.24
756.843
756.484
756.16
755.87
755.613
755.388
755.192
755.024
754.884
754.77
754.681
754.616
754.574
754.555
754.557
754.58
754.622
754.684
754.764
754.862
754.977
755.109
755.257
755.421
755.6
755.793
756
756.221
756.456
756.703
756.963
757.234
757.518
757.813
758.118
758.434
758.761
759.097
759.443
759.797
760.161
760.533
760.913
761.301
761.696
762.097
762.506
762.92
763.34
763.765
764.195
764.628
765.066
765.507
765.95
766.395
766.842
767.29
767.739
768.187
768.634
769.08
769.524
769.965
770.403
770.828
771.25
358.82
725.629
779.829
754.392
722.982
696.536
675.147
657.664
643.11
630.786
620.195
610.98
602.879
595.694
589.274
583.502
578.284
573.544
569.22
565.263
561.629
558.282
555.194
552.336
549.689
547.231
544.947
542.821
540.84
538.994
537.271
535.661
534.158
532.753
531.439
530.211
529.062
527.987
526.982
526.043
525.165
524.345
523.58
522.866
522.201
521.582
521.005
520.471
519.975
519.516
519.092
518.701
518.342
518.013
517.713
517.44
517.193
516.97
516.772
516.596
516.441
516.308
516.194
516.099
516.022
515.962
515.919
515.892
515.881
515.884
515.901
515.931
515.975
516.031
516.099
516.179
516.27
516.373
516.485
516.608
516.741
516.883
517.033
517.193
517.361
517.538
517.722
517.914
518.113
518.32
518.532
518.752
518.978
519.21
519.448
519.691
519.94
520.194
520.452
520.715
520.983
521.254
521.529
521.808
522.089
522.374
522.661
522.951
523.242
523.535
523.829
524.124
524.419
524.715
525.01
525.305
525.598
525.891
526.181
526.47
526.751
527.027
180.95
454.606
539.365
539.227
522.289
504.944
489.985
477.422
466.829
457.801
450.016
443.23
437.258
431.96
427.225
422.969
419.121
415.626
412.44
409.524
406.847
404.384
402.111
400.01
398.064
396.259
394.582
393.021
391.568
390.213
388.948
387.767
386.663
385.631
384.666
383.762
382.917
382.125
381.385
380.692
380.044
379.438
378.872
378.344
377.852
377.393
376.966
376.569
376.201
375.86
375.545
375.254
374.987
374.741
374.517
374.313
374.129
373.962
373.813
373.681
373.564
373.463
373.376
373.303
373.243
373.196
373.161
373.137
373.125
373.124
373.132
373.15
373.178
373.215
373.26
373.314
373.375
373.445
373.522
373.606
373.696
373.794
373.897
374.007
374.123
374.244
374.371
374.503
374.639
374.781
374.927
375.078
375.233
375.392
375.555
375.722
375.892
376.065
376.242
376.422
376.604
376.79
376.977
377.167
377.359
377.554
377.749
377.947
378.145
378.345
378.545
378.747
378.948
379.15
379.352
379.553
379.754
379.954
380.153
380.35
380.544
380.732
91.0616
278.177
374.321
393.387
388.302
378.207
368.135
359.167
351.387
344.653
338.793
333.658
329.123
325.091
321.482
318.234
315.297
312.628
310.194
307.966
305.922
304.04
302.304
300.7
299.215
297.836
296.556
295.364
294.254
293.217
292.25
291.345
290.499
289.707
288.965
288.27
287.618
287.008
286.436
285.9
285.399
284.929
284.49
284.079
283.695
283.338
283.004
282.694
282.405
282.138
281.89
281.661
281.449
281.255
281.077
280.915
280.767
280.633
280.512
280.404
280.308
280.224
280.151
280.089
280.036
279.993
279.959
279.934
279.917
279.909
279.907
279.914
279.927
279.947
279.973
280.005
280.044
280.088
280.137
280.192
280.251
280.316
280.385
280.458
280.535
280.617
280.702
280.791
280.883
280.979
281.078
281.181
281.286
281.394
281.504
281.618
281.734
281.852
281.972
282.095
282.219
282.346
282.474
282.604
282.735
282.868
283.002
283.138
283.274
283.411
283.55
283.688
283.827
283.967
284.107
284.246
284.386
284.525
284.664
284.802
284.938
285.069
46.0967
162.189
254.261
286.985
292.083
288.344
282.427
276.399
270.841
265.871
261.463
257.552
254.072
250.96
248.165
245.642
243.355
241.275
239.375
237.635
236.037
234.566
233.209
231.954
230.791
229.711
228.707
227.772
226.899
226.084
225.321
224.606
223.937
223.309
222.72
222.167
221.647
221.16
220.703
220.273
219.871
219.493
219.139
218.807
218.497
218.207
217.936
217.683
217.447
217.228
217.024
216.835
216.66
216.498
216.35
216.213
216.088
215.974
215.87
215.776
215.692
215.617
215.55
215.492
215.442
215.399
215.363
215.333
215.311
215.294
215.283
215.278
215.278
215.283
215.293
215.308
215.327
215.351
215.379
215.41
215.445
215.484
215.526
215.571
215.619
215.671
215.725
215.781
215.841
215.903
215.967
216.033
216.102
216.172
216.245
216.319
216.396
216.474
216.554
216.635
216.718
216.803
216.888
216.975
217.064
217.153
217.244
217.336
217.429
217.522
217.617
217.712
217.807
217.904
218
218.097
218.194
218.292
218.389
218.486
218.583
218.675
24.1389
88.6484
164.986
205.253
218.887
220.976
218.885
215.492
211.862
208.378
205.161
202.236
199.59
197.197
195.031
193.064
191.273
189.638
188.141
186.768
185.504
184.34
183.263
182.267
181.343
180.483
179.682
178.935
178.235
177.58
176.966
176.389
175.847
175.338
174.858
174.407
173.983
173.583
173.208
172.854
172.522
172.209
171.916
171.64
171.381
171.139
170.912
170.699
170.5
170.314
170.14
169.979
169.829
169.689
169.56
169.44
169.33
169.228
169.135
169.049
168.972
168.901
168.837
168.78
168.729
168.684
168.645
168.61
168.581
168.557
168.537
168.521
168.51
168.503
168.499
168.499
168.503
168.51
168.52
168.533
168.548
168.567
168.588
168.611
168.636
168.664
168.694
168.726
168.76
168.796
168.834
168.873
168.914
168.957
169.001
169.046
169.093
169.142
169.192
169.243
169.295
169.349
169.403
169.459
169.516
169.574
169.634
169.694
169.755
169.817
169.88
169.944
170.009
170.074
170.14
170.207
170.274
170.341
170.409
170.478
170.547
170.612
13.5084
45.5623
99.814
140.768
160.687
168.047
169.612
168.74
166.918
164.789
162.633
160.564
158.629
156.839
155.192
153.679
152.289
151.011
149.836
148.752
147.752
146.827
145.971
145.176
144.436
143.746
143.102
142.498
141.932
141.399
140.898
140.425
139.98
139.559
139.162
138.788
138.435
138.101
137.787
137.49
137.21
136.946
136.698
136.463
136.243
136.036
135.841
135.657
135.485
135.324
135.173
135.031
134.898
134.774
134.658
134.551
134.45
134.357
134.27
134.19
134.116
134.048
133.986
133.928
133.876
133.828
133.784
133.745
133.71
133.678
133.651
133.627
133.606
133.588
133.573
133.561
133.552
133.545
133.541
133.539
133.539
133.541
133.545
133.551
133.559
133.569
133.58
133.593
133.608
133.623
133.641
133.659
133.679
133.701
133.723
133.747
133.772
133.798
133.825
133.854
133.884
133.914
133.946
133.979
134.013
134.048
134.084
134.121
134.16
134.199
134.239
134.28
134.322
134.365
134.409
134.454
134.499
134.546
134.593
134.64
134.689
134.735
8.23297
22.8776
55.2867
90.228
113.178
124.85
129.856
131.463
131.425
130.618
129.473
128.204
126.919
125.67
124.481
123.363
122.317
121.344
120.438
119.597
118.815
118.088
117.412
116.781
116.191
115.639
115.121
114.633
114.173
113.738
113.326
112.937
112.567
112.218
111.886
111.572
111.274
110.993
110.726
110.474
110.235
110.009
109.796
109.594
109.404
109.224
109.054
108.893
108.742
108.6
108.465
108.339
108.22
108.108
108.002
107.903
107.81
107.723
107.642
107.565
107.494
107.427
107.365
107.307
107.252
107.202
107.155
107.112
107.071
107.034
107
106.968
106.94
106.913
106.889
106.868
106.848
106.831
106.815
106.801
106.789
106.779
106.77
106.763
106.757
106.753
106.749
106.748
106.747
106.748
106.749
106.752
106.757
106.762
106.768
106.775
106.784
106.793
106.804
106.815
106.828
106.842
106.857
106.873
106.89
106.908
106.927
106.947
106.969
106.991
107.015
107.039
107.065
107.092
107.119
107.148
107.178
107.208
107.24
107.273
107.306
107.339
5.47937
11.9932
28.2309
52.6649
74.495
88.7635
96.7041
100.69
102.44
102.969
102.841
102.365
101.714
100.983
100.226
99.4737
98.7433
98.0438
97.3795
96.752
96.1613
95.6061
95.0845
94.5943
94.1327
93.6974
93.2857
92.8954
92.5246
92.1718
91.8357
91.5153
91.2098
90.9187
90.6412
90.3771
90.1258
89.8868
89.6597
89.444
89.2392
89.0448
88.8603
88.6853
88.5194
88.362
88.2129
88.0715
87.9375
87.8106
87.6903
87.5763
87.4684
87.3663
87.2696
87.1781
87.0915
87.0096
86.9322
86.8589
86.7897
86.7242
86.6624
86.604
86.5487
86.4965
86.4471
86.4004
86.3562
86.3145
86.2752
86.2382
86.2033
86.1705
86.1395
86.1103
86.0829
86.0571
86.0329
86.0101
85.9887
85.9687
85.95
85.9325
85.9162
85.9011
85.887
85.8741
85.8622
85.8514
85.8415
85.8327
85.8249
85.818
85.8122
85.8073
85.8035
85.8006
85.7988
85.7979
85.7981
85.7994
85.8017
85.8051
85.8096
85.8153
85.822
85.8298
85.8389
85.8491
85.8604
85.8729
85.8866
85.9014
85.9173
85.9344
85.9526
85.9719
85.9923
86.0136
86.0365
86.059
3.95841
6.92866
14.0447
27.7128
44.4801
58.7408
68.5349
74.555
78.0225
79.9011
80.8188
81.1603
81.1575
80.9504
80.6247
80.2331
79.8085
79.3717
78.9356
78.5082
78.0944
77.6968
77.3164
76.9533
76.6068
76.2758
75.9591
75.6556
75.3641
75.0838
74.8142
74.5548
74.3054
74.0658
73.8359
73.6156
73.4046
73.203
73.0103
72.8265
72.6512
72.4841
72.3249
72.1732
72.0287
71.8912
71.7602
71.6354
71.5166
71.4035
71.2958
71.1931
71.0954
71.0022
70.9135
70.8289
70.7483
70.6714
70.5981
70.5282
70.4616
70.398
70.3372
70.2792
70.2238
70.1707
70.1199
70.0712
70.0246
69.98
69.9372
69.8964
69.8572
69.8196
69.7836
69.7491
69.7159
69.6841
69.6536
69.6242
69.596
69.569
69.543
69.518
69.494
69.471
69.449
69.4279
69.4077
69.3884
69.3701
69.3526
69.3361
69.3205
69.3058
69.292
69.2792
69.2674
69.2565
69.2466
69.2377
69.2299
69.2231
69.2175
69.2129
69.2094
69.2071
69.206
69.206
69.2073
69.2097
69.2134
69.2183
69.2244
69.2317
69.2402
69.2499
69.2607
69.2727
69.2859
69.3006
69.3156
3.07723
4.48267
7.42969
13.6627
23.6765
35.0256
44.8491
52.0825
56.9684
60.1184
62.0853
63.271
63.946
64.2875
64.4108
64.3917
64.2799
64.109
63.9013
63.6722
63.4318
63.1872
62.9427
62.701
62.4637
62.2313
62.0039
61.7817
61.5643
61.3518
61.1442
60.9417
60.7444
60.5527
60.3668
60.187
60.0135
59.8463
59.6855
59.531
59.3829
59.241
59.105
58.9749
58.8503
58.7311
58.617
58.5079
58.4034
58.3034
58.2076
58.1158
58.0279
57.9436
57.8628
57.7853
57.711
57.6396
57.571
57.505
57.4417
57.3807
57.322
57.2654
57.2109
57.1583
57.1074
57.0582
57.0106
56.9645
56.92
56.8769
56.8352
56.7948
56.7556
56.7176
56.6808
56.645
56.6102
56.5765
56.5437
56.5118
56.4808
56.4507
56.4214
56.393
56.3654
56.3386
56.3126
56.2875
56.2632
56.2397
56.2171
56.1953
56.1743
56.1543
56.1352
56.117
56.0997
56.0834
56.0681
56.0539
56.0406
56.0285
56.0175
56.0075
55.9987
55.9911
55.9847
55.9795
55.9755
55.9727
55.9712
55.9709
55.9718
55.9739
55.9773
55.9819
55.9876
55.9945
56.003
56.0124
2.55068
3.21778
4.43832
6.94253
11.6103
18.4646
26.1706
33.1843
38.7612
42.8701
45.7762
47.7853
49.1524
50.0675
50.6657
51.0416
51.2612
51.3706
51.4022
51.3791
51.3177
51.2296
51.123
51.0038
50.8757
50.7415
50.6028
50.4608
50.3166
50.1708
50.0242
49.8775
49.7315
49.5867
49.444
49.3039
49.1668
49.0333
48.9035
48.7778
48.6561
48.5387
48.4254
48.3163
48.2112
48.11
48.0126
47.9189
47.8286
47.7417
47.658
47.5774
47.4996
47.4247
47.3523
47.2825
47.215
47.1498
47.0868
47.0257
46.9667
46.9094
46.8539
46.8
46.7477
46.6968
46.6473
46.599
46.5519
46.506
46.4613
46.4177
46.3751
46.3336
46.293
46.2534
46.2146
46.1768
46.1397
46.1035
46.068
46.0333
45.9993
45.9661
45.9336
45.9018
45.8707
45.8403
45.8107
45.7818
45.7537
45.7263
45.6996
45.6738
45.6488
45.6246
45.6013
45.5788
45.5573
45.5367
45.517
45.4983
45.4807
45.4641
45.4485
45.4341
45.4208
45.4086
45.3976
45.3877
45.3791
45.3717
45.3654
45.3604
45.3566
45.354
45.3526
45.3524
45.3534
45.3556
45.3592
45.3641
2.23299
2.5213
3.02004
3.97831
5.81131
8.95325
13.4245
18.6064
23.6546
28.0086
31.4918
34.1618
36.1611
37.6393
38.7238
39.5145
40.0867
40.4964
40.785
40.9829
41.1129
41.1915
41.2312
41.2411
41.2277
41.196
41.1495
41.0909
41.0223
40.9454
40.8617
40.7726
40.6793
40.583
40.4847
40.3854
40.2859
40.1869
40.0889
39.9926
39.8981
39.8058
39.7157
39.6281
39.543
39.4604
39.3802
39.3025
39.2271
39.154
39.083
39.0142
38.9474
38.8826
38.8196
38.7584
38.6988
38.6409
38.5845
38.5295
38.4759
38.4236
38.3726
38.3227
38.2739
38.2262
38.1795
38.1336
38.0886
38.0444
38.001
37.9584
37.9166
37.8756
37.8353
37.7957
37.7568
37.7186
37.6809
37.6439
37.6076
37.5718
37.5366
37.502
37.4681
37.4347
37.4019
37.3698
37.3383
37.3074
37.2772
37.2476
37.2188
37.1906
37.1633
37.1367
37.1108
37.0858
37.0617
37.0384
37.016
36.9946
36.9741
36.9546
36.9361
36.9186
36.9023
36.887
36.8728
36.8597
36.8477
36.837
36.8273
36.8189
36.8116
36.8054
36.8004
36.7965
36.7938
36.7922
36.792
36.7934
2.04415
2.12289
2.29752
2.64296
3.30166
4.48769
6.42602
9.18515
12.5445
16.0848
19.4151
22.3108
24.7067
26.6315
28.1526
29.3441
30.2731
30.9958
31.5573
31.9928
32.3298
32.5895
32.7881
32.9382
33.0492
33.1284
33.1815
33.2127
33.2254
33.2225
33.2064
33.179
33.1423
33.0978
33.0472
32.9916
32.9323
32.8703
32.8065
32.7416
32.6761
32.6107
32.5455
32.481
32.4172
32.3545
32.2928
32.2323
32.173
32.1148
32.0579
32.0021
31.9474
31.8939
31.8415
31.7901
31.7397
31.6903
31.6418
31.5942
31.5474
31.5015
31.4563
31.4118
31.368
31.3249
31.2824
31.2404
31.199
31.158
31.1176
31.0776
31.0382
30.9992
30.9607
30.9227
30.8852
30.8481
30.8115
30.7754
30.7397
30.7044
30.6696
30.6353
30.6014
30.568
30.5351
30.5027
30.4708
30.4395
30.4087
30.3786
30.349
30.32
30.2917
30.2641
30.2372
30.211
30.1856
30.161
30.1372
30.1143
30.0922
30.0711
30.0508
30.0316
30.0133
29.996
29.9797
29.9645
29.9503
29.9372
29.9251
29.9141
29.9042
29.8954
29.8876
29.8809
29.8752
29.8707
29.8673
29.8657
1.93662
1.89378
1.90909
1.99887
2.20581
2.60134
3.28857
4.38475
5.96584
7.99811
10.3234
12.7231
15.0051
17.0512
18.8156
20.3
21.5308
22.5427
23.3713
24.0486
24.602
25.0545
25.4245
25.7271
25.9742
26.1752
26.3377
26.4677
26.57
26.6485
26.7067
26.7474
26.7731
26.7859
26.7878
26.7806
26.7658
26.7448
26.7188
26.6887
26.6554
26.6196
26.5819
26.5429
26.5029
26.4622
26.421
26.3796
26.3382
26.2967
26.2554
26.2143
26.1734
26.1328
26.0924
26.0524
26.0127
25.9733
25.9342
25.8954
25.857
25.8188
25.781
25.7434
25.7061
25.669
25.6322
25.5956
25.5592
25.523
25.487
25.4512
25.4156
25.3802
25.345
25.3101
25.2755
25.2411
25.207
25.1731
25.1395
25.1062
25.0732
25.0405
25.0082
24.9761
24.9445
24.9132
24.8823
24.8519
24.8218
24.7923
24.7633
24.7347
24.7068
24.6794
24.6526
24.6264
24.6009
24.5761
24.552
24.5286
24.506
24.4842
24.4632
24.4431
24.4238
24.4055
24.388
24.3714
24.3558
24.3412
24.3274
24.3147
24.3029
24.2921
24.2822
24.2733
24.2653
24.2584
24.2525
24.2483
1.87971
1.76618
1.6969
1.67019
1.69599
1.79455
1.99808
2.35263
2.91531
3.74021
4.85282
6.22679
7.78257
9.41177
11.0108
12.5043
13.8505
15.0349
16.0609
16.9411
17.6917
18.3301
18.8722
19.3325
19.7231
20.0547
20.3359
20.5738
20.7746
20.9432
21.0839
21.2003
21.2956
21.3725
21.4334
21.4806
21.516
21.5412
21.5578
21.5671
21.5702
21.5682
21.5617
21.5516
21.5385
21.5228
21.505
21.4854
21.4643
21.4419
21.4184
21.3941
21.369
21.3432
21.3168
21.29
21.2627
21.2351
21.2071
21.1789
21.1503
21.1216
21.0927
21.0635
21.0343
21.0048
20.9752
20.9455
20.9157
20.8858
20.8557
20.8255
20.7953
20.7649
20.7346
20.7042
20.6738
20.6435
20.6132
20.583
20.5529
20.5229
20.493
20.4633
20.4337
20.4043
20.3752
20.3462
20.3176
20.2892
20.2611
20.2334
20.206
20.179
20.1524
20.1263
20.1007
20.0755
20.0509
20.0269
20.0034
19.9805
19.9583
19.9368
19.9159
19.8957
19.8763
19.8576
19.8397
19.8226
19.8063
19.7908
19.7761
19.7622
19.7491
19.7369
19.7255
19.7149
19.7052
19.6963
19.6884
19.6821
1.85262
1.70013
1.58443
1.50014
1.4469
1.42874
1.45383
1.53512
1.69135
1.94726
2.33147
2.87025
3.5778
4.44716
5.44734
6.52936
7.63814
8.72438
9.75172
10.6983
11.5544
12.3189
12.9957
13.5916
14.1143
14.5719
14.9717
15.3206
15.6246
15.8892
16.1189
16.3179
16.4897
16.6376
16.7643
16.8725
16.9644
17.042
17.1071
17.1614
17.2062
17.2427
17.2722
17.2954
17.3132
17.3264
17.3355
17.341
17.3435
17.3431
17.3404
17.3354
17.3286
17.3201
17.31
17.2986
17.2859
17.272
17.2572
17.2413
17.2246
17.2071
17.1889
17.1699
17.1504
17.1302
17.1095
17.0882
17.0665
17.0443
17.0217
16.9987
16.9753
16.9515
16.9274
16.9029
16.8783
16.8534
16.8283
16.8031
16.7778
16.7524
16.7269
16.7013
16.6758
16.6503
16.6248
16.5993
16.574
16.5488
16.5238
16.4989
16.4742
16.4498
16.4257
16.4018
16.3783
16.3551
16.3323
16.3099
16.2879
16.2664
16.2454
16.2249
16.2049
16.1855
16.1667
16.1484
16.1308
16.1137
16.0974
16.0816
16.0666
16.0521
16.0384
16.0253
16.013
16.0012
15.9902
15.9799
15.9704
15.9624
1.84139
1.6697
1.52946
1.4157
1.32537
1.25752
1.21298
1.19428
1.2059
1.25453
1.3495
1.50277
1.72823
2.03963
2.44734
2.95457
3.5547
4.23105
4.95942
5.71248
6.46424
7.19341
7.88478
8.5291
9.12198
9.66248
10.1519
10.5929
10.9886
11.3428
11.6589
11.9405
12.1908
12.413
12.6097
12.7837
12.9373
13.0727
13.1919
13.2966
13.3885
13.469
13.5394
13.6008
13.6544
13.7009
13.7411
13.7758
13.8055
13.8308
13.8522
13.8699
13.8845
13.8961
13.9051
13.9117
13.916
13.9184
13.9189
13.9177
13.915
13.9108
13.9052
13.8984
13.8904
13.8813
13.8712
13.8601
13.8481
13.8353
13.8217
13.8074
13.7924
13.7767
13.7603
13.7433
13.7258
13.7077
13.6893
13.6704
13.6511
13.6316
13.6117
13.5916
13.5713
13.5508
13.5301
13.5093
13.4884
13.4675
13.4465
13.4255
13.4046
13.3837
13.363
13.3423
13.3218
13.3015
13.2814
13.2616
13.242
13.2226
13.2036
13.185
13.1667
13.1487
13.1312
13.1141
13.0974
13.0811
13.0654
13.05
13.0352
13.0209
13.0071
12.9937
12.9809
12.9686
12.9568
12.9456
12.935
12.9257
1.83747
1.65774
1.50597
1.37779
1.26982
1.17973
1.10613
1.0485
1.0071
0.982967
0.97802
0.995182
1.03851
1.11327
1.22579
1.383
1.59157
1.85661
2.18032
2.56087
2.99207
3.46382
3.96341
4.47718
4.99215
5.49722
5.98377
6.44582
6.87968
7.28351
7.65682
8.00005
8.31426
8.60088
8.86157
9.09811
9.31231
9.506
9.6809
9.83869
9.98093
10.1091
10.2245
10.3283
10.4218
10.5058
10.5814
10.6494
10.7104
10.7652
10.8144
10.8584
10.8977
10.9328
10.9639
10.9915
11.0159
11.0372
11.0557
11.0717
11.0853
11.0967
11.106
11.1135
11.1191
11.1231
11.1256
11.1265
11.1261
11.1245
11.1216
11.1176
11.1125
11.1064
11.0994
11.0914
11.0825
11.0729
11.0624
11.0513
11.0395
11.0271
11.0142
11.0007
10.9868
10.9725
10.9579
10.9428
10.9275
10.9119
10.8961
10.8801
10.8639
10.8476
10.8312
10.8148
10.7982
10.7817
10.7652
10.7488
10.7324
10.7161
10.6999
10.6839
10.668
10.6524
10.6369
10.6216
10.6066
10.5919
10.5774
10.5632
10.5493
10.5357
10.5224
10.5095
10.4968
10.4845
10.4726
10.461
10.4499
10.4398
1.83635
1.65389
1.49762
1.36332
1.24761
1.14783
1.062
0.988661
0.926848
0.875995
0.835924
0.806832
0.789309
0.784375
0.793528
0.818789
0.862717
0.928353
1.01907
1.13829
1.28906
1.47359
1.69271
1.94554
2.22929
2.53945
2.87014
3.21468
3.56618
3.91819
4.26501
4.60206
4.92585
5.23398
5.52496
5.79806
6.0531
6.29031
6.51022
6.71354
6.90113
7.07391
7.23284
7.37888
7.51299
7.63609
7.74904
7.85265
7.9477
8.03486
8.11478
8.18805
8.25521
8.31674
8.37308
8.42464
8.47178
8.51485
8.55413
8.58991
8.62243
8.65191
8.67857
8.7026
8.72415
8.7434
8.76048
8.77554
8.78868
8.80003
8.8097
8.81778
8.82437
8.82956
8.83342
8.83603
8.83744
8.8377
8.83683
8.83491
8.83204
8.82826
8.82363
8.81822
8.81208
8.80526
8.79781
8.78977
8.78119
8.77211
8.76256
8.7526
8.74225
8.73155
8.72053
8.70924
8.69769
8.68592
8.67396
8.66183
8.64957
8.6372
8.62474
8.61222
8.59965
8.58707
8.57448
8.56191
8.54937
8.53689
8.52447
8.51213
8.49988
8.48773
8.4757
8.46379
8.45201
8.44037
8.42889
8.41757
8.40658
8.39636
1.8361
1.6529
1.49526
1.35888
1.24033
1.13688
1.04634
0.966998
0.8975
0.836801
0.784121
0.738903
0.700795
0.66963
0.645428
0.628393
0.618928
0.617651
0.625409
0.643289
0.672614
0.714913
0.771858
0.84516
0.936427
1.04698
1.17767
1.32871
1.49953
1.68877
1.89428
2.11328
2.34252
2.57854
2.81785
3.05721
3.29373
3.52496
3.74899
3.96438
4.17018
4.36577
4.5509
4.72552
4.88977
5.04392
5.18834
5.32343
5.44963
5.56743
5.6773
5.7797
5.8751
5.96394
6.04665
6.12363
6.19526
6.26189
6.32383
6.38141
6.43489
6.48453
6.53057
6.57324
6.61274
6.64926
6.68298
6.71407
6.74267
6.76894
6.793
6.81499
6.835
6.85317
6.86958
6.88433
6.89751
6.9092
6.91948
6.9284
6.93598
6.9423
6.94744
6.95147
6.95447
6.95648
6.95756
6.95779
6.95719
6.95584
6.95376
6.95101
6.94762
6.94364
6.93911
6.93406
6.92852
6.92253
6.91612
6.90932
6.90216
6.89466
6.88684
6.87874
6.87038
6.86177
6.85294
6.8439
6.83468
6.8253
6.81575
6.80608
6.79628
6.78636
6.77636
6.76626
6.7561
6.74587
6.7356
6.7253
6.71512
6.70545
1.83605
1.6527
1.49473
1.35782
1.23848
1.13393
1.04192
0.960651
0.888632
0.82467
0.767793
0.717216
0.672311
0.632587
0.597667
0.567277
0.541239
0.519467
0.501959
0.488805
0.480186
0.47638
0.477767
0.484836
0.49818
0.518494
0.546554
0.583197
0.629277
0.68561
0.752916
0.831744
0.922405
1.02492
1.13896
1.26386
1.39863
1.54195
1.6923
1.84799
2.00728
2.16843
2.32982
2.48997
2.6476
2.80163
2.95124
3.09578
3.23481
3.36806
3.49537
3.61672
3.73214
3.84173
3.94565
4.04405
4.13714
4.22511
4.30819
4.38657
4.46048
4.53013
4.59572
4.65745
4.71552
4.77012
4.82143
4.86961
4.91483
4.95724
4.99698
5.03419
5.06899
5.10151
5.13185
5.16012
5.18643
5.21088
5.23355
5.25452
5.27388
5.29171
5.30805
5.32293
5.33642
5.34861
5.35956
5.36934
5.37801
5.38562
5.39224
5.3979
5.40266
5.40656
5.40964
5.41195
5.41352
5.41438
5.41458
5.41413
5.41308
5.41145
5.40927
5.40656
5.40335
5.39965
5.3955
5.39091
5.3859
5.38049
5.3747
5.36855
5.36204
5.3552
5.34805
5.34059
5.33285
5.32483
5.31655
5.30805
5.29945
5.29109
1.83603
1.65264
1.49462
1.3576
1.23811
1.13332
1.04098
0.959246
0.886595
0.821781
0.76377
0.711705
0.664871
0.622675
0.584622
0.550304
0.519386
0.491594
0.466712
0.444573
0.425055
0.408082
0.393615
0.38166
0.37226
0.365503
0.361518
0.360482
0.362614
0.368185
0.377508
0.390937
0.408863
0.431696
0.459858
0.493758
0.533773
0.580224
0.633348
0.693275
0.760013
0.833427
0.91324
0.99903
1.09024
1.18621
1.28619
1.38935
1.49485
1.60184
1.70951
1.8171
1.92391
2.02932
2.13281
2.23395
2.3324
2.42789
2.52023
2.60931
2.69504
2.77741
2.85641
2.93209
3.00449
3.07369
3.13975
3.20277
3.26283
3.32001
3.37442
3.42615
3.47528
3.52192
3.56615
3.60807
3.64776
3.68533
3.72085
3.7544
3.78608
3.81596
3.8441
3.87059
3.89549
3.91885
3.94069
3.96105
3.98001
3.99763
4.01397
4.02908
4.04301
4.05582
4.06753
4.07821
4.08788
4.09659
4.10437
4.11125
4.11727
4.12246
4.12685
4.13045
4.1333
4.13543
4.13685
4.13759
4.13766
4.1371
4.13591
4.13412
4.13175
4.12882
4.12534
4.12134
4.11683
4.11183
4.10637
4.10047
4.09426
4.08801
1.83602
1.65261
1.49457
1.35754
1.23801
1.13319
1.0408
0.958995
0.886239
0.821274
0.763051
0.710688
0.663449
0.620708
0.581938
0.54669
0.514581
0.485287
0.45853
0.434076
0.411723
0.391305
0.372681
0.355736
0.340378
0.326536
0.314157
0.303209
0.293677
0.285565
0.278893
0.2737
0.270046
0.268008
0.267682
0.269186
0.272657
0.27825
0.286138
0.296507
0.309554
0.325483
0.344495
0.366785
0.392532
0.42189
0.454982
0.49189
0.532647
0.577235
0.625578
0.677541
0.732932
0.791508
0.852972
0.916992
0.9832
1.05121
1.12061
1.19101
1.262
1.33322
1.40429
1.4749
1.54474
1.61357
1.68114
1.74729
1.81184
1.87469
1.93574
1.99492
2.0522
2.10754
2.16095
2.21241
2.26196
2.30961
2.35539
2.39932
2.44146
2.48183
2.52047
2.55743
2.59274
2.62644
2.65858
2.6892
2.71832
2.74597
2.77215
2.79689
2.82025
2.84225
2.86296
2.8824
2.90062
2.91765
2.93352
2.94826
2.96191
2.97448
2.98602
2.99655
3.00608
3.01465
3.02228
3.029
3.03481
3.03976
3.04385
3.04711
3.04957
3.05124
3.05216
3.05233
3.0518
3.05057
3.04869
3.04618
3.04315
3.03983
1.83602
1.65258
1.49453
1.35749
1.23795
1.13313
1.04073
0.958918
0.886153
0.821175
0.76293
0.710534
0.663244
0.620428
0.581551
0.546153
0.513841
0.484276
0.457165
0.432255
0.409327
0.388188
0.368672
0.350636
0.333951
0.31851
0.304216
0.290989
0.278758
0.267464
0.257058
0.247499
0.238756
0.230806
0.223632
0.217228
0.211592
0.206732
0.202663
0.199407
0.196995
0.195466
0.194865
0.195248
0.196677
0.199224
0.202967
0.207989
0.214382
0.222238
0.231654
0.242727
0.255551
0.270218
0.286809
0.305397
0.326044
0.348793
0.373672
0.400687
0.429823
0.461042
0.494284
0.529466
0.566482
0.605206
0.645493
0.687183
0.730104
0.774072
0.818897
0.864388
0.910351
0.956597
1.00294
1.04921
1.09525
1.14089
1.186
1.23046
1.27415
1.31698
1.35887
1.39974
1.43954
1.47823
1.51576
1.55212
1.58728
1.62123
1.65397
1.6855
1.7158
1.74487
1.77267
1.79921
1.82451
1.84859
1.87144
1.8931
1.91357
1.93286
1.951
1.968
1.98387
1.99863
2.0123
2.0249
2.03646
2.04698
2.0565
2.06503
2.07261
2.07925
2.08499
2.08986
2.09388
2.09708
2.09949
2.10116
2.10217
2.10269
1.83601
1.65256
1.4945
1.35744
1.2379
1.13307
1.04068
0.958862
0.886097
0.821119
0.762874
0.710479
0.663188
0.620369
0.581486
0.546077
0.513746
0.484154
0.457003
0.432037
0.409031
0.387791
0.368143
0.349936
0.333036
0.317326
0.302702
0.28907
0.276348
0.264464
0.253352
0.242956
0.233223
0.224109
0.215575
0.207584
0.200107
0.193116
0.18659
0.18051
0.17486
0.169628
0.164805
0.160385
0.156365
0.152745
0.149529
0.146723
0.144336
0.14238
0.140871
0.139827
0.139272
0.139229
0.139729
0.140802
0.142483
0.144811
0.147824
0.151565
0.156077
0.161407
0.167597
0.174694
0.18274
0.191777
0.201844
0.212975
0.225201
0.238543
0.253021
0.268643
0.285411
0.303316
0.322344
0.342466
0.363648
0.385845
0.409001
0.433054
0.457934
0.483561
0.509851
0.536715
0.564057
0.591782
0.61979
0.647983
0.67626
0.704525
0.732683
0.760646
0.788324
0.815637
0.842526
0.868911
0.894718
0.919875
0.944321
0.968008
0.990896
1.01295
1.03415
1.05447
1.0739
1.09242
1.11004
1.12675
1.14256
1.15747
1.1715
1.18466
1.19696
1.20842
1.21907
1.22892
1.238
1.24633
1.25393
1.26083
1.26708
1.27277
1.83601
1.65254
1.49448
1.35742
1.23787
1.13304
1.04064
0.958826
0.886061
0.821083
0.762838
0.710444
0.663153
0.620336
0.581454
0.546046
0.513716
0.484124
0.456972
0.432004
0.408994
0.387747
0.368088
0.349865
0.332945
0.317207
0.302545
0.288866
0.276084
0.264124
0.25292
0.242409
0.232538
0.223257
0.214522
0.206293
0.198534
0.191212
0.184299
0.177766
0.17159
0.165749
0.160224
0.154998
0.150054
0.145378
0.140958
0.136784
0.132845
0.129135
0.125645
0.122372
0.11931
0.116457
0.113811
0.111371
0.109139
0.107116
0.105305
0.103711
0.102339
0.101196
0.100291
0.0996325
0.0992315
0.0991002
0.0992519
0.0997016
0.100465
0.101559
0.103003
0.104815
0.107015
0.109624
0.112662
0.116151
0.120113
0.124567
0.129533
0.13503
0.141077
0.147687
0.154876
0.162653
0.171028
0.180005
0.189585
0.199765
0.210541
0.221901
0.23383
0.24631
0.259318
0.272826
0.286806
0.301223
0.316039
0.33122
0.346726
0.362508
0.378518
0.394705
0.411019
0.427408
0.443821
0.460211
0.476527
0.492726
0.508761
0.524593
0.54018
0.555488
0.570483
0.585135
0.599415
0.613301
0.626772
0.639808
0.652394
0.66452
0.676178
0.68735
1.83601
1.65254
1.49448
1.35742