/*--------------------------------*- C++ -*----------------------------------*\
  =========                 |
  \\      /  F ield         | OpenFOAM: The Open Source CFD Toolbox
   \\    /   O peration     | Website:  https://openfoam.org
    \\  /    A nd           | Version:  8
     \\/     M anipulation  |
\*---------------------------------------------------------------------------*/
FoamFile
{
    version     2.0;
    format      ascii;
    class       volScalarField;
    location    "500";
    object      k;
}
// * * * * * * * * * * * * * * * * * * * * * * * * * * * * * * * * * * * * * //

dimensions      [0 2 -2 0 0 0 0];

internalField   nonuniform List<scalar> 
7320
(
6.07652
5.55942
5.24732
5.04165
4.8942
4.78178
4.69211
4.61825
4.55602
4.50265
4.45625
4.41545
4.37924
4.34685
4.31771
4.29132
4.26733
4.24542
4.22534
4.20688
4.18986
4.17412
4.15953
4.14598
4.13336
4.1216
4.11062
4.10034
4.09072
4.08171
4.07327
4.06535
4.05792
4.05095
4.04441
4.03828
4.03254
4.02715
4.02211
4.01738
4.01295
4.00881
4.00493
4.00131
3.99792
3.99476
3.99181
3.98906
3.98651
3.98413
3.98193
3.97988
3.97799
3.97625
3.97465
3.97318
3.97183
3.97061
3.9695
3.9685
3.96761
3.96681
3.96612
3.96551
3.96499
3.96456
3.96421
3.96394
3.96374
3.96362
3.96357
3.96358
3.96366
3.9638
3.96401
3.96427
3.96459
3.96497
3.9654
3.96588
3.96642
3.967
3.96763
3.96831
3.96904
3.9698
3.97062
3.97147
3.97237
3.9733
3.97428
3.97529
3.97634
3.97743
3.97855
3.97971
3.9809
3.98212
3.98337
3.98465
3.98596
3.98729
3.98865
3.99004
3.99144
3.99287
3.99432
3.99579
3.99727
3.99876
4.00027
4.00179
4.00332
4.00485
4.00638
4.00792
4.00946
4.011
4.01252
4.01405
4.01551
4.01702
4.84215
5.67924
5.54001
5.36046
5.21715
5.10399
5.01225
4.93597
4.87129
4.81558
4.76697
4.72412
4.68601
4.65186
4.62109
4.59321
4.56782
4.54462
4.52335
4.50377
4.48572
4.46902
4.45354
4.43915
4.42576
4.41328
4.40162
4.39071
4.3805
4.37094
4.36197
4.35356
4.34568
4.33828
4.33133
4.32482
4.31871
4.31299
4.30762
4.30259
4.29788
4.29347
4.28934
4.28549
4.28188
4.27852
4.27538
4.27245
4.26973
4.2672
4.26486
4.26268
4.26068
4.25882
4.25712
4.25556
4.25414
4.25284
4.25167
4.25061
4.24967
4.24883
4.2481
4.24747
4.24692
4.24647
4.24611
4.24583
4.24563
4.24551
4.24547
4.24549
4.24558
4.24574
4.24597
4.24625
4.2466
4.24701
4.24747
4.24799
4.24857
4.24919
4.24987
4.25059
4.25137
4.25219
4.25305
4.25396
4.25491
4.2559
4.25694
4.25801
4.25913
4.26028
4.26146
4.26268
4.26394
4.26523
4.26655
4.2679
4.26928
4.27068
4.27212
4.27357
4.27506
4.27656
4.27808
4.27962
4.28118
4.28275
4.28434
4.28594
4.28754
4.28915
4.29076
4.29238
4.294
4.29561
4.29722
4.29882
4.30037
4.30191
3.59581
5.0514
5.15997
5.06781
4.96411
4.87324
4.79598
4.72999
4.67307
4.62344
4.57977
4.541
4.50635
4.47517
4.44698
4.42136
4.39797
4.37656
4.3569
4.33878
4.32204
4.30655
4.29218
4.27882
4.26638
4.25477
4.24392
4.23376
4.22424
4.21531
4.20692
4.19905
4.19165
4.18469
4.17815
4.17201
4.16624
4.16081
4.15572
4.15094
4.14646
4.14226
4.13832
4.13463
4.13118
4.12796
4.12494
4.12213
4.11951
4.11707
4.1148
4.1127
4.11075
4.10895
4.1073
4.10577
4.10437
4.1031
4.10194
4.10089
4.09995
4.09911
4.09836
4.09771
4.09714
4.09666
4.09626
4.09594
4.09569
4.09552
4.09541
4.09537
4.09539
4.09548
4.09562
4.09582
4.09608
4.09639
4.09675
4.09716
4.09763
4.09813
4.09869
4.09929
4.09993
4.10062
4.10134
4.10211
4.10291
4.10375
4.10463
4.10554
4.10649
4.10748
4.10849
4.10954
4.11062
4.11173
4.11287
4.11404
4.11523
4.11645
4.1177
4.11897
4.12026
4.12157
4.1229
4.12425
4.12562
4.12701
4.1284
4.12981
4.13123
4.13266
4.13409
4.13553
4.13697
4.13841
4.13985
4.14129
4.14269
4.14405
2.74725
4.48339
4.83294
4.83938
4.78111
4.71517
4.65355
4.59832
4.54927
4.50567
4.46677
4.43188
4.40045
4.372
4.34614
4.32254
4.30093
4.28109
4.26281
4.24595
4.23034
4.21588
4.20245
4.18995
4.17829
4.16741
4.15722
4.14767
4.1387
4.13027
4.12233
4.11486
4.10782
4.10119
4.09494
4.08906
4.08351
4.07829
4.07337
4.06875
4.0644
4.06032
4.05649
4.05289
4.04951
4.04635
4.04339
4.04063
4.03804
4.03563
4.03339
4.0313
4.02936
4.02756
4.02589
4.02436
4.02294
4.02164
4.02045
4.01937
4.01839
4.0175
4.01671
4.016
4.01538
4.01483
4.01436
4.01396
4.01364
4.01338
4.01318
4.01305
4.01297
4.01296
4.01299
4.01308
4.01322
4.01341
4.01365
4.01393
4.01426
4.01463
4.01505
4.0155
4.01599
4.01652
4.01709
4.0177
4.01834
4.01901
4.01972
4.02046
4.02123
4.02204
4.02287
4.02374
4.02463
4.02555
4.0265
4.02748
4.02849
4.02952
4.03057
4.03165
4.03275
4.03387
4.03502
4.03618
4.03736
4.03856
4.03977
4.041
4.04225
4.0435
4.04476
4.04604
4.04731
4.0486
4.04988
4.05117
4.05244
4.05363
2.10346
3.90602
4.48941
4.61127
4.60898
4.57387
4.53133
4.489
4.44924
4.41265
4.37922
4.34873
4.32092
4.29549
4.27219
4.2508
4.23111
4.21296
4.19618
4.18064
4.16624
4.15286
4.14041
4.1288
4.11796
4.10782
4.0983
4.08936
4.08094
4.073
4.06551
4.05842
4.05173
4.0454
4.03941
4.03375
4.0284
4.02335
4.01858
4.01409
4.00985
4.00585
4.00209
3.99855
3.99522
3.9921
3.98916
3.98641
3.98384
3.98143
3.97917
3.97707
3.9751
3.97328
3.97158
3.97
3.96854
3.96719
3.96594
3.9648
3.96375
3.96279
3.96192
3.96113
3.96042
3.95978
3.95921
3.95871
3.95828
3.95791
3.95759
3.95734
3.95714
3.95699
3.95689
3.95684
3.95683
3.95687
3.95696
3.95708
3.95725
3.95746
3.9577
3.95798
3.95829
3.95864
3.95903
3.95944
3.95989
3.96037
3.96089
3.96143
3.962
3.9626
3.96323
3.96389
3.96457
3.96529
3.96603
3.9668
3.96759
3.96841
3.96926
3.97013
3.97102
3.97194
3.97288
3.97384
3.97482
3.97583
3.97685
3.97789
3.97895
3.98002
3.98111
3.98221
3.98333
3.98445
3.98558
3.98671
3.98785
3.98889
1.61624
3.30894
4.10161
4.35522
4.42201
4.42574
4.40724
4.38106
4.35281
4.32483
4.29808
4.27292
4.24944
4.22762
4.20738
4.18859
4.17116
4.15497
4.13993
4.12594
4.11292
4.10079
4.08947
4.07888
4.06897
4.05967
4.05091
4.04265
4.03484
4.02744
4.02042
4.01376
4.00743
4.00142
3.99572
3.9903
3.98515
3.98028
3.97566
3.97129
3.96715
3.96324
3.95955
3.95606
3.95277
3.94968
3.94676
3.94402
3.94144
3.93901
3.93674
3.9346
3.9326
3.93073
3.92898
3.92734
3.92582
3.9244
3.92308
3.92185
3.92071
3.91966
3.91869
3.9178
3.91698
3.91622
3.91553
3.91491
3.91434
3.91383
3.91338
3.91297
3.91262
3.91231
3.91205
3.91183
3.91166
3.91152
3.91142
3.91136
3.91134
3.91135
3.9114
3.91148
3.91159
3.91173
3.9119
3.9121
3.91233
3.91259
3.91288
3.9132
3.91354
3.91392
3.91432
3.91474
3.9152
3.91568
3.91619
3.91673
3.91729
3.91788
3.9185
3.91914
3.91981
3.92051
3.92123
3.92198
3.92275
3.92354
3.92436
3.9252
3.92607
3.92695
3.92786
3.92878
3.92972
3.93067
3.93164
3.93262
3.93362
3.93451
1.26812
2.7064
3.65726
4.05358
4.20386
4.25636
4.26838
4.26267
4.24897
4.23181
4.21339
4.19484
4.17674
4.15936
4.14285
4.12725
4.11256
4.09877
4.08583
4.07371
4.06235
4.05171
4.04174
4.03237
4.02356
4.01524
4.00738
3.99992
3.99282
3.98606
3.9796
3.97343
3.96754
3.9619
3.95652
3.95138
3.94648
3.94181
3.93737
3.93314
3.92913
3.92533
3.92172
3.9183
3.91506
3.912
3.9091
3.90637
3.90379
3.90135
3.89906
3.89689
3.89485
3.89293
3.89112
3.88942
3.88782
3.88632
3.88492
3.8836
3.88236
3.8812
3.88012
3.8791
3.87815
3.87727
3.87644
3.87566
3.87495
3.87428
3.87366
3.87309
3.87256
3.87207
3.87163
3.87122
3.87085
3.87051
3.87021
3.86994
3.86971
3.8695
3.86933
3.86918
3.86906
3.86897
3.8689
3.86887
3.86886
3.86887
3.86892
3.86899
3.86908
3.8692
3.86935
3.86953
3.86973
3.86996
3.87022
3.87051
3.87082
3.87117
3.87154
3.87194
3.87237
3.87283
3.87332
3.87384
3.87439
3.87496
3.87557
3.8762
3.87686
3.87755
3.87826
3.879
3.87976
3.88055
3.88135
3.88218
3.88303
3.88376
1.04443
2.13048
3.15609
3.69382
3.94125
4.05401
4.10457
4.12487
4.12967
4.12622
4.11833
4.10811
4.09673
4.0849
4.07304
4.06139
4.05011
4.03927
4.02892
4.01909
4.00977
4.00096
3.99262
3.98473
3.97725
3.97014
3.96336
3.95687
3.95064
3.94464
3.93886
3.9333
3.92793
3.92275
3.91778
3.91299
3.90839
3.90399
3.89978
3.89575
3.89191
3.88824
3.88475
3.88143
3.87827
3.87527
3.87243
3.86972
3.86716
3.86473
3.86242
3.86023
3.85816
3.8562
3.85434
3.85258
3.85091
3.84933
3.84784
3.84642
3.84508
3.8438
3.8426
3.84146
3.84037
3.83934
3.83836
3.83743
3.83655
3.83571
3.83491
3.83416
3.83344
3.83276
3.83211
3.8315
3.83091
3.83036
3.82984
3.82934
3.82887
3.82843
3.82801
3.82762
3.82726
3.82691
3.8266
3.8263
3.82603
3.82579
3.82556
3.82537
3.8252
3.82505
3.82494
3.82484
3.82478
3.82474
3.82474
3.82476
3.82481
3.8249
3.82501
3.82516
3.82534
3.82555
3.8258
3.82608
3.82639
3.82674
3.82713
3.82755
3.828
3.82848
3.829
3.82955
3.83013
3.83074
3.83138
3.83205
3.83275
3.83334
0.919762
1.62589
2.61278
3.26901
3.62244
3.80741
3.90596
3.95917
3.98746
4.00145
4.00694
4.00725
4.00438
3.99954
3.99352
3.98682
3.97978
3.97262
3.96549
3.9585
3.95171
3.94515
3.93884
3.93277
3.92693
3.9213
3.91584
3.91055
3.90538
3.90034
3.89542
3.8906
3.8859
3.88131
3.87685
3.87252
3.86833
3.86428
3.86038
3.85662
3.85302
3.84956
3.84625
3.84308
3.84005
3.83716
3.83439
3.83176
3.82925
3.82685
3.82457
3.82239
3.82031
3.81832
3.81643
3.81463
3.8129
3.81125
3.80968
3.80817
3.80673
3.80536
3.80403
3.80276
3.80155
3.80037
3.79924
3.79815
3.7971
3.79608
3.7951
3.79416
3.79324
3.79235
3.7915
3.79067
3.78986
3.78908
3.78832
3.78759
3.78688
3.78619
3.78552
3.78487
3.78425
3.78364
3.78306
3.78249
3.78195
3.78143
3.78094
3.78046
3.78001
3.77959
3.7792
3.77883
3.77849
3.77817
3.77789
3.77764
3.77742
3.77724
3.77709
3.77698
3.7769
3.77686
3.77686
3.7769
3.77698
3.7771
3.77726
3.77745
3.77769
3.77797
3.77829
3.77865
3.77905
3.77949
3.77996
3.78046
3.78102
3.78146
0.860369
1.23773
2.06198
2.78202
3.23846
3.50547
3.66218
3.75644
3.81442
3.85055
3.87304
3.88674
3.89464
3.89864
3.9
3.89953
3.89783
3.89529
3.89219
3.88875
3.8851
3.88134
3.87755
3.87374
3.86994
3.86614
3.86234
3.85853
3.85471
3.85087
3.84701
3.84316
3.83931
3.83549
3.83171
3.82798
3.82433
3.82076
3.81728
3.8139
3.81063
3.80747
3.80442
3.80149
3.79866
3.79595
3.79334
3.79083
3.78843
3.78612
3.7839
3.78177
3.77973
3.77776
3.77587
3.77405
3.7723
3.77062
3.76899
3.76742
3.7659
3.76443
3.76301
3.76163
3.76029
3.75899
3.75771
3.75647
3.75526
3.75407
3.75291
3.75178
3.75067
3.74958
3.74852
3.74747
3.74644
3.74543
3.74444
3.74347
3.74251
3.74157
3.74065
3.73974
3.73885
3.73798
3.73712
3.73629
3.73547
3.73467
3.7339
3.73314
3.73241
3.73171
3.73103
3.73038
3.72976
3.72917
3.72861
3.72809
3.7276
3.72714
3.72673
3.72635
3.72602
3.72572
3.72547
3.72527
3.72511
3.725
3.72493
3.72491
3.72494
3.72501
3.72513
3.7253
3.72552
3.72578
3.72608
3.72643
3.72683
3.72713
0.836787
0.98815
1.55966
2.25312
2.7872
3.13869
3.36248
3.50657
3.60152
3.66555
3.70958
3.74028
3.76187
3.77709
3.78779
3.79521
3.80025
3.80352
3.8055
3.80651
3.8068
3.80656
3.8059
3.80492
3.80366
3.80216
3.80043
3.7985
3.79636
3.79404
3.79156
3.78893
3.78619
3.78337
3.78048
3.77755
3.77462
3.7717
3.76881
3.76596
3.76316
3.76043
3.75777
3.75517
3.75266
3.75022
3.74786
3.74557
3.74335
3.74121
3.73913
3.73712
3.73517
3.73329
3.73145
3.72968
3.72795
3.72627
3.72463
3.72303
3.72148
3.71996
3.71847
3.71701
3.71557
3.71416
3.71278
3.7114
3.71005
3.70871
3.7074
3.70609
3.7048
3.70353
3.70227
3.70102
3.69978
3.69855
3.69734
3.69613
3.69494
3.69376
3.69258
3.69142
3.69028
3.68914
3.68802
3.68692
3.68583
3.68476
3.68371
3.68269
3.68168
3.6807
3.67974
3.67881
3.67792
3.67705
3.67622
3.67542
3.67466
3.67395
3.67327
3.67263
3.67204
3.6715
3.67101
3.67056
3.67017
3.66983
3.66954
3.6693
3.66912
3.66899
3.66892
3.6689
3.66893
3.66901
3.66915
3.66934
3.66959
3.66975
0.830413
0.857509
1.16926
1.7285
2.28148
2.70333
2.99742
3.19899
3.33861
3.4372
3.50825
3.56042
3.59936
3.62883
3.65138
3.66881
3.68238
3.69301
3.70139
3.70802
3.71327
3.71744
3.72073
3.72329
3.72523
3.72661
3.7275
3.72793
3.72794
3.72756
3.72683
3.72579
3.72449
3.72296
3.72125
3.7194
3.71743
3.71539
3.71329
3.71117
3.70903
3.7069
3.70478
3.70269
3.70062
3.6986
3.6966
3.69465
3.69274
3.69087
3.68903
3.68724
3.68548
3.68375
3.68206
3.6804
3.67877
3.67716
3.67558
3.67402
3.67249
3.67097
3.66946
3.66797
3.6665
3.66503
3.66357
3.66211
3.66065
3.6592
3.65776
3.65632
3.65488
3.65345
3.65202
3.6506
3.64918
3.64776
3.64634
3.64493
3.64352
3.64211
3.64071
3.63932
3.63793
3.63656
3.63519
3.63383
3.63249
3.63117
3.62986
3.62857
3.6273
3.62605
3.62483
3.62364
3.62248
3.62135
3.62026
3.6192
3.61819
3.61721
3.61628
3.6154
3.61456
3.61378
3.61305
3.61237
3.61175
3.61118
3.61068
3.61023
3.60984
3.60951
3.60925
3.60904
3.60889
3.6088
3.60877
3.6088
3.6089
3.60892
0.831632
0.801461
0.924682
1.27902
1.76057
2.20994
2.5635
2.82478
3.0153
3.15518
3.2594
3.33832
3.39906
3.44651
3.48408
3.51419
3.53858
3.55854
3.57502
3.58876
3.60029
3.61003
3.61829
3.62532
3.63128
3.63631
3.6405
3.64393
3.64666
3.64876
3.65029
3.65131
3.65188
3.65205
3.65189
3.65144
3.65077
3.6499
3.64888
3.64774
3.64651
3.64521
3.64385
3.64246
3.64103
3.6396
3.63815
3.63669
3.63524
3.63378
3.63233
3.63088
3.62943
3.62799
3.62655
3.62511
3.62368
3.62224
3.62081
3.61938
3.61795
3.61651
3.61507
3.61363
3.61218
3.61072
3.60925
3.60776
3.60627
3.60476
3.60325
3.60172
3.60019
3.59865
3.5971
3.59555
3.59398
3.59241
3.59083
3.58925
3.58766
3.58607
3.58448
3.58289
3.5813
3.57971
3.57812
3.57655
3.57498
3.57343
3.57188
3.57036
3.56885
3.56737
3.56591
3.56447
3.56307
3.5617
3.56036
3.55907
3.55781
3.5566
3.55543
3.55431
3.55325
3.55224
3.55128
3.55038
3.54954
3.54877
3.54805
3.5474
3.54682
3.54629
3.54584
3.54545
3.54512
3.54486
3.54466
3.54453
3.54447
3.54435
0.835915
0.782667
0.803403
0.968303
1.29566
1.69673
2.07275
2.38225
2.62383
2.80953
2.95259
3.06386
3.15146
3.22133
3.27775
3.32384
3.36192
3.39368
3.42044
3.44317
3.46264
3.47944
3.494
3.50668
3.51774
3.52738
3.53576
3.543
3.54921
3.55448
3.55891
3.56258
3.56557
3.56796
3.56983
3.57124
3.57227
3.57297
3.57339
3.57358
3.57357
3.5734
3.57308
3.57265
3.57213
3.57152
3.57083
3.57009
3.56929
3.56844
3.56755
3.56662
3.56565
3.56464
3.56361
3.56254
3.56144
3.56032
3.55916
3.55798
3.55677
3.55553
3.55426
3.55296
3.55164
3.55028
3.5489
3.54748
3.54603
3.54455
3.54304
3.54151
3.53996
3.53838
3.53678
3.53516
3.53352
3.53186
3.53018
3.52849
3.52678
3.52506
3.52333
3.52158
3.51984
3.51808
3.51633
3.51458
3.51283
3.51108
3.50935
3.50763
3.50592
3.50423
3.50257
3.50093
3.49931
3.49773
3.49618
3.49467
3.4932
3.49178
3.4904
3.48907
3.4878
3.48658
3.48542
3.48432
3.48328
3.4823
3.48139
3.48055
3.47977
3.47907
3.47843
3.47786
3.47736
3.47692
3.47656
3.47626
3.47604
3.47578
0.841165
0.780282
0.755
0.801817
0.962761
1.23783
1.56799
1.88853
2.16639
2.39488
2.57903
2.72692
2.8462
2.94319
3.02278
3.08875
3.14395
3.19057
3.23028
3.26439
3.29391
3.31963
3.34216
3.362
3.37952
3.39501
3.40871
3.4208
3.43144
3.44078
3.44893
3.45601
3.46214
3.46741
3.47193
3.47579
3.47906
3.48183
3.48417
3.48612
3.48775
3.4891
3.49019
3.49107
3.49176
3.49229
3.49266
3.4929
3.49302
3.49303
3.49294
3.49275
3.49248
3.49212
3.49169
3.49118
3.4906
3.48996
3.48924
3.48847
3.48764
3.48674
3.48579
3.48478
3.48372
3.4826
3.48142
3.48019
3.47891
3.47757
3.47618
3.47475
3.47328
3.47176
3.4702
3.46861
3.46698
3.46532
3.46362
3.4619
3.46015
3.45837
3.45658
3.45476
3.45292
3.45107
3.44922
3.44735
3.44548
3.44361
3.44174
3.43988
3.43802
3.43618
3.43436
3.43256
3.43078
3.42903
3.42731
3.42563
3.42399
3.42239
3.42083
3.41933
3.41787
3.41647
3.41513
3.41385
3.41263
3.41147
3.41038
3.40936
3.40841
3.40753
3.40671
3.40597
3.4053
3.4047
3.40417
3.4037
3.40332
3.40291
0.846372
0.784571
0.740866
0.731421
0.780818
0.913761
1.13036
1.39676
1.66969
1.92048
2.13792
2.32135
2.47447
2.60212
2.7089
2.79874
2.87485
2.93981
2.99565
3.044
3.08615
3.12311
3.15572
3.18461
3.2103
3.23321
3.25366
3.27192
3.28821
3.30273
3.31566
3.32713
3.3373
3.34631
3.35427
3.36131
3.36753
3.37302
3.37788
3.38217
3.38597
3.38934
3.39231
3.39495
3.39728
3.39933
3.40114
3.40272
3.4041
3.40529
3.4063
3.40716
3.40786
3.40842
3.40885
3.40914
3.40932
3.40939
3.40934
3.40919
3.40893
3.40858
3.40814
3.4076
3.40697
3.40626
3.40546
3.40458
3.40361
3.40257
3.40145
3.40025
3.399
3.39767
3.39629
3.39485
3.39335
3.39181
3.39021
3.38856
3.38688
3.38515
3.38339
3.38159
3.37976
3.37791
3.37604
3.37414
3.37223
3.37031
3.36839
3.36646
3.36453
3.36261
3.3607
3.3588
3.35692
3.35507
3.35323
3.35143
3.34967
3.34794
3.34625
3.34461
3.34301
3.34147
3.33998
3.33855
3.33718
3.33587
3.33463
3.33345
3.33234
3.33129
3.33032
3.32941
3.32858
3.32781
3.32711
3.32648
3.32593
3.32537
0.851011
0.791143
0.741126
0.708367
0.70346
0.741579
0.838108
0.996906
1.20263
1.4285
1.65059
1.85477
2.03555
2.19259
2.3279
2.44426
2.5445
2.63117
2.70645
2.7722
2.82992
2.88086
2.92603
2.96628
3.00226
3.03452
3.0635
3.08957
3.11304
3.13417
3.15318
3.17027
3.18565
3.19946
3.21188
3.22305
3.23309
3.24214
3.2503
3.25766
3.26432
3.27035
3.27582
3.28078
3.28529
3.28939
3.29311
3.2965
3.29957
3.30236
3.30488
3.30715
3.30919
3.31101
3.31262
3.31405
3.31529
3.31635
3.31725
3.318
3.31859
3.31903
3.31934
3.31951
3.31955
3.31947
3.31926
3.31894
3.31849
3.31794
3.31727
3.31651
3.31564
3.31469
3.31365
3.31252
3.31132
3.31004
3.30868
3.30727
3.30578
3.30424
3.30265
3.301
3.2993
3.29757
3.29579
3.29399
3.29215
3.29029
3.28841
3.28652
3.28461
3.2827
3.28079
3.27888
3.27698
3.27509
3.27322
3.27137
3.26955
3.26776
3.266
3.26428
3.2626
3.26097
3.25938
3.25784
3.25636
3.25494
3.25357
3.25227
3.25102
3.24984
3.24872
3.24767
3.24668
3.24575
3.24489
3.2441
3.24338
3.24266
0.854799
0.797919
0.746862
0.705362
0.677885
0.670753
0.692779
0.753704
0.85933
1.00619
1.18133
1.368
1.55204
1.72458
1.88152
2.02185
2.14624
2.25612
2.35314
2.43894
2.51503
2.58273
2.64318
2.69735
2.74603
2.78992
2.82956
2.86543
2.89793
2.92739
2.95411
2.97835
3.00036
3.02033
3.03847
3.05495
3.06994
3.0836
3.09605
3.10742
3.11781
3.12734
3.13608
3.1441
3.15149
3.15828
3.16455
3.17033
3.17566
3.18057
3.1851
3.18927
3.19311
3.19664
3.19987
3.20283
3.20552
3.20797
3.21018
3.21216
3.21393
3.2155
3.21687
3.21805
3.21906
3.21989
3.22055
3.22105
3.22139
3.22158
3.22161
3.22151
3.22128
3.22091
3.22043
3.21983
3.21912
3.21831
3.2174
3.21639
3.21529
3.21412
3.21286
3.21153
3.21013
3.20867
3.20714
3.20557
3.20395
3.20229
3.20059
3.19886
3.1971
3.19532
3.19353
3.19172
3.18991
3.18809
3.18629
3.18448
3.1827
3.18093
3.17918
3.17746
3.17577
3.17411
3.17249
3.17091
3.16937
3.16788
3.16644
3.16505
3.16371
3.16242
3.16119
3.16001
3.15889
3.15783
3.15682
3.15587
3.15499
3.15411
0.857613
0.803838
0.754023
0.710069
0.674015
0.648368
0.636594
0.64348
0.674825
0.735879
0.828724
0.950233
1.09243
1.24518
1.3992
1.54782
1.68713
1.81539
1.93219
2.03794
2.13343
2.21959
2.2974
2.36775
2.43148
2.48931
2.54187
2.58973
2.63335
2.67315
2.70949
2.74269
2.77303
2.80079
2.82619
2.84945
2.87077
2.89034
2.90833
2.92487
2.94011
2.95417
2.96717
2.9792
2.99034
3.00067
3.01027
3.0192
3.0275
3.03522
3.04241
3.0491
3.05533
3.06113
3.06652
3.07153
3.07618
3.08048
3.08446
3.08814
3.09152
3.09462
3.09746
3.10004
3.10238
3.10448
3.10636
3.10802
3.10948
3.11073
3.11179
3.11265
3.11334
3.11386
3.11421
3.11441
3.11445
3.11436
3.11414
3.11378
3.11331
3.11272
3.11202
3.11122
3.11032
3.10934
3.10827
3.10712
3.1059
3.10461
3.10327
3.10187
3.10042
3.09893
3.0974
3.09585
3.09426
3.09266
3.09104
3.08942
3.08778
3.08615
3.08452
3.08291
3.0813
3.07971
3.07815
3.07661
3.07509
3.07361
3.07216
3.07074
3.06936
3.06802
3.06672
3.06546
3.06424
3.06307
3.06194
3.06085
3.05982
3.05881
0.859482
0.808378
0.760626
0.716973
0.678334
0.645749
0.620512
0.604371
0.599722
0.609658
0.637654
0.686737
0.758295
0.851094
0.961179
1.08279
1.20982
1.33699
1.46043
1.57775
1.68769
1.78977
1.88402
1.97076
2.05046
2.12362
2.1908
2.25249
2.30917
2.36127
2.40918
2.45326
2.49383
2.53119
2.56561
2.59735
2.62664
2.65368
2.67868
2.70182
2.72326
2.74315
2.76163
2.77882
2.79482
2.80975
2.82368
2.8367
2.84888
2.86028
2.87095
2.88095
2.89032
2.89911
2.90735
2.91507
2.9223
2.92907
2.93541
2.94133
2.94687
2.95203
2.95684
2.96131
2.96545
2.96929
2.97283
2.97609
2.97907
2.9818
2.98426
2.98649
2.98847
2.99023
2.99177
2.99311
2.99425
2.9952
2.99598
2.99658
2.99703
2.99732
2.99746
2.99746
2.99733
2.99708
2.99671
2.99623
2.99565
2.99497
2.9942
2.99335
2.99242
2.99143
2.99036
2.98925
2.98808
2.98686
2.9856
2.98431
2.98299
2.98165
2.98029
2.97891
2.97753
2.97614
2.97474
2.97335
2.97197
2.97059
2.96922
2.96787
2.96653
2.96521
2.96391
2.96263
2.96138
2.96014
2.95893
2.95774
2.9566
2.95547
0.860565
0.811411
0.765711
0.723439
0.684828
0.650242
0.620147
0.595142
0.57603
0.563904
0.56022
0.566795
0.585676
0.618805
0.66751
0.731994
0.811021
0.902011
1.0015
1.10578
1.21148
1.31589
1.41709
1.51386
1.60549
1.6917
1.77243
1.84779
1.918
1.98331
2.04401
2.10039
2.15274
2.20135
2.24648
2.28839
2.32733
2.36352
2.39718
2.42851
2.45769
2.48491
2.51031
2.53405
2.55625
2.57704
2.59652
2.61481
2.63198
2.64812
2.6633
2.67758
2.69104
2.70371
2.71565
2.72691
2.73752
2.74753
2.75696
2.76585
2.77422
2.7821
2.78951
2.79649
2.80304
2.80918
2.81494
2.82034
2.82537
2.83007
2.83445
2.83851
2.84226
2.84573
2.84891
2.85182
2.85447
2.85688
2.85905
2.861
2.86274
2.86427
2.86561
2.86676
2.86774
2.86855
2.8692
2.8697
2.87006
2.87028
2.87037
2.87034
2.8702
2.86996
2.86962
2.86918
2.86866
2.86806
2.86739
2.86665
2.86585
2.865
2.86409
2.86314
2.86215
2.86112
2.86007
2.85898
2.85787
2.85673
2.85558
2.85442
2.85324
2.85205
2.85085
2.84964
2.84843
2.84722
2.846
2.84478
2.84359
2.8424
0.861099
0.813133
0.76901
0.728261
0.690673
0.656203
0.624916
0.596953
0.57254
0.551996
0.535764
0.524447
0.518835
0.519919
0.528854
0.546863
0.57506
0.614218
0.664543
0.725519
0.795897
0.873837
0.957168
1.04367
1.13131
1.21841
1.30368
1.38622
1.46541
1.54092
1.61258
1.68032
1.74419
1.80429
1.86075
1.91374
1.96344
2.01003
2.05371
2.09466
2.13306
2.16907
2.20288
2.23463
2.26447
2.29253
2.31895
2.34384
2.3673
2.38943
2.41032
2.43006
2.44872
2.46637
2.48307
2.49888
2.51384
2.52802
2.54145
2.55417
2.56622
2.57764
2.58846
2.5987
2.60839
2.61756
2.62624
2.63443
2.64218
2.64949
2.65638
2.66287
2.66898
2.67472
2.6801
2.68513
2.68982
2.6942
2.69828
2.70206
2.70556
2.7088
2.71179
2.71453
2.71703
2.71932
2.72139
2.72326
2.72494
2.72643
2.72775
2.7289
2.72989
2.73073
2.73143
2.73199
2.73242
2.73274
2.73294
2.73303
2.73301
2.73291
2.73271
2.73242
2.73206
2.73162
2.73111
2.73054
2.7299
2.7292
2.72844
2.72763
2.72677
2.72586
2.72491
2.72391
2.72288
2.7218
2.72069
2.71954
2.71838
2.71722
0.861317
0.813942
0.770775
0.731184
0.694718
0.661081
0.630095
0.601662
0.575754
0.552397
0.531673
0.513721
0.498751
0.487049
0.478999
0.475087
0.475906
0.482135
0.494504
0.51372
0.54037
0.574823
0.61713
0.666965
0.723621
0.786068
0.853052
0.923221
0.995249
1.06793
1.14024
1.21136
1.28069
1.34777
1.41232
1.47417
1.53322
1.58945
1.64289
1.6936
1.74166
1.78717
1.83025
1.87102
1.9096
1.94612
1.98069
2.01343
2.04444
2.07383
2.1017
2.12813
2.15322
2.17704
2.19966
2.22116
2.2416
2.26103
2.27952
2.2971
2.31384
2.32976
2.34492
2.35934
2.37307
2.38613
2.39856
2.41039
2.42164
2.43233
2.44249
2.45215
2.46132
2.47002
2.47827
2.48608
2.49348
2.50047
2.50707
2.51329
2.51915
2.52467
2.52986
2.53473
2.5393
2.54358
2.54758
2.55131
2.55479
2.55802
2.56102
2.56379
2.56634
2.56869
2.57084
2.57279
2.57457
2.57617
2.57761
2.57888
2.58
2.58097
2.58181
2.5825
2.58307
2.58351
2.58383
2.58404
2.58413
2.58411
2.58399
2.58377
2.58345
2.58303
2.58253
2.58193
2.58125
2.58048
2.57963
2.5787
2.57773
2.57672
0.861389
0.814244
0.77153
0.732597
0.696917
0.664079
0.633769
0.605753
0.579862
0.555979
0.53403
0.513979
0.495828
0.479611
0.4654
0.453309
0.443493
0.436161
0.431575
0.430053
0.431969
0.437739
0.447803
0.46259
0.48248
0.507759
0.538569
0.574873
0.616439
0.662832
0.713448
0.767551
0.824329
0.882952
0.942624
1.00262
1.06232
1.12122
1.1789
1.23507
1.28953
1.34212
1.39277
1.44143
1.4881
1.5328
1.57555
1.61643
1.65547
1.69275
1.72834
1.76232
1.79475
1.82571
1.85527
1.88349
1.91045
1.9362
1.96079
1.9843
2.00675
2.02822
2.04874
2.06835
2.0871
2.10502
2.12216
2.13854
2.1542
2.16918
2.18348
2.19716
2.21023
2.22271
2.23463
2.24601
2.25686
2.26722
2.27709
2.28649
2.29543
2.30393
2.31201
2.31968
2.32696
2.33387
2.34042
2.34662
2.35249
2.35804
2.36327
2.36821
2.37287
2.37724
2.38135
2.3852
2.38881
2.39217
2.3953
2.3982
2.40089
2.40337
2.40564
2.40772
2.4096
2.41129
2.41281
2.41414
2.4153
2.4163
2.41713
2.41779
2.41831
2.41866
2.41887
2.41893
2.41884
2.41862
2.41826
2.41777
2.41718
2.41652
0.861406
0.814329
0.771776
0.733121
0.697834
0.665476
0.635686
0.608168
0.582682
0.559037
0.53708
0.516692
0.497782
0.480288
0.464168
0.449403
0.435996
0.423969
0.413369
0.404263
0.396745
0.390938
0.386991
0.385085
0.385433
0.38827
0.393855
0.402452
0.414323
0.429704
0.448787
0.471701
0.498487
0.529094
0.563361
0.601027
0.641739
0.68507
0.730542
0.777654
0.825903
0.874815
0.923952
0.972931
1.02143
1.06918
1.11598
1.16167
1.20613
1.2493
1.29112
1.33157
1.37064
1.40834
1.44468
1.47969
1.51339
1.54582
1.57701
1.607
1.63584
1.66355
1.69018
1.71578
1.74037
1.764
1.78671
1.80852
1.82948
1.84962
1.86896
1.88753
1.90537
1.9225
1.93894
1.95473
1.96988
1.98441
1.99836
2.01173
2.02455
2.03684
2.0486
2.05986
2.07062
2.0809
2.09073
2.10012
2.10908
2.11764
2.12579
2.13356
2.14096
2.14799
2.15468
2.16103
2.16705
2.17274
2.17813
2.18321
2.188
2.1925
2.19671
2.20066
2.20433
2.20775
2.2109
2.21381
2.21646
2.21888
2.22105
2.22299
2.22471
2.22619
2.22746
2.22851
2.22935
2.22998
2.23041
2.23064
2.23071
2.23067
0.861407
0.814342
0.77183
0.73326
0.698113
0.665954
0.636417
0.609191
0.584014
0.560665
0.538959
0.518737
0.499869
0.482247
0.46578
0.450397
0.43604
0.422666
0.410246
0.398762
0.388209
0.378592
0.36993
0.362255
0.35561
0.350053
0.345657
0.34251
0.340717
0.340398
0.341688
0.344734
0.349694
0.356727
0.365991
0.377631
0.391774
0.408518
0.427923
0.450003
0.474723
0.501995
0.531676
0.563577
0.597466
0.633078
0.670127
0.708315
0.747345
0.786931
0.826803
0.866719
0.906464
0.945851
0.984727
1.02297
1.06047
1.09716
1.13298
1.1679
1.20189
1.23493
1.26703
1.29817
1.32837
1.35763
1.38597
1.4134
1.43993
1.4656
1.4904
1.51438
1.53753
1.5599
1.58149
1.60233
1.62245
1.64186
1.66058
1.67864
1.69605
1.71284
1.72902
1.7446
1.75961
1.77405
1.78794
1.80127
1.81409
1.82639
1.83819
1.84952
1.86037
1.87077
1.88072
1.89024
1.89934
1.90802
1.9163
1.92418
1.93168
1.9388
1.94555
1.95194
1.95796
1.96364
1.96897
1.97396
1.97861
1.98294
1.98694
1.99062
1.99398
1.99704
1.9998
2.00225
2.00442
2.0063
2.0079
2.00923
2.01033
2.01125
0.861405
0.814337
0.771831
0.733277
0.698164
0.666062
0.636607
0.60949
0.584448
0.561253
0.53971
0.519653
0.500935
0.483431
0.467033
0.451647
0.437194
0.423603
0.410816
0.398785
0.387468
0.376832
0.366852
0.357508
0.348789
0.340687
0.333204
0.326347
0.320129
0.31457
0.309697
0.305545
0.302156
0.299581
0.297878
0.297114
0.297363
0.298709
0.301239
0.305045
0.310223
0.316867
0.325068
0.334907
0.346458
0.359776
0.374901
0.391849
0.410613
0.431159
0.453429
0.477336
0.502774
0.529611
0.557701
0.586884
0.61699
0.647846
0.67928
0.711125
0.74322
0.775417
0.80758
0.839587
0.871333
0.902726
0.933689
0.964159
0.994084
1.02342
1.05215
1.08024
1.10767
1.13444
1.16055
1.18598
1.21073
1.23482
1.25825
1.28102
1.30313
1.3246
1.34543
1.36563
1.38521
1.40418
1.42255
1.44033
1.45752
1.47413
1.49016
1.50562
1.52052
1.53487
1.54869
1.56199
1.57477
1.58704
1.59882
1.6101
1.62091
1.63124
1.6411
1.65051
1.65946
1.66796
1.67602
1.68364
1.69083
1.6976
1.70395
1.70989
1.71543
1.72056
1.72531
1.72967
1.73365
1.73726
1.74052
1.74342
1.74602
1.74838
0.861402
0.814329
0.77182
0.733266
0.698157
0.666065
0.636627
0.609537
0.584532
0.561385
0.539902
0.519913
0.50127
0.483846
0.467525
0.45221
0.437813
0.424257
0.411474
0.399403
0.387993
0.377196
0.366972
0.357284
0.348103
0.339402
0.331157
0.323351
0.315968
0.308996
0.302428
0.296257
0.290483
0.285107
0.280133
0.27557
0.271429
0.267724
0.264476
0.261707
0.259442
0.257713
0.256555
0.256007
0.256111
0.256915
0.258468
0.260823
0.264035
0.268159
0.27325
0.279363
0.286546
0.294846
0.304303
0.314948
0.326805
0.339886
0.354192
0.369712
0.386422
0.404287
0.423258
0.443274
0.464264
0.486149
0.508841
0.532246
0.556265
0.5808
0.605749
0.631014
0.656498
0.68211
0.707762
0.733375
0.758874
0.784194
0.809274
0.834063
0.858516
0.882593
0.906263
0.929498
0.952277
0.97458
0.996394
1.01771
1.03852
1.0588
1.07858
1.09783
1.11655
1.13473
1.15237
1.16945
1.18598
1.20197
1.21742
1.23232
1.24669
1.26052
1.27382
1.28659
1.29883
1.31056
1.32177
1.33246
1.34265
1.35235
1.36154
1.37026
1.37849
1.38626
1.39356
1.40042
1.40683
1.4128
1.41836
1.4235
1.42828
1.43274
0.8614
0.814321
0.77181
0.733253
0.698143
0.66605
0.636614
0.609527
0.584528
0.561391
0.53992
0.519948
0.501326
0.483926
0.467634
0.45235
0.437986
0.424462
0.411709
0.399665
0.388273
0.377484
0.367254
0.35754
0.348309
0.339526
0.331164
0.323195
0.315596
0.308347
0.301428
0.294823
0.288518
0.2825
0.276758
0.271283
0.266068
0.261107
0.256395
0.25193
0.247711
0.243738
0.240014
0.236542
0.233327
0.230376
0.227699
0.225306
0.223209
0.221423
0.219963
0.218849
0.218101
0.21774
0.217793
0.218284
0.219242
0.220697
0.222678
0.225219
0.22835
0.232104
0.236511
0.241602
0.247405
0.253946
0.261247
0.269327
0.278201
0.287879
0.298365
0.309658
0.321751
0.33463
0.348275
0.362662
0.377756
0.393522
0.409916
0.426889
0.444392
0.462367
0.480759
0.499507
0.51855
0.537828
0.55728
0.576847
0.596472
0.616098
0.635674
0.65515
0.674481
0.693623
0.712545
0.731207
0.749572
0.767606
0.785278
0.802567
0.819454
0.835924
0.851965
0.867567
0.882723
0.897427
0.911674
0.925464
0.938795
0.951667
0.964083
0.976043
0.987552
0.998614
1.00923
1.01941
1.02916
1.03848
1.04738
1.05587
1.06397
1.0717
0.861399
0.814317
0.771804
0.733245
0.698133
0.666039
0.636602
0.609515
0.584516
0.561379
0.53991
0.51994
0.501322
0.483926
0.46764
0.452363
0.438006
0.424492
0.411749
0.399716
0.388335
0.377557
0.367336
0.357631
0.348405
0.339625
0.331258
0.323279
0.315662
0.308382
0.301421
0.294758
0.288375
0.282258
0.276391
0.27076
0.265355
0.260164
0.255177
0.250385
0.24578
0.241355
0.237104
0.233022
0.229104
0.225346
0.221745
0.218299
0.215006
0.211866
0.208878
0.206044
0.203365
0.200844
0.198483
0.196287
0.19426
0.192409
0.19074
0.189261
0.187981
0.186909
0.186055
0.185432
0.185052
0.184929
0.185077
0.185513
0.186253
0.187315
0.188718
0.190479
0.192619
0.195157
0.198113
0.201506
0.205357
0.209683
0.214502
0.219831
0.225684
0.232075
0.239015
0.246511
0.254571
0.263196
0.272386
0.282138
0.292444
0.303294
0.314674
0.326566
0.338948
0.351797
0.365086
0.378783
0.392858