/*--------------------------------*- C++ -*----------------------------------*\
  =========                 |
  \\      /  F ield         | OpenFOAM: The Open Source CFD Toolbox
   \\    /   O peration     | Website:  https://openfoam.org
    \\  /    A nd           | Version:  8
     \\/     M anipulation  |
\*---------------------------------------------------------------------------*/
FoamFile
{
    version     2.0;
    format      ascii;
    class       volScalarField;
    location    "500";
    object      nut;
}
// * * * * * * * * * * * * * * * * * * * * * * * * * * * * * * * * * * * * * //

dimensions      [0 2 -1 0 0 0 0];

internalField   nonuniform List<scalar> 
7320
(
0.000286299
0.000273847
0.000266049
0.000260783
0.000256941
0.000253973
0.00025158
0.000249592
0.000247905
0.000246449
0.000245176
0.000244051
0.000243048
0.000242148
0.000241334
0.000240596
0.000239922
0.000239306
0.000238739
0.000238217
0.000237735
0.000237288
0.000236873
0.000236487
0.000236127
0.000235791
0.000235477
0.000235183
0.000234908
0.000234649
0.000234406
0.000234178
0.000233965
0.000233764
0.000233575
0.000233398
0.000233231
0.000233075
0.000232929
0.000232792
0.000232663
0.000232542
0.000232429
0.000232324
0.000232225
0.000232132
0.000232046
0.000231966
0.000231891
0.000231821
0.000231757
0.000231697
0.000231641
0.00023159
0.000231543
0.000231499
0.00023146
0.000231424
0.000231391
0.000231361
0.000231335
0.000231311
0.00023129
0.000231272
0.000231257
0.000231244
0.000231233
0.000231224
0.000231218
0.000231214
0.000231212
0.000231212
0.000231214
0.000231217
0.000231223
0.00023123
0.000231239
0.000231249
0.000231261
0.000231274
0.000231289
0.000231305
0.000231323
0.000231342
0.000231363
0.000231384
0.000231407
0.000231431
0.000231456
0.000231483
0.00023151
0.000231539
0.000231568
0.000231599
0.000231631
0.000231663
0.000231697
0.000231732
0.000231767
0.000231803
0.00023184
0.000231878
0.000231916
0.000231955
0.000231995
0.000232036
0.000232077
0.000232118
0.00023216
0.000232202
0.000232245
0.000232288
0.000232331
0.000232375
0.000232418
0.000232462
0.000232505
0.000232549
0.000232592
0.000232635
0.000232677
0.00023272
0.000562815
0.000740638
0.000767571
0.000767651
0.000763096
0.000757975
0.000753148
0.000748779
0.000744861
0.00074135
0.000738193
0.000735345
0.000732764
0.000730416
0.000728271
0.000726307
0.000724502
0.000722838
0.000721302
0.000719881
0.000718562
0.000717337
0.000716197
0.000715134
0.000714142
0.000713213
0.000712342
0.000711524
0.000710755
0.000710032
0.00070935
0.000708707
0.0007081
0.000707528
0.000706988
0.000706479
0.000705999
0.000705546
0.00070512
0.000704718
0.000704341
0.000703985
0.000703652
0.000703339
0.000703045
0.000702769
0.000702511
0.00070227
0.000702044
0.000701834
0.000701638
0.000701455
0.000701285
0.000701128
0.000700982
0.000700848
0.000700724
0.00070061
0.000700507
0.000700412
0.000700326
0.000700248
0.000700178
0.000700116
0.000700062
0.000700014
0.000699973
0.000699938
0.000699909
0.000699886
0.000699869
0.000699857
0.00069985
0.000699848
0.00069985
0.000699858
0.000699869
0.000699886
0.000699906
0.00069993
0.000699959
0.000699991
0.000700026
0.000700065
0.000700108
0.000700154
0.000700203
0.000700255
0.000700311
0.000700369
0.00070043
0.000700495
0.000700562
0.000700631
0.000700704
0.000700779
0.000700857
0.000700937
0.000701019
0.000701104
0.000701191
0.000701281
0.000701373
0.000701466
0.000701562
0.00070166
0.000701759
0.000701861
0.000701964
0.000702068
0.000702174
0.000702281
0.000702389
0.000702498
0.000702609
0.00070272
0.000702831
0.000702943
0.000703055
0.000703167
0.000703279
0.000703379
0.00076108
0.00115457
0.00127125
0.00130573
0.00131552
0.00131688
0.00131508
0.00131204
0.00130855
0.00130497
0.00130147
0.00129811
0.00129493
0.00129193
0.00128913
0.0012865
0.00128405
0.00128176
0.00127962
0.00127762
0.00127575
0.001274
0.00127236
0.00127083
0.00126939
0.00126803
0.00126675
0.00126554
0.00126438
0.00126329
0.00126224
0.00126125
0.0012603
0.00125939
0.00125852
0.0012577
0.00125691
0.00125616
0.00125545
0.00125478
0.00125414
0.00125353
0.00125295
0.00125241
0.00125189
0.00125141
0.00125095
0.00125051
0.0012501
0.00124972
0.00124936
0.00124902
0.0012487
0.00124839
0.00124811
0.00124785
0.0012476
0.00124737
0.00124715
0.00124695
0.00124676
0.00124658
0.00124642
0.00124626
0.00124612
0.00124599
0.00124587
0.00124576
0.00124565
0.00124556
0.00124547
0.00124539
0.00124532
0.00124525
0.00124519
0.00124514
0.00124509
0.00124505
0.00124501
0.00124499
0.00124496
0.00124494
0.00124493
0.00124492
0.00124491
0.00124491
0.00124491
0.00124492
0.00124494
0.00124495
0.00124497
0.001245
0.00124503
0.00124506
0.0012451
0.00124514
0.00124519
0.00124524
0.0012453
0.00124536
0.00124542
0.00124549
0.00124556
0.00124564
0.00124572
0.00124581
0.0012459
0.001246
0.0012461
0.0012462
0.00124631
0.00124642
0.00124654
0.00124666
0.00124678
0.00124691
0.00124704
0.00124718
0.00124731
0.00124745
0.0012476
0.00124771
0.00094219
0.00154866
0.00180331
0.00190635
0.0019512
0.00197187
0.00198147
0.00198555
0.00198668
0.00198617
0.00198472
0.00198276
0.00198051
0.00197813
0.00197571
0.00197331
0.00197096
0.00196868
0.00196649
0.0019644
0.00196241
0.00196052
0.00195873
0.00195703
0.00195541
0.00195386
0.00195237
0.00195094
0.00194955
0.0019482
0.00194689
0.00194562
0.00194438
0.00194317
0.00194201
0.00194087
0.00193978
0.00193872
0.0019377
0.00193673
0.00193579
0.00193489
0.00193403
0.00193321
0.00193243
0.00193168
0.00193096
0.00193028
0.00192963
0.00192902
0.00192843
0.00192787
0.00192733
0.00192683
0.00192634
0.00192588
0.00192544
0.00192502
0.00192462
0.00192424
0.00192387
0.00192352
0.00192319
0.00192287
0.00192256
0.00192227
0.00192198
0.00192171
0.00192145
0.00192119
0.00192095
0.00192071
0.00192048
0.00192026
0.00192005
0.00191984
0.00191964
0.00191944
0.00191926
0.00191907
0.0019189
0.00191872
0.00191856
0.0019184
0.00191824
0.00191809
0.00191794
0.0019178
0.00191767
0.00191754
0.00191741
0.0019173
0.00191718
0.00191708
0.00191698
0.00191689
0.0019168
0.00191672
0.00191665
0.00191659
0.00191653
0.00191648
0.00191645
0.00191642
0.0019164
0.00191639
0.00191638
0.00191639
0.00191641
0.00191644
0.00191648
0.00191653
0.00191659
0.00191666
0.00191674
0.00191682
0.00191692
0.00191703
0.00191715
0.00191728
0.00191742
0.0019175
0.00110978
0.00189233
0.00232606
0.0025368
0.00264438
0.00270313
0.00273713
0.00275764
0.00277031
0.00277817
0.00278296
0.00278574
0.00278718
0.00278769
0.00278758
0.00278703
0.00278619
0.00278516
0.002784
0.00278277
0.00278151
0.00278024
0.00277897
0.00277771
0.00277645
0.0027752
0.00277394
0.00277266
0.00277137
0.00277005
0.00276872
0.00276737
0.00276601
0.00276464
0.00276328
0.00276193
0.00276059
0.00275928
0.00275799
0.00275673
0.00275551
0.00275432
0.00275317
0.00275205
0.00275098
0.00274994
0.00274893
0.00274796
0.00274703
0.00274613
0.00274526
0.00274442
0.00274361
0.00274283
0.00274208
0.00274134
0.00274064
0.00273995
0.00273928
0.00273863
0.002738
0.00273739
0.00273679
0.0027362
0.00273562
0.00273506
0.0027345
0.00273396
0.00273342
0.00273289
0.00273237
0.00273185
0.00273134
0.00273084
0.00273034
0.00272985
0.00272936
0.00272888
0.0027284
0.00272792
0.00272745
0.00272699
0.00272653
0.00272607
0.00272562
0.00272517
0.00272473
0.00272429
0.00272386
0.00272344
0.00272302
0.00272261
0.00272221
0.00272182
0.00272144
0.00272107
0.00272071
0.00272036
0.00272003
0.00271971
0.0027194
0.00271911
0.00271883
0.00271857
0.00271833
0.0027181
0.0027179
0.00271771
0.00271754
0.00271739
0.00271726
0.00271716
0.00271707
0.00271701
0.00271696
0.00271694
0.00271694
0.00271696
0.002717
0.00271706
0.00271715
0.00271715
0.00129926
0.00216764
0.00280717
0.00316585
0.00336954
0.00349116
0.00356775
0.00361824
0.00365279
0.00367709
0.00369457
0.00370734
0.0037168
0.00372385
0.00372913
0.00373311
0.00373609
0.00373832
0.00373997
0.00374119
0.00374207
0.00374269
0.00374308
0.00374329
0.00374333
0.00374321
0.00374292
0.00374247
0.00374186
0.0037411
0.00374019
0.00373916
0.00373803
0.0037368
0.0037355
0.00373414
0.00373275
0.00373133
0.00372991
0.00372848
0.00372706
0.00372565
0.00372426
0.0037229
0.00372156
0.00372025
0.00371896
0.00371771
0.00371648
0.00371528
0.0037141
0.00371295
0.00371182
0.00371071
0.00370962
0.00370856
0.00370751
0.00370648
0.00370546
0.00370445
0.00370346
0.00370248
0.00370151
0.00370054
0.00369958
0.00369862
0.00369767
0.00369672
0.00369577
0.00369483
0.00369388
0.00369294
0.003692
0.00369105
0.00369011
0.00368917
0.00368823
0.00368729
0.00368635
0.00368541
0.00368447
0.00368353
0.0036826
0.00368166
0.00368073
0.00367981
0.00367889
0.00367797
0.00367706
0.00367616
0.00367527
0.00367439
0.00367352
0.00367266
0.00367182
0.00367099
0.00367018
0.00366939
0.00366862
0.00366788
0.00366715
0.00366645
0.00366578
0.00366514
0.00366453
0.00366394
0.00366339
0.00366287
0.00366239
0.00366194
0.00366153
0.00366116
0.00366082
0.00366052
0.00366026
0.00366003
0.00365985
0.0036597
0.00365959
0.00365952
0.0036595
0.00365935
0.00158937
0.00236976
0.00321596
0.00375923
0.00409609
0.00431112
0.00445413
0.00455312
0.00462407
0.00467641
0.00471597
0.00474649
0.00477044
0.00478951
0.0048049
0.00481745
0.00482779
0.0048364
0.00484363
0.00484975
0.00485498
0.00485947
0.00486333
0.00486664
0.00486945
0.00487179
0.00487368
0.00487514
0.00487619
0.00487685
0.00487716
0.00487715
0.00487685
0.00487631
0.00487555
0.00487462
0.00487355
0.00487237
0.0048711
0.00486976
0.00486837
0.00486695
0.00486551
0.00486405
0.00486258
0.00486111
0.00485964
0.00485817
0.00485671
0.00485525
0.0048538
0.00485235
0.00485091
0.00484948
0.00484804
0.00484661
0.00484518
0.00484376
0.00484233
0.0048409
0.00483947
0.00483803
0.00483659
0.00483514
0.00483368
0.00483221
0.00483073
0.00482924
0.00482774
0.00482623
0.00482471
0.00482317
0.00482163
0.00482008
0.00481851
0.00481694
0.00481536
0.00481377
0.00481217
0.00481057
0.00480896
0.00480734
0.00480573
0.0048041
0.00480248
0.00480086
0.00479925
0.00479763
0.00479603
0.00479443
0.00479285
0.00479128
0.00478972
0.00478819
0.00478667
0.00478518
0.00478372
0.00478228
0.00478088
0.00477951
0.00477818
0.00477689
0.00477564
0.00477443
0.00477327
0.00477216
0.0047711
0.0047701
0.00476915
0.00476826
0.00476743
0.00476665
0.00476594
0.00476529
0.0047647
0.00476417
0.0047637
0.0047633
0.00476296
0.00476267
0.00476247
0.0047621
0.00212976
0.00251869
0.00352583
0.00427893
0.00478634
0.00512981
0.00536872
0.00554022
0.00566706
0.00576335
0.00583815
0.00589739
0.00594512
0.00598414
0.00601645
0.00604353
0.00606646
0.00608606
0.00610297
0.00611768
0.00613057
0.00614192
0.00615196
0.00616083
0.00616865
0.0061755
0.00618143
0.0061865
0.00619075
0.00619424
0.00619703
0.00619917
0.00620075
0.00620182
0.00620245
0.0062027
0.00620264
0.00620231
0.00620175
0.00620101
0.00620012
0.0061991
0.00619797
0.00619676
0.00619547
0.00619411
0.00619271
0.00619125
0.00618974
0.0061882
0.00618663
0.00618501
0.00618336
0.00618168
0.00617997
0.00617823
0.00617646
0.00617465
0.00617282
0.00617095
0.00616905
0.00616712
0.00616515
0.00616315
0.00616112
0.00615904
0.00615694
0.00615479
0.00615261
0.00615039
0.00614815
0.00614587
0.00614356
0.00614122
0.00613886
0.00613647
0.00613405
0.00613162
0.00612916
0.00612668
0.00612418
0.00612167
0.00611914
0.0061166
0.00611406
0.00611151
0.00610897
0.00610642
0.00610388
0.00610135
0.00609884
0.00609634
0.00609386
0.0060914
0.00608898
0.00608659
0.00608424
0.00608193
0.00607967
0.00607745
0.0060753
0.0060732
0.00607116
0.00606919
0.00606729
0.00606546
0.00606371
0.00606204
0.00606046
0.00605896
0.00605754
0.00605622
0.00605499
0.00605385
0.0060528
0.00605185
0.00605099
0.00605022
0.00604955
0.00604895
0.0060485
0.0060478
0.0031541
0.00268382
0.00372392
0.00468584
0.00539542
0.00590413
0.0062731
0.00654666
0.00675434
0.00691556
0.00704326
0.00714624
0.00723059
0.00730064
0.00735954
0.0074096
0.00745258
0.00748981
0.00752233
0.00755095
0.00757631
0.00759889
0.00761908
0.00763714
0.0076533
0.00766771
0.00768048
0.00769172
0.00770152
0.00770998
0.00771721
0.00772332
0.00772841
0.00773259
0.00773598
0.00773868
0.00774077
0.00774234
0.00774347
0.00774421
0.00774462
0.00774475
0.00774463
0.0077443
0.00774377
0.00774306
0.00774221
0.00774121
0.00774008
0.00773883
0.00773747
0.007736
0.00773443
0.00773275
0.00773099
0.00772913
0.00772718
0.00772514
0.00772302
0.00772081
0.00771852
0.00771615
0.00771369
0.00771116
0.00770855
0.00770585
0.00770307
0.00770022
0.00769729
0.00769428
0.00769121
0.00768808
0.00768488
0.00768162
0.00767831
0.00767494
0.00767152
0.00766805
0.00766454
0.00766099
0.0076574
0.00765378
0.00765012
0.00764645
0.00764275
0.00763904
0.00763532
0.0076316
0.00762788
0.00762417
0.00762047
0.00761679
0.00761314
0.00760952
0.00760594
0.0076024
0.00759891
0.00759548
0.00759212
0.00758882
0.0075856
0.00758247
0.00757942
0.00757646
0.0075736
0.00757085
0.0075682
0.00756567
0.00756326
0.00756096
0.00755879
0.00755675
0.00755484
0.00755305
0.0075514
0.00754988
0.00754849
0.00754724
0.00754611
0.0075451
0.00754428
0.00754316
0.00493181
0.00302612
0.0038337
0.00494834
0.00587406
0.00658116
0.00711649
0.00752621
0.00784508
0.00809766
0.00830115
0.00846767
0.00860586
0.00872199
0.00882068
0.00890542
0.00897883
0.00904298
0.00909945
0.00914952
0.00919418
0.00923421
0.00927024
0.00930271
0.009332
0.00935838
0.00938206
0.00940324
0.00942206
0.00943872
0.00945336
0.00946615
0.00947728
0.00948691
0.00949521
0.00950233
0.0095084
0.00951357
0.00951795
0.00952162
0.00952469
0.00952721
0.00952926
0.00953088
0.00953212
0.009533
0.00953357
0.00953385
0.00953384
0.00953359
0.00953309
0.00953237
0.00953142
0.00953027
0.00952892
0.00952737
0.00952564
0.00952373
0.00952165
0.00951939
0.00951697
0.00951438
0.00951164
0.00950875
0.0095057
0.0095025
0.00949915
0.00949566
0.00949202
0.00948826
0.00948437
0.00948035
0.00947623
0.009472
0.00946766
0.00946323
0.0094587
0.00945408
0.00944939
0.00944461
0.00943977
0.00943487
0.00942991
0.00942491
0.00941986
0.00941478
0.00940968
0.00940456
0.00939944
0.00939431
0.0093892
0.0093841
0.00937903
0.00937399
0.00936901
0.00936408
0.00935921
0.00935441
0.0093497
0.00934508
0.00934056
0.00933614
0.00933185
0.00932767
0.00932363
0.00931973
0.00931597
0.00931236
0.00930891
0.00930563
0.00930251
0.00929956
0.00929678
0.00929418
0.00929175
0.0092895
0.00928743
0.00928554
0.00928382
0.00928226
0.00928093
0.00927924
0.00765447
0.00384129
0.0039599
0.0050637
0.00617752
0.00710148
0.0078361
0.00841791
0.00888249
0.00925803
0.00956562
0.00982082
0.0100351
0.0102171
0.0103732
0.0105083
0.0106262
0.0107299
0.0108218
0.0109037
0.0109772
0.0110433
0.0111032
0.0111574
0.0112066
0.0112512
0.0112916
0.0113281
0.011361
0.0113905
0.0114169
0.0114404
0.0114613
0.0114799
0.0114963
0.0115109
0.0115238
0.0115351
0.0115452
0.0115541
0.0115619
0.0115688
0.0115749
0.0115802
0.0115848
0.0115888
0.0115923
0.0115951
0.0115975
0.0115995
0.0116009
0.011602
0.0116027
0.011603
0.0116029
0.0116025
0.0116017
0.0116006
0.0115992
0.0115975
0.0115955
0.0115932
0.0115907
0.0115878
0.0115848
0.0115814
0.0115778
0.011574
0.0115699
0.0115656
0.011561
0.0115563
0.0115514
0.0115463
0.011541
0.0115356
0.0115299
0.0115242
0.0115183
0.0115123
0.0115061
0.0114999
0.0114935
0.0114871
0.0114806
0.011474
0.0114674
0.0114607
0.011454
0.0114473
0.0114406
0.0114339
0.0114272
0.0114206
0.011414
0.0114074
0.0114009
0.0113946
0.0113883
0.0113821
0.0113761
0.0113701
0.0113644
0.0113588
0.0113533
0.011348
0.0113429
0.0113381
0.0113334
0.0113289
0.0113246
0.0113205
0.0113167
0.0113131
0.0113097
0.0113065
0.0113036
0.0113009
0.0112984
0.0112961
0.0112941
0.0112917
0.0113266
0.00551803
0.00435849
0.00510578
0.00628855
0.00740978
0.00836168
0.0091471
0.00979278
0.0103264
0.0107711
0.0111454
0.0114634
0.0117362
0.0119723
0.0121782
0.0123592
0.0125194
0.0126621
0.0127899
0.0129049
0.0130091
0.0131036
0.0131896
0.0132681
0.0133396
0.0134049
0.0134643
0.0135183
0.0135673
0.0136116
0.0136517
0.0136878
0.0137204
0.0137498
0.0137762
0.0138
0.0138215
0.0138409
0.0138584
0.0138742
0.0138885
0.0139014
0.0139131
0.0139237
0.0139332
0.0139417
0.0139494
0.0139562
0.0139622
0.0139674
0.013972
0.0139759
0.0139791
0.0139818
0.0139838
0.0139853
0.0139862
0.0139867
0.0139866
0.013986
0.013985
0.0139835
0.0139816
0.0139793
0.0139765
0.0139733
0.0139698
0.0139658
0.0139615
0.0139568
0.0139518
0.0139465
0.0139409
0.013935
0.0139289
0.0139224
0.0139158
0.0139089
0.0139018
0.0138945
0.013887
0.0138794
0.0138716
0.0138636
0.0138556
0.0138474
0.0138392
0.0138309
0.0138225
0.0138142
0.0138058
0.0137974
0.013789
0.0137807
0.0137724
0.0137642
0.013756
0.013748
0.0137401
0.0137324
0.0137248
0.0137174
0.0137101
0.0137031
0.0136962
0.0136896
0.0136832
0.0136771
0.0136712
0.0136655
0.0136602
0.0136551
0.0136502
0.0136457
0.0136414
0.0136374
0.0136337
0.0136302
0.013627
0.0136242
0.0136207
0.0157248
0.0083437
0.00547916
0.00531275
0.00627167
0.00748282
0.00862975
0.00963244
0.0104877
0.0112134
0.0118305
0.0123582
0.0128125
0.0132064
0.0135504
0.0138528
0.0141205
0.0143589
0.0145723
0.0147644
0.0149381
0.0150959
0.0152398
0.0153712
0.0154916
0.0156019
0.0157031
0.0157958
0.0158807
0.0159583
0.0160293
0.016094
0.016153
0.0162068
0.0162558
0.0163005
0.0163413
0.0163786
0.0164126
0.0164438
0.0164723
0.0164985
0.0165225
0.0165446
0.0165648
0.0165834
0.0166004
0.0166161
0.0166303
0.0166433
0.0166552
0.0166658
0.0166755
0.0166841
0.0166917
0.0166984
0.0167042
0.0167091
0.0167133
0.0167166
0.0167192
0.016721
0.0167221
0.0167225
0.0167223
0.0167214
0.0167199
0.0167178
0.016715
0.0167117
0.0167079
0.0167035
0.0166987
0.0166934
0.0166876
0.0166815
0.0166749
0.0166679
0.0166606
0.0166529
0.0166449
0.0166366
0.0166281
0.0166193
0.0166102
0.016601
0.0165916
0.016582
0.0165723
0.0165625
0.0165526
0.0165426
0.0165326
0.0165225
0.0165125
0.0165025
0.0164926
0.0164827
0.0164729
0.0164633
0.0164538
0.0164444
0.0164352
0.0164263
0.0164175
0.016409
0.0164007
0.0163927
0.0163849
0.0163774
0.0163703
0.0163634
0.0163568
0.0163506
0.0163447
0.016339
0.0163338
0.0163288
0.0163241
0.0163198
0.0163158
0.0163111
0.0204365
0.0122987
0.00781878
0.0061763
0.00638132
0.00739744
0.00862145
0.00980678
0.0108762
0.0118169
0.0126375
0.0133529
0.0139782
0.0145273
0.0150118
0.0154416
0.0158249
0.0161684
0.0164777
0.0167576
0.0170118
0.0172437
0.0174559
0.0176506
0.0178296
0.0179944
0.0181463
0.0182862
0.0184152
0.0185339
0.0186432
0.0187438
0.0188362
0.0189212
0.0189993
0.0190712
0.0191374
0.0191984
0.0192546
0.0193066
0.0193547
0.0193991
0.0194404
0.0194786
0.0195141
0.019547
0.0195775
0.0196059
0.0196321
0.0196565
0.019679
0.0196998
0.0197189
0.0197365
0.0197525
0.0197672
0.0197805
0.0197924
0.0198032
0.0198127
0.019821
0.0198283
0.0198344
0.0198395
0.0198436
0.0198467
0.0198489
0.0198502
0.0198505
0.01985
0.0198486
0.0198465
0.0198437
0.0198401
0.0198358
0.0198309
0.0198254
0.0198193
0.0198126
0.0198054
0.0197977
0.0197895
0.019781
0.0197719
0.0197626
0.0197529
0.0197428
0.0197325
0.019722
0.0197112
0.0197002
0.0196891
0.0196779
0.0196666
0.0196552
0.0196438
0.0196324
0.019621
0.0196097
0.0195984
0.0195873
0.0195763
0.0195655
0.0195548
0.0195444
0.0195342
0.0195242
0.0195146
0.0195051
0.019496
0.0194872
0.0194788
0.0194706
0.0194628
0.0194554
0.0194482
0.0194415
0.019435
0.019429
0.0194232
0.0194179
0.0194116
0.024966
0.017029
0.011559
0.00833441
0.00718515
0.00746836
0.008455
0.00967288
0.0108973
0.0120408
0.0130773
0.0140053
0.014833
0.0155712
0.0162309
0.0168222
0.0173542
0.0178346
0.0182701
0.0186664
0.0190282
0.0193598
0.0196644
0.0199451
0.0202042
0.0204438
0.0206656
0.020871
0.0210613
0.0212376
0.0214008
0.021552
0.021692
0.0218217
0.0219417
0.022053
0.0221562
0.0222519
0.0223409
0.0224237
0.0225007
0.0225725
0.0226395
0.0227021
0.0227606
0.0228153
0.0228665
0.0229144
0.0229592
0.0230011
0.0230403
0.0230769
0.023111
0.0231429
0.0231725
0.0231999
0.0232254
0.0232489
0.0232705
0.0232904
0.0233085
0.023325
0.0233399
0.0233533
0.0233651
0.0233756
0.0233846
0.0233923
0.0233986
0.0234037
0.0234076
0.0234103
0.0234119
0.0234124
0.0234119
0.0234105
0.0234081
0.0234048
0.0234007
0.0233958
0.0233901
0.0233838
0.0233767
0.023369
0.0233607
0.0233519
0.0233425
0.0233327
0.0233225
0.0233119
0.0233009
0.0232896
0.0232781
0.0232663
0.0232544
0.0232423
0.0232301
0.0232179
0.0232056
0.0231933
0.0231811
0.0231689
0.0231568
0.0231449
0.0231331
0.0231215
0.0231101
0.023099
0.0230881
0.0230774
0.0230671
0.0230571
0.0230474
0.023038
0.0230289
0.0230202
0.0230118
0.0230038
0.0229961
0.0229887
0.0229817
0.0229736
0.0288721
0.0219727
0.0163572
0.0121026
0.00944208
0.00839318
0.00856599
0.00943681
0.0106072
0.0118514
0.0130626
0.0141965
0.0152393
0.0161903
0.0170549
0.0178407
0.0185555
0.0192072
0.0198027
0.0203483
0.0208496
0.0213113
0.0217376
0.0221322
0.0224981
0.0228379
0.0231538
0.0234478
0.0237215
0.0239764
0.0242139
0.0244351
0.0246411
0.0248331
0.025012
0.0251788
0.0253345
0.0254798
0.0256157
0.0257427
0.0258617
0.0259732
0.0260778
0.0261761
0.0262685
0.0263553
0.0264371
0.026514
0.0265865
0.0266548
0.0267191
0.0267796
0.0268366
0.0268902
0.0269405
0.0269878
0.0270322
0.0270737
0.0271125
0.0271488
0.0271826
0.0272139
0.027243
0.0272699
0.0272946
0.0273172
0.0273379
0.0273566
0.0273734
0.0273883
0.0274015
0.027413
0.0274229
0.0274313
0.0274382
0.0274436
0.0274477
0.0274505
0.027452
0.0274523
0.0274515
0.0274496
0.0274467
0.0274429
0.0274381
0.0274325
0.027426
0.0274188
0.0274109
0.0274024
0.0273933
0.0273836
0.0273735
0.0273629
0.0273519
0.0273406
0.0273291
0.0273172
0.0273052
0.027293
0.0272807
0.0272683
0.027256
0.0272436
0.0272312
0.027219
0.0272068
0.0271948
0.0271829
0.0271713
0.0271598
0.0271485
0.0271375
0.0271268
0.0271163
0.0271061
0.0270961
0.0270865
0.0270771
0.027068
0.0270593
0.027049
0.0318859
0.0265354
0.0215162
0.0170871
0.0134893
0.011029
0.00983786
0.0097379
0.0103766
0.011418
0.0126294
0.0138773
0.0150935
0.0162465
0.0173241
0.0183239
0.0192482
0.0201018
0.0208903
0.0216191
0.0222939
0.0229197
0.0235009
0.0240418
0.0245458
0.0250161
0.0254555
0.0258664
0.0262508
0.0266106
0.0269474
0.0272629
0.0275585
0.0278354
0.0280949
0.0283382
0.0285665
0.0287807
0.028982
0.0291712
0.0293493
0.029517
0.029675
0.0298242
0.029965
0.0300981
0.0302239
0.0303429
0.0304556
0.0305622
0.0306632
0.0307589
0.0308495
0.0309353
0.0310165
0.0310934
0.031166
0.0312347
0.0312996
0.0313608
0.0314185
0.0314727
0.0315238
0.0315716
0.0316165
0.0316584
0.0316975
0.0317339
0.0317676
0.0317986
0.0318272
0.0318534
0.0318773
0.031899
0.0319186
0.0319361
0.0319516
0.0319653
0.0319772
0.0319873
0.0319957
0.0320026
0.032008
0.0320119
0.0320144
0.0320157
0.0320157
0.0320146
0.0320123
0.0320091
0.0320049
0.0319998
0.0319938
0.0319871
0.0319797
0.0319717
0.0319631
0.0319539
0.0319443
0.0319343
0.0319239
0.0319132
0.0319022
0.031891
0.0318796
0.0318682
0.0318566
0.0318449
0.0318332
0.0318216
0.0318099
0.0317983
0.0317868
0.0317753
0.031764
0.0317528
0.0317417
0.0317307
0.0317199
0.0317092
0.0316988
0.0316864
0.0339568
0.0302574
0.0262964
0.0224018
0.0187493
0.0155657
0.0131349
0.01166
0.0111401
0.0113925
0.0121663
0.0132379
0.014448
0.0156984
0.0169334
0.0181236
0.0192549
0.0203217
0.0213232
0.0222615
0.0231397
0.0239616
0.0247312
0.0254522
0.0261284
0.026763
0.0273591
0.0279194
0.0284463
0.0289421
0.0294086
0.0298479
0.0302615
0.030651
0.031018
0.0313639
0.03169
0.0319976
0.032288
0.0325623
0.0328215
0.0330667
0.0332988
0.0335187
0.0337272
0.033925
0.0341128
0.0342911
0.0344607
0.0346218
0.0347752
0.034921
0.0350599
0.035192
0.0353177
0.0354374
0.0355512
0.0356595
0.0357624
0.0358603
0.0359533
0.0360415
0.0361252
0.0362046
0.0362798
0.0363508
0.036418
0.0364814
0.0365411
0.0365971
0.0366497
0.036699
0.036745
0.036788
0.0368279
0.036865
0.0368993
0.0369309
0.0369599
0.0369865
0.0370107
0.0370326
0.0370523
0.03707
0.0370856
0.0370993
0.0371112
0.0371214
0.0371299
0.0371368
0.0371423
0.0371463
0.037149
0.0371505
0.0371508
0.03715
0.0371481
0.0371453
0.0371417
0.0371372
0.0371319
0.0371259
0.0371193
0.0371122
0.0371044
0.0370963
0.0370876
0.0370786
0.0370692
0.0370595
0.0370495
0.0370392
0.0370287
0.037018
0.0370072
0.0369961
0.0369849
0.0369735
0.036962
0.0369503
0.0369387
0.0369246
0.0352156
0.0329264
0.0301548
0.0271692
0.0241079
0.0210829
0.0182539
0.0158401
0.0140585
0.0130305
0.012737
0.0130508
0.0138009
0.0148263
0.0160022
0.0172434
0.018496
0.0197279
0.0209205
0.0220641
0.0231541
0.0241894
0.0251705
0.0260992
0.0269778
0.0278088
0.0285949
0.0293384
0.0300419
0.0307076
0.0313376
0.0319339
0.0324985
0.033033
0.0335392
0.0340187
0.0344731
0.0349037
0.0353121
0.0356996
0.0360674
0.0364168
0.0367489
0.0370647
0.0373652
0.0376514
0.0379241
0.038184
0.038432
0.0386687
0.0388946
0.0391105
0.0393166
0.0395137
0.039702
0.039882
0.040054
0.0402185
0.0403757
0.040526
0.0406695
0.0408066
0.0409375
0.0410625
0.0411817
0.0412954
0.0414037
0.0415068
0.041605
0.0416982
0.0417866
0.0418705
0.0419499
0.0420251
0.0420962
0.0421633
0.0422266
0.0422861
0.0423421
0.0423946
0.0424437
0.0424897
0.0425326
0.0425725
0.0426095
0.0426438
0.0426754
0.0427045
0.0427312
0.0427556
0.0427777
0.0427978
0.0428158
0.0428318
0.042846
0.0428585
0.0428693
0.0428786
0.0428863
0.0428926
0.0428976
0.0429012
0.0429037
0.042905
0.0429053
0.0429045
0.0429028
0.0429001
0.0428966
0.0428922
0.042887
0.0428811
0.0428745
0.0428671
0.0428591
0.0428504
0.0428411
0.0428312
0.0428208
0.0428096
0.0427982
0.0427835
0.0358864
0.034593
0.0328633
0.0308401
0.0286213
0.0262674
0.0238358
0.0214144
0.0191386
0.0171788
0.0156958
0.0147878
0.0144645
0.0146594
0.0152639
0.0161609
0.0172464
0.01844
0.0196845
0.0209415
0.0221861
0.0234028
0.0245819
0.0257182
0.0268091
0.0278537
0.0288521
0.0298053
0.0307146
0.0315814
0.0324075
0.0331945
0.033944
0.0346579
0.0353378
0.0359853
0.036602
0.0371894
0.0377492
0.0382828
0.0387915
0.0392768
0.0397399
0.040182
0.0406044
0.0410081
0.0413941
0.0417633
0.0421168
0.0424553
0.0427795
0.0430903
0.0433882
0.0436739
0.0439479
0.0442109
0.0444632
0.0447053
0.0449377
0.0451607
0.0453748
0.0455802
0.0457773
0.0459664
0.0461479
0.0463218
0.0464886
0.0466485
0.0468016
0.0469482
0.0470884
0.0472224
0.0473504
0.0474727
0.0475895
0.0477008
0.0478069
0.047908
0.0480042
0.0480956
0.0481825
0.0482649
0.048343
0.0484171
0.0484871
0.0485533
0.0486157
0.0486746
0.04873
0.0487821
0.048831
0.0488768
0.0489197
0.0489596
0.0489968
0.0490314
0.0490634
0.049093
0.0491202
0.0491451
0.0491679
0.0491885
0.0492072
0.0492239
0.0492387
0.0492517
0.049263
0.0492726
0.0492805
0.0492868
0.0492916
0.0492949
0.0492967
0.0492971
0.049296
0.0492936
0.0492899
0.0492848
0.0492785
0.0492708
0.0492621
0.0492493
0.0361963
0.0354884
0.0345011
0.0332718
0.0318469
0.0302605
0.0285351
0.0266917
0.024764
0.0228125
0.0209309
0.0192398
0.0178631
0.0168966
0.0163857
0.0163216
0.0166534
0.0173069
0.0182018
0.0192644
0.0204341
0.0216644
0.0229219
0.0241829
0.0254314
0.0266564
0.0278505
0.0290093
0.0301298
0.0312107
0.0322514
0.0332521
0.0342131
0.0351354
0.0360199
0.0368677
0.0376802
0.0384587
0.0392045
0.0399191
0.0406038
0.04126
0.0418889
0.0424919
0.0430702
0.0436251
0.0441576
0.0446689
0.04516
0.0456319
0.0460854
0.0465215
0.046941
0.0473445
0.0477329
0.0481067
0.0484666
0.0488132
0.0491471
0.0494686
0.0497784
0.0500768
0.0503643
0.0506413
0.0509081
0.0511651
0.0514126
0.051651
0.0518805
0.0521014
0.0523139
0.0525183
0.0527148
0.0529035
0.053085
0.0532592
0.0534265
0.0535871
0.0537411
0.0538888
0.0540303
0.0541658
0.0542955
0.0544196
0.0545383
0.0546517
0.0547601
0.0548634
0.054962
0.055056
0.0551454
0.0552305
0.0553114
0.0553881
0.055461
0.0555299
0.0555952
0.0556568
0.0557149
0.0557697
0.0558211
0.0558693
0.0559143
0.0559564
0.0559954
0.0560315
0.0560648
0.0560954
0.0561232
0.0561483
0.0561709
0.0561908
0.0562083
0.0562232
0.0562357
0.0562458
0.0562534
0.0562588
0.0562618
0.0562624
0.0562612
0.0562546
0.0363185
0.0358964
0.035342
0.0346443
0.0338099
0.0328502
0.0317745
0.0305881
0.0292942
0.0278982
0.0264145
0.0248739
0.0233287
0.0218531
0.0205352
0.0194615
0.0187
0.018288
0.0182293
0.0184992
0.0190539
0.0198403
0.0208042
0.0218959
0.0230738
0.0243046
0.025563
0.0268303
0.0280927
0.0293403
0.0305657
0.0317639
0.0329311
0.0340652
0.0351648
0.0362291
0.0372581
0.0382518
0.0392108
0.0401358
0.0410276
0.0418871
0.0427154
0.0435135
0.0442827
0.045024
0.0457384
0.0464272
0.0470913
0.0477317
0.0483495
0.0489455
0.0495207
0.050076
0.050612
0.0511297
0.0516298
0.0521129
0.0525797
0.0530308
0.0534668
0.0538882
0.0542956
0.0546894
0.0550701
0.0554382
0.055794
0.0561381
0.0564706
0.0567921
0.0571027
0.0574029
0.0576929
0.0579728
0.0582431
0.058504
0.0587558
0.0589989
0.0592333
0.0594594
0.0596774
0.0598875
0.06009
0.0602849
0.0604727
0.0606534
0.0608273
0.0609945
0.0611552
0.0613097
0.061458
0.0616004
0.0617369
0.0618678
0.0619932
0.0621132
0.0622279
0.0623376
0.0624422
0.062542
0.0626369
0.0627272
0.0628129
0.0628941
0.0629708
0.0630432
0.0631113
0.0631752
0.0632349
0.0632905
0.063342
0.0633895
0.063433
0.0634726
0.0635084
0.0635402
0.0635682
0.0635925
0.063613
0.0636298
0.0636434
0.0636502
0.0363591
0.0360515
0.0357024
0.0352937
0.0348163
0.0342669
0.0336458
0.0329534
0.032189
0.0313505
0.0304344
0.0294384
0.0283637
0.0272185
0.0260225
0.0248094
0.0236274
0.0225355
0.0215963
0.0208662
0.0203869
0.0201806
0.0202494
0.0205783
0.0211397
0.0218989
0.0228186
0.0238626
0.0249978
0.0261965
0.0274356
0.0286972
0.0299672
0.0312349
0.0324922
0.0337328
0.0349521
0.0361465
0.0373135
0.0384515
0.0395593
0.0406364
0.0416826
0.0426982
0.0436834
0.0446386
0.0455646
0.0464619
0.0473314
0.0481738
0.0489899
0.0497805
0.0505465
0.0512887
0.052008
0.0527051
0.0533807
0.0540356
0.0546705
0.0552861
0.0558829
0.0564617
0.057023
0.0575673
0.0580953
0.0586073
0.0591041
0.0595859
0.0600533
0.0605066
0.0609464
0.0613729
0.0617865
0.0621875
0.0625763
0.0629531
0.0633181
0.0636718
0.0640146
0.0643467
0.0646683
0.0649798
0.0652813
0.0655732
0.0658556
0.0661289
0.0663933
0.0666488
0.0668959
0.0671347
0.0673653
0.0675879
0.0678028
0.0680101
0.06821
0.0684026
0.068588
0.0687664
0.0689379
0.0691027
0.0692608
0.0694124
0.0695575
0.0696962
0.0698287
0.0699549
0.070075
0.0701889
0.0702969
0.0703988
0.0704948
0.0705849
0.0706691
0.0707475
0.0708202
0.070887
0.0709482
0.0710038
0.0710537
0.071098
0.0711374
0.0711683
0.0363702
0.0360998
0.0358287
0.035546