/*--------------------------------*- C++ -*----------------------------------*\
  =========                 |
  \\      /  F ield         | OpenFOAM: The Open Source CFD Toolbox
   \\    /   O peration     | Website:  https://openfoam.org
    \\  /    A nd           | Version:  8
     \\/     M anipulation  |
\*---------------------------------------------------------------------------*/
FoamFile
{
    version     2.0;
    format      ascii;
    class       volScalarField;
    location    "500";
    object      p;
}
// * * * * * * * * * * * * * * * * * * * * * * * * * * * * * * * * * * * * * //

dimensions      [0 2 -2 0 0 0 0];

internalField   nonuniform List<scalar> 
7320
(
151.452
145.596
143.686
141.901
140.192
138.496
136.833
135.208
133.616
132.05
130.506
128.983
127.477
125.988
124.514
123.054
121.607
120.171
118.747
117.332
115.928
114.532
113.145
111.766
110.396
109.032
107.676
106.328
104.986
103.652
102.325
101.005
99.6919
98.3857
97.0864
95.7938
94.5079
93.2285
91.9555
90.6888
89.4282
88.1736
86.9248
85.6818
84.4444
83.2124
81.9858
80.7645
79.5483
78.3371
77.1309
75.9295
74.7329
73.5411
72.3538
71.1711
69.9928
68.819
67.6496
66.4844
65.3236
64.1669
63.0143
61.8659
60.7216
59.5812
58.4449
57.3125
56.184
55.0594
53.9385
52.8215
51.7082
50.5986
49.4927
48.3904
47.2917
46.1966
45.1049
44.0168
42.932
41.8506
40.7725
39.6977
38.6262
37.5578
36.4924
35.4302
34.3709
33.3145
32.261
31.2102
30.1622
29.1168
28.0739
27.0335
25.9954
24.9596
23.926
22.8945
21.8649
20.8373
19.8114
18.7872
17.7646
16.7434
15.7236
14.7051
13.6876
12.6712
11.6556
10.6409
9.62679
8.61329
7.60025
6.58756
5.57512
4.56284
3.55056
2.53862
1.52523
0.525167
150.654
145.583
143.686
141.901
140.192
138.497
136.833
135.208
133.617
132.05
130.506
128.983
127.477
125.988
124.514
123.054
121.607
120.171
118.747
117.332
115.928
114.532
113.145
111.767
110.396
109.032
107.676
106.328
104.986
103.652
102.325
101.005
99.6919
98.3857
97.0864
95.7938
94.5079
93.2285
91.9555
90.6888
89.4282
88.1736
86.9248
85.6818
84.4444
83.2124
81.9858
80.7645
79.5483
78.3371
77.1309
75.9295
74.7329
73.5411
72.3538
71.1711
69.9928
68.819
67.6496
66.4844
65.3236
64.1669
63.0143
61.8659
60.7216
59.5812
58.4449
57.3125
56.184
55.0594
53.9385
52.8215
51.7082
50.5986
49.4927
48.3904
47.2917
46.1966
45.1049
44.0168
42.932
41.8506
40.7725
39.6977
38.6262
37.5578
36.4924
35.4302
34.3709
33.3145
32.261
31.2102
30.1622
29.1168
28.0739
27.0335
25.9954
24.9596
23.926
22.8945
21.8649
20.8373
19.8114
18.7872
17.7646
16.7434
15.7236
14.705
13.6876
12.6712
11.6556
10.6409
9.62679
8.61329
7.60024
6.58756
5.57511
4.56283
3.55055
2.53862
1.52522
0.525165
150.449
145.588
143.687
141.902
140.193
138.497
136.833
135.209
133.617
132.05
130.507
128.983
127.477
125.988
124.514
123.054
121.607
120.171
118.747
117.333
115.928
114.532
113.145
111.767
110.396
109.032
107.676
106.328
104.986
103.652
102.325
101.005
99.6919
98.3857
97.0864
95.7939
94.5079
93.2286
91.9555
90.6888
89.4282
88.1736
86.9248
85.6818
84.4444
83.2124
81.9858
80.7645
79.5483
78.3371
77.1309
75.9295
74.733
73.5411
72.3538
71.1711
69.9929
68.819
67.6496
66.4845
65.3236
64.1669
63.0143
61.8659
60.7216
59.5812
58.4449
57.3125
56.184
55.0594
53.9385
52.8215
51.7082
50.5986
49.4927
48.3904
47.2917
46.1966
45.1049
44.0168
42.932
41.8506
40.7725
39.6977
38.6262
37.5578
36.4924
35.4302
34.3709
33.3145
32.261
31.2102
30.1622
29.1168
28.0739
27.0334
25.9954
24.9596
23.926
22.8945
21.8649
20.8373
19.8114
18.7872
17.7646
16.7434
15.7236
14.705
13.6876
12.6712
11.6556
10.6409
9.62679
8.61328
7.60024
6.58755
5.57511
4.56283
3.55055
2.53861
1.52522
0.525162
150.435
145.595
143.689
141.903
140.193
138.498
136.833
135.209
133.617
132.051
130.507
128.983
127.478
125.989
124.515
123.054
121.607
120.171
118.747
117.333
115.928
114.532
113.145
111.767
110.396
109.032
107.676
106.328
104.987
103.652
102.325
101.005
99.6919
98.3858
97.0864
95.7939
94.508
93.2286
91.9556
90.6888
89.4282
88.1736
86.9248
85.6818
84.4444
83.2124
81.9858
80.7645
79.5483
78.3371
77.1309
75.9295
74.733
73.5411
72.3538
71.1711
69.9929
68.819
67.6496
66.4845
65.3236
64.1669
63.0143
61.8659
60.7216
59.5812
58.4449
57.3125
56.184
55.0594
53.9385
52.8215
51.7082
50.5986
49.4927
48.3904
47.2917
46.1966
45.1049
44.0168
42.932
41.8506
40.7725
39.6977
38.6262
37.5578
36.4924
35.4302
34.3709
33.3145
32.261
31.2102
30.1622
29.1168
28.0739
27.0334
25.9954
24.9596
23.926
22.8945
21.8649
20.8373
19.8114
18.7872
17.7646
16.7434
15.7236
14.705
13.6876
12.6711
11.6556
10.6409
9.62678
8.61328
7.60023
6.58754
5.5751
4.56282
3.55054
2.53861
1.52521
0.525159
150.408
145.6
143.691
141.904
140.194
138.498
136.834
135.209
133.617
132.051
130.507
128.983
127.478
125.989
124.515
123.055
121.607
120.172
118.747
117.333
115.928
114.532
113.145
111.767
110.396
109.032
107.677
106.328
104.987
103.652
102.325
101.005
99.692
98.3858
97.0865
95.7939
94.508
93.2286
91.9556
90.6889
89.4282
88.1736
86.9248
85.6818
84.4444
83.2125
81.9858
80.7645
79.5483
78.3371
77.1309
75.9296
74.733
73.5411
72.3538
71.1711
69.9929
68.8191
67.6496
66.4845
65.3236
64.1669
63.0143
61.8659
60.7216
59.5812
58.4449
57.3125
56.184
55.0594
53.9385
52.8215
51.7082
50.5986
49.4927
48.3904
47.2917
46.1966
45.1049
44.0168
42.932
41.8506
40.7725
39.6977
38.6262
37.5577
36.4924
35.4302
34.3709
33.3145
32.2609
31.2102
30.1622
29.1168
28.0738
27.0334
25.9954
24.9596
23.9259
22.8945
21.8649
20.8373
19.8114
18.7872
17.7646
16.7434
15.7236
14.705
13.6876
12.6711
11.6556
10.6408
9.62677
8.61327
7.60022
6.58753
5.57509
4.56281
3.55053
2.5386
1.5252
0.525154
150.366
145.604
143.693
141.906
140.195
138.499
136.835
135.21
133.618
132.051
130.507
128.984
127.478
125.989
124.515
123.055
121.607
120.172
118.747
117.333
115.928
114.533
113.146
111.767
110.396
109.033
107.677
106.328
104.987
103.652
102.325
101.005
99.692
98.3858
97.0865
95.794
94.508
93.2286
91.9556
90.6889
89.4283
88.1737
86.9249
85.6819
84.4444
83.2125
81.9859
80.7645
79.5483
78.3371
77.1309
75.9296
74.733
73.5411
72.3538
71.1711
69.9929
68.8191
67.6496
66.4845
65.3236
64.1669
63.0143
61.8659
60.7216
59.5812
58.4449
57.3125
56.184
55.0594
53.9385
52.8215
51.7082
50.5986
49.4927
48.3904
47.2917
46.1966
45.1049
44.0168
42.932
41.8506
40.7725
39.6977
38.6261
37.5577
36.4924
35.4302
34.3709
33.3145
32.2609
31.2102
30.1622
29.1167
28.0738
27.0334
25.9954
24.9596
23.9259
22.8944
21.8649
20.8373
19.8114
18.7872
17.7646
16.7434
15.7236
14.705
13.6876
12.6711
11.6556
10.6408
9.62676
8.61326
7.60021
6.58752
5.57508
4.5628
3.55052
2.53859
1.52519
0.525147
150.331
145.609
143.696
141.908
140.197
138.5
136.835
135.211
133.618
132.052
130.508
128.984
127.478
125.989
124.515
123.055
121.608
120.172
118.747
117.333
115.928
114.533
113.146
111.767
110.396
109.033
107.677
106.328
104.987
103.652
102.325
101.005
99.6921
98.3859
97.0866
95.794
94.5081
93.2287
91.9557
90.6889
89.4283
88.1737
86.9249
85.6819
84.4445
83.2125
81.9859
80.7645
79.5483
78.3372
77.1309
75.9296
74.733
73.5411
72.3538
71.1711
69.9929
68.8191
67.6496
66.4845
65.3236
64.1669
63.0143
61.8659
60.7216
59.5812
58.4449
57.3125
56.184
55.0594
53.9385
52.8215
51.7082
50.5986
49.4927
48.3904
47.2917
46.1966
45.1049
44.0168
42.932
41.8506
40.7725
39.6977
38.6261
37.5577
36.4924
35.4301
34.3708
33.3145
32.2609
31.2102
30.1622
29.1167
28.0738
27.0334
25.9953
24.9596
23.9259
22.8944
21.8649
20.8372
19.8114
18.7872
17.7646
16.7434
15.7236
14.705
13.6875
12.6711
11.6556
10.6408
9.62674
8.61324
7.6002
6.58751
5.57507
4.56279
3.55051
2.53857
1.52518
0.525139
150.303
145.614
143.699
141.91
140.198
138.501
136.836
135.211
133.619
132.052
130.508
128.984
127.479
125.99
124.516
123.055
121.608
120.172
118.748
117.333
115.928
114.533
113.146
111.767
110.396
109.033
107.677
106.328
104.987
103.653
102.325
101.005
99.6922
98.386
97.0866
95.7941
94.5081
93.2287
91.9557
90.689
89.4284
88.1737
86.9249
85.6819
84.4445
83.2125
81.9859
80.7646
79.5484
78.3372
77.1309
75.9296
74.733
73.5411
72.3538
71.1711
69.9929
68.8191
67.6496
66.4845
65.3236
64.1669
63.0143
61.8659
60.7216
59.5812
58.4449
57.3125
56.184
55.0594
53.9385
52.8215
51.7082
50.5986
49.4927
48.3904
47.2917
46.1966
45.1049
44.0167
42.932
41.8506
40.7725
39.6977
38.6261
37.5577
36.4924
35.4301
34.3708
33.3145
32.2609
31.2102
30.1621
29.1167
28.0738
27.0334
25.9953
24.9595
23.9259
22.8944
21.8649
20.8372
19.8113
18.7872
17.7645
16.7434
15.7235
14.705
13.6875
12.6711
11.6555
10.6408
9.62673
8.61322
7.60018
6.58749
5.57505
4.56277
3.55049
2.53856
1.52516
0.525128
150.281
145.62
143.701
141.912
140.2
138.503
136.837
135.212
133.62
132.053
130.509
128.985
127.479
125.99
124.516
123.056
121.608
120.172
118.748
117.333
115.929
114.533
113.146
111.767
110.396
109.033
107.677
106.328
104.987
103.653
102.325
101.005
99.6923
98.3861
97.0867
95.7941
94.5082
93.2288
91.9558
90.689
89.4284
88.1738
86.925
85.682
84.4445
83.2126
81.9859
80.7646
79.5484
78.3372
77.131
75.9296
74.733
73.5411
72.3538
71.1711
69.9929
68.8191
67.6496
66.4845
65.3236
64.1669
63.0143
61.8659
60.7216
59.5812
58.4449
57.3125
56.184
55.0593
53.9385
52.8215
51.7082
50.5986
49.4927
48.3904
47.2917
46.1966
45.1049
44.0167
42.932
41.8506
40.7725
39.6977
38.6261
37.5577
36.4924
35.4301
34.3708
33.3144
32.2609
31.2102
30.1621
29.1167
28.0738
27.0334
25.9953
24.9595
23.9259
22.8944
21.8649
20.8372
19.8113
18.7871
17.7645
16.7434
15.7235
14.705
13.6875
12.6711
11.6555
10.6408
9.6267
8.6132
7.60016
6.58747
5.57503
4.56275
3.55047
2.53854
1.52514
0.525114
150.261
145.627
143.704
141.915
140.202
138.504
136.839
135.214
133.621
132.054
130.51
128.986
127.48
125.991
124.516
123.056
121.609
120.173
118.748
117.334
115.929
114.533
113.146
111.767
110.396
109.033
107.677
106.329
104.987
103.653
102.326
101.006
99.6924
98.3862
97.0868
95.7942
94.5083
93.2289
91.9558
90.6891
89.4285
88.1738
86.925
85.682
84.4446
83.2126
81.986
80.7646
79.5484
78.3372
77.131
75.9296
74.7331
73.5412
72.3539
71.1712
69.9929
68.8191
67.6496
66.4845
65.3236
64.1669
63.0143
61.8659
60.7216
59.5812
58.4449
57.3125
56.184
55.0593
53.9385
52.8215
51.7082
50.5986
49.4926
48.3904
47.2917
46.1965
45.1049
44.0167
42.9319
41.8505
40.7724
39.6977
38.6261
37.5577
36.4923
35.4301
34.3708
33.3144
32.2609
31.2101
30.1621
29.1167
28.0738
27.0333
25.9953
24.9595
23.9259
22.8944
21.8648
20.8372
19.8113
18.7871
17.7645
16.7433
15.7235
14.7049
13.6875
12.671
11.6555
10.6407
9.62668
8.61317
7.60013
6.58744
5.575
4.56272
3.55045
2.53851
1.52512
0.525096
150.241
145.635
143.706
141.917
140.205
138.506
136.841
135.215
133.622
132.055
130.511
128.986
127.481
125.991
124.517
123.057
121.609
120.173
118.749
117.334
115.929
114.534
113.147
111.768
110.397
109.033
107.677
106.329
104.987
103.653
102.326
101.006
99.6925
98.3863
97.0869
95.7944
94.5084
93.229
91.9559
90.6892
89.4286
88.1739
86.9251
85.6821
84.4446
83.2127
81.986
80.7647
79.5485
78.3373
77.131
75.9297
74.7331
73.5412
72.3539
71.1712
69.9929
68.8191
67.6496
66.4845
65.3236
64.1669
63.0144
61.8659
60.7216
59.5812
58.4449
57.3125
56.184
55.0593
53.9385
52.8215
51.7082
50.5986
49.4926
48.3904
47.2917
46.1965
45.1049
44.0167
42.9319
41.8505
40.7724
39.6976
38.6261
37.5576
36.4923
35.4301
34.3708
33.3144
32.2608
31.2101
30.1621
29.1166
28.0737
27.0333
25.9952
24.9595
23.9258
22.8943
21.8648
20.8371
19.8113
18.7871
17.7645
16.7433
15.7235
14.7049
13.6874
12.671
11.6555
10.6407
9.62664
8.61314
7.6001
6.58741
5.57497
4.56269
3.55042
2.53849
1.52509
0.525071
150.218
145.645
143.708
141.919
140.207
138.509
136.843
135.217
133.624
132.056
130.512
128.987
127.481
125.992
124.518
123.057
121.61
120.174
118.749
117.335
115.93
114.534
113.147
111.768
110.397
109.034
107.678
106.329
104.988
103.653
102.326
101.006
99.6927
98.3865
97.0871
95.7945
94.5085
93.2291
91.9561
90.6893
89.4287
88.174
86.9252
85.6822
84.4447
83.2127
81.9861
80.7648
79.5485
78.3373
77.1311
75.9297
74.7331
73.5412
72.3539
71.1712
69.993
68.8191
67.6496
66.4845
65.3236
64.1669
63.0144
61.866
60.7216
59.5812
58.4448
57.3125
56.184
55.0593
53.9385
52.8215
51.7082
50.5986
49.4926
48.3904
47.2917
46.1965
45.1048
44.0167
42.9319
41.8505
40.7724
39.6976
38.626
37.5576
36.4923
35.43
34.3707
33.3144
32.2608
31.2101
30.162
29.1166
28.0737
27.0333
25.9952
24.9594
23.9258
22.8943
21.8647
20.8371
19.8112
18.787
17.7644
16.7433
15.7234
14.7049
13.6874
12.671
11.6554
10.6407
9.62661
8.6131
7.60006
6.58738
5.57494
4.56266
3.55038
2.53845
1.52506
0.525039
150.191
145.655
143.709
141.921
140.209
138.511
136.845
135.219
133.625
132.058
130.513
128.989
127.483
125.993
124.519
123.058
121.61
120.175
118.75
117.335
115.93
114.535
113.147
111.769
110.397
109.034
107.678
106.329
104.988
103.654
102.326
101.006
99.6929
98.3867
97.0873
95.7947
94.5087
93.2293
91.9562
90.6894
89.4288
88.1741
86.9253
85.6823
84.4448
83.2128
81.9862
80.7648
79.5486
78.3374
77.1311
75.9298
74.7332
73.5413
72.354
71.1713
69.993
68.8192
67.6497
66.4845
65.3236
64.1669
63.0144
61.866
60.7216
59.5812
58.4448
57.3125
56.184
55.0593
53.9385
52.8214
51.7081
50.5986
49.4926
48.3903
47.2916
46.1965
45.1048
44.0166
42.9319
41.8505
40.7724
39.6976
38.626
37.5576
36.4922
35.43
34.3707
33.3143
32.2608
31.21
30.162
29.1166
28.0736
27.0332
25.9952
24.9594
23.9257
22.8942
21.8647
20.8371
19.8112
18.787
17.7644
16.7432
15.7234
14.7048
13.6874
12.6709
11.6554
10.6406
9.62656
8.61306
7.60002
6.58733
5.57489
4.56262
3.55034
2.53841
1.52502
0.524996
150.161
145.667
143.711
141.923
140.211
138.513
136.847
135.221
133.627
132.06
130.515
128.99
127.484
125.994
124.52
123.059
121.611
120.175
118.75
117.336
115.931
114.535
113.148
111.769
110.398
109.035
107.678
106.33
104.988
103.654
102.327
101.006
99.6932
98.387
97.0876
95.7949
94.5089
93.2295
91.9564
90.6896
89.429
88.1743
86.9255
85.6824
84.4449
83.213
81.9863
80.7649
79.5487
78.3375
77.1312
75.9299
74.7332
73.5413
72.354
71.1713
69.993
68.8192
67.6497
66.4846
65.3237
64.167
63.0144
61.866
60.7216
59.5812
58.4449
57.3125
56.184
55.0593
53.9385
52.8214
51.7081
50.5985
49.4926
48.3903
47.2916
46.1965
45.1048
44.0166
42.9318
41.8504
40.7723
39.6975
38.626
37.5575
36.4922
35.4299
34.3706
33.3143
32.2607
31.21
30.1619
29.1165
28.0736
27.0332
25.9951
24.9593
23.9257
22.8942
21.8646
20.837
19.8111
18.7869
17.7643
16.7432
15.7233
14.7048
13.6873
12.6709
11.6553
10.6406
9.62651
8.61301
7.59996
6.58728
5.57484
4.56257
3.55029
2.53836
1.52497
0.524938
150.125
145.68
143.712
141.924
140.212
138.515
136.849
135.223
133.629
132.061
130.516
128.992
127.485
125.996
124.521
123.06
121.612
120.176
118.751
117.337
115.932
114.536
113.149
111.77
110.399
109.035
107.679
106.33
104.989
103.654
102.327
101.007
99.6936
98.3873
97.0879
95.7952
94.5092
93.2298
91.9567
90.6899
89.4292
88.1745
86.9257
85.6826
84.4451
83.2131
81.9865
80.7651
79.5488
78.3376
77.1313
75.93
74.7333
73.5414
72.3541
71.1714
69.9931
68.8193
67.6498
66.4846
65.3237
64.167
63.0144
61.866
60.7216
59.5813
58.4449
57.3125
56.184
55.0593
53.9385
52.8214
51.7081
50.5985
49.4926
48.3903
47.2916
46.1964
45.1048
44.0166
42.9318
41.8504
40.7723
39.6975
38.6259
37.5575
36.4921
35.4299
34.3706
33.3142
32.2607
31.2099
30.1619
29.1164
28.0735
27.0331
25.995
24.9593
23.9256
22.8941
21.8646
20.8369
19.8111
18.7869
17.7643
16.7431
15.7233
14.7047
13.6872
12.6708
11.6553
10.6405
9.62644
8.61294
7.5999
6.58722
5.57478
4.56251
3.55023
2.5383
1.52492
0.524858
150.084
145.697
143.713
141.925
140.213
138.516
136.85
135.224
133.631
132.063
130.518
128.993
127.487
125.997
124.522
123.062
121.614
120.178
118.752
117.338
115.933
114.537
113.15
111.771
110.399
109.036
107.68
106.331
104.989
103.655
102.328
101.007
99.6941
98.3878
97.0883
95.7956
94.5096
93.2301
91.957
90.6902
89.4295
88.1748
86.9259
85.6828
84.4453
83.2133
81.9866
80.7653
79.549
78.3378
77.1315
75.9301
74.7335
73.5415
72.3542
71.1715
69.9932
68.8194
67.6498
66.4847
65.3238
64.1671
63.0145
61.866
60.7217
59.5813
58.4449
57.3125
56.184
55.0593
53.9385
52.8214
51.7081
50.5985
49.4926
48.3903
47.2916
46.1964
45.1047
44.0166
42.9318
41.8504
40.7722
39.6975
38.6259
37.5574
36.4921
35.4298
34.3705
33.3142
32.2606
31.2099
30.1618
29.1164
28.0735
27.0331
25.995
24.9592
23.9256
22.8941
21.8645
20.8369
19.811
18.7868
17.7642
16.743
15.7232
14.7046
13.6872
12.6707
11.6552
10.6404
9.62637
8.61287
7.59983
6.58715
5.57471
4.56244
3.55016
2.53823
1.52485
0.524748
150.036
145.716
143.714
141.926
140.214
138.517
136.851
135.226
133.633
132.065
130.52
128.995
127.489
125.999
124.524
123.063
121.615
120.179
118.754
117.339
115.934
114.538
113.151
111.772
110.4
109.037
107.681
106.332
104.99
103.656
102.328
101.008
99.6947
98.3883
97.0888
95.7961
94.5101
93.2305
91.9574
90.6906
89.4298
88.1751
86.9262
85.6831
84.4456
83.2136
81.9869
80.7655
79.5492
78.338
77.1317
75.9303
74.7337
73.5417
72.3544
71.1716
69.9933
68.8195
67.65
66.4848
65.3239
64.1672
63.0146
61.8661
60.7217
59.5814
58.4449
57.3125
56.184
55.0594
53.9385
52.8215
51.7081
50.5985
49.4926
48.3903
47.2916
46.1964
45.1047
44.0165
42.9317
41.8503
40.7722
39.6974
38.6258
37.5574
36.4921
35.4298
34.3705
33.3141
32.2605
31.2098
30.1618
29.1163
28.0734
27.033
25.9949
24.9591
23.9255
22.894
21.8644
20.8368
19.8109
18.7867
17.7641
16.7429
15.7231
14.7045
13.6871
12.6706
11.6551
10.6404
9.62629
8.61279
7.59975
6.58707
5.57463
4.56236
3.55009
2.53815
1.52478
0.524596
149.981
145.738
143.715
141.927
140.215
138.518
136.852
135.227
133.634
132.066
130.522
128.997
127.491
126.001
124.526
123.065
121.617
120.18
118.755
117.34
115.935
114.539
113.152
111.773
110.401
109.038
107.682
106.333
104.991
103.656
102.329
101.009
99.6954
98.389
97.0895
95.7968
94.5107
93.2311
91.9579
90.6911
89.4303
88.1756
86.9267
85.6836
84.446
83.214
81.9873
80.7658
79.5495
78.3383
77.132
75.9306
74.7339
73.5419
72.3546
71.1718
69.9935
68.8197
67.6501
66.485
65.324
64.1673
63.0147
61.8662
60.7218
59.5815
58.445
57.3126
56.1841
55.0594
53.9385
52.8215
51.7082
50.5986
49.4926
48.3903
47.2916
46.1964
45.1047
44.0165
42.9317
41.8503
40.7722
39.6974
38.6258
37.5574
36.492
35.4298
34.3704
33.3141
32.2605
31.2098
30.1617
29.1163
28.0733
27.0329
25.9948
24.959
23.9254
22.8939
21.8644
20.8367
19.8108
18.7866
17.764
16.7428
15.723
14.7045
13.687
12.6706
11.655
10.6403
9.6262
8.6127
7.59966
6.58698
5.57454
4.56227
3.55
2.53806
1.52469
0.524385
149.917
145.765
143.717
141.928
140.216
138.518
136.853
135.227
133.634
132.067
130.523
128.998
127.492
126.002
124.527
123.067
121.618
120.182
118.757
117.342
115.937
114.541
113.153
111.774
110.403
109.039
107.683
106.334
104.992
103.657
102.33
101.01
99.6963
98.3899
97.0903
95.7975
94.5114
93.2318
91.9586
90.6917
89.4309
88.1762
86.9272
85.6841
84.4465
83.2144
81.9877
80.7663
79.5499
78.3387
77.1323
75.9309
74.7342
73.5423
72.3549
71.1721
69.9938
68.8199
67.6504
66.4852
65.3242
64.1675
63.0149
61.8664
60.722
59.5816
58.4452
57.3128
56.1842
55.0595
53.9386
52.8216
51.7083
50.5986
49.4926
48.3904
47.2916
46.1964
45.1047
44.0166
42.9318
41.8503
40.7722
39.6974
38.6258
37.5574
36.492
35.4297
34.3704
33.314
32.2605
31.2097
30.1616
29.1162
28.0733
27.0329
25.9948
24.959
23.9253
22.8938
21.8643
20.8366
19.8107
18.7866
17.7639
16.7428
15.7229
14.7044
13.6869
12.6705
11.6549
10.6402
9.62611
8.61261
7.59957
6.58688
5.57445
4.56217
3.5499
2.53796
1.5246
0.52409
149.843
145.795
143.718
141.93
140.217
138.519
136.853
135.228
133.635
132.068
130.523
128.999
127.493
126.003
124.529
123.068
121.62
120.184
118.759
117.344
115.938
114.542
113.155
111.776
110.404
109.04
107.684
106.335
104.993
103.659
102.331
101.011
99.6974
98.3909
97.0913
95.7985
94.5123
93.2327
91.9595
90.6925
89.4317
88.1769
86.9279
85.6848
84.4472
83.2151
81.9883
80.7668
79.5505
78.3392
77.1328
75.9314
74.7347
73.5427
72.3553
71.1725
69.9942
68.8203
67.6507
66.4855
65.3245
64.1678
63.0151
61.8667
60.7222
59.5818
58.4454
57.313
56.1844
55.0597
53.9388
52.8217
51.7084
50.5988
49.4928
48.3905
47.2917
46.1965
45.1048
44.0166
42.9318
41.8504
40.7722
39.6974
38.6258
37.5574
36.492
35.4297
34.3704
33.314
32.2604
31.2097
30.1616
29.1162
28.0733
27.0328
25.9947
24.9589
23.9253
22.8938
21.8642
20.8366
19.8107
18.7865
17.7639
16.7427
15.7229
14.7043
13.6868
12.6704
11.6548
10.6401
9.62601
8.61251
7.59947
6.58678
5.57435
4.56207
3.5498
2.53784
1.52449
0.523678
149.759
145.83
143.72
141.931
140.219
138.52
136.854
135.228
133.635
132.068
130.523
128.999
127.493
126.004
124.529
123.069
121.621
120.185
118.76
117.345
115.94
114.544
113.156
111.777
110.406
109.042
107.686
106.337
104.995
103.66
102.333
101.012
99.6987
98.3922
97.0925
95.7997
94.5134
93.2338
91.9605
90.6935
89.4327
88.1778
86.9288
85.6856
84.448
83.2158
81.9891
80.7676
79.5512
78.3399
77.1335
75.932
74.7353
73.5433
72.3558
71.173
69.9947
68.8207
67.6512
66.4859
65.3249
64.1682
63.0155
61.867
60.7226
59.5822
58.4457
57.3133
56.1847
55.06
53.9391
52.822
51.7086
50.599
49.493
48.3907
47.2919
46.1967
45.105
44.0168
42.9319
41.8505
40.7724
39.6975
38.6259
37.5575
36.4921
35.4298
34.3705
33.3141
32.2605
31.2097
30.1616
29.1162
28.0733
27.0328
25.9947
24.9589
23.9253
22.8937
21.8642
20.8365
19.8106
18.7864
17.7638
16.7426
15.7228
14.7042
13.6868
12.6703
11.6548
10.64
9.62593
8.61242
7.59938
6.58669
5.57425
4.56197
3.5497
2.53773
1.52439
0.523102
149.664
145.87
143.722
141.933
140.221
138.521
136.855
135.229
133.636
132.068
130.524
128.999
127.493
126.004
124.53
123.069
121.621
120.186
118.761
117.346
115.941
114.545
113.158
111.779
110.407
109.043
107.687
106.338
104.996
103.662
102.334
101.014
99.7001
98.3936
97.0939
95.801
94.5148
93.235
91.9617
90.6947
89.4338
88.1789
86.9299
85.6867
84.449
83.2168
81.99
80.7685
79.5521
78.3407
77.1343
75.9328
74.736
73.544
72.3566
71.1737
69.9953
68.8214
67.6518
66.4865
65.3255
64.1687
63.0161
61.8675
60.7231
59.5826
58.4462
57.3137
56.1851
55.0604
53.9394
52.8223
51.709
50.5993
49.4933
48.391
47.2922
46.197
45.1052
44.017
42.9322
41.8507
40.7726
39.6977
38.6261
37.5576
36.4922
35.4299
34.3706
33.3142
32.2606
31.2098
30.1617
29.1163
28.0733
27.0329
25.9948
24.959
23.9253
22.8938
21.8642
20.8365
19.8106
18.7864
17.7638
16.7426
15.7228
14.7042
13.6867
12.6703
11.6547
10.6399
9.62587
8.61236
7.59931
6.58661
5.57417
4.56189
3.54961
2.53761
1.52429
0.522302
149.558
145.914
143.725
141.935
140.223
138.523
136.856
135.23
133.636
132.069
130.524
129
127.494
126.004
124.53
123.069
121.622
120.186
118.761
117.346
115.941
114.546
113.158
111.779
110.408
109.045
107.688
106.34
104.998
103.663
102.336
101.015
99.7017
98.3951
97.0954
95.8025
94.5162
93.2365
91.9631
90.6961
89.4352
88.1803
86.9312
85.6879
84.4502
83.218
81.9911
80.7696
79.5531
78.3418
77.1353
75.9338
74.737
73.5449
72.3575
71.1746
69.9962
68.8222
67.6526
66.4873
65.3263
64.1694
63.0168
61.8682
60.7237
59.5833
58.4468
57.3143
56.1857
55.0609
53.94
52.8229
51.7095
50.5998
49.4937
48.3914
47.2926
46.1974
45.1056
44.0174
42.9325
41.8511
40.7729
39.698
38.6264
37.5579
36.4925
35.4302
34.3708
33.3144
32.2608
31.21
30.1619
29.1164
28.0735
27.033
25.9949
24.9591
23.9254
22.8939
21.8643
20.8366
19.8107
18.7865
17.7638
16.7427
15.7228
14.7042
13.6867
12.6703
11.6547
10.6399
9.62585
8.61233
7.59927
6.58657
5.57412
4.56183
3.54954
2.53752
1.5242
0.521193
149.441
145.961
143.728
141.937
140.226
138.525
136.857
135.231
133.637
132.07
130.525
129
127.494
126.005
124.53
123.07
121.622
120.186
118.761
117.346
115.942
114.546
113.159
111.78
110.409
109.045
107.689
106.34
104.999
103.664
102.337
101.016
99.7031
98.3966
97.0969
95.8041
94.5178
93.238
91.9647
90.6976
89.4367
88.1817
86.9326
85.6893
84.4516
83.2194
81.9925
80.7709
79.5544
78.343
77.1365
75.935
74.7382
73.5461
72.3586
71.1757
69.9972
68.8232
67.6536
66.4883
65.3272
64.1704
63.0177
61.8691
60.7246
59.5841
58.4476
57.3151
56.1864
55.0617
53.9407
52.8236
51.7101
50.6004
49.4944
48.392
47.2932
46.198
45.1062
44.0179
42.9331
41.8516
40.7734
39.6985
38.6268
37.5583
36.4929
35.4306
34.3712
33.3148
32.2612
31.2104
30.1622
29.1168
28.0738
27.0333
25.9952
24.9593
23.9257
22.8941
21.8645
20.8368
19.8109
18.7867
17.764
16.7428
15.7229
14.7043
13.6868
12.6704
11.6548
10.64
9.62591
8.61238
7.59931
6.5866
5.57414
4.56183
3.54954
2.53747
1.52415
0.519673
149.314
146.011
143.732
141.939
140.229
138.527
136.859
135.232
133.639
132.071
130.526
129.001
127.495
126.005
124.531
123.07
121.622
120.186
118.761
117.347
115.942
114.546
113.159
111.78
110.409
109.045
107.689
106.34
104.999
103.664
102.337
101.017
99.7037
98.3974
97.0978
95.8051
94.519
93.2393
91.9661
90.6991
89.4382
88.1833
86.9342
85.6909
84.4532
83.2209
81.994
80.7724
79.5559
78.3445
77.138
75.9364
74.7395
73.5474
72.3599
71.177
69.9985
68.8245
67.6548
66.4895
65.3284
64.1715
63.0188
61.8702
60.7257
59.5852
58.4486
57.3161
56.1874
55.0626
53.9416
52.8245
51.711
50.6013
49.4952
48.3928
47.294
46.1987
45.107
44.0187
42.9338
41.8523
40.7741
39.6992
38.6275
37.559
36.4935
35.4312
34.3718
33.3153
32.2617
31.2109
30.1627
29.1172
28.0742
27.0337
25.9956
24.9597
23.926
22.8945
21.8649
20.8372
19.8112
18.787
17.7643
16.7431
15.7232
14.7046
13.6871
12.6706
11.655
10.6402
9.62607
8.61253
7.59944
6.58672
5.57424
4.56192
3.54961
2.53749
1.52414
0.517616
149.18
146.062
143.737
141.94
140.232
138.53
136.861
135.234
133.64
132.072
130.527
129.002
127.496
126.006
124.531
123.071
121.623
120.187
118.762
117.347
115.942
114.546
113.159
111.78
110.409
109.045
107.689
106.34
104.999
103.665
102.337
101.017
99.7038
98.3975
97.098
95.8053
94.5193
93.2397
91.9666
90.6997
89.4389
88.1841
86.9352
85.692
84.4544
83.2222
81.9954
80.7738
79.5574
78.346
77.1395
75.9379
74.7411
73.549
72.3614
71.1785
70
68.8259
67.6562
66.4909
65.3298
64.1729
63.0201
61.8715
60.727
59.5864
58.4499
57.3173
56.1886
55.0638
53.9428
52.8256
51.7122
50.6024
49.4963
48.3939
47.2951
46.1998
45.108
44.0197
42.9347
41.8532
40.775
39.7001
38.6284
37.5598
36.4944
35.432
34.3726
33.3161
32.2624
31.2116
30.1635
29.1179
28.0749
27.0344
25.9962
24.9603
23.9266
22.895
21.8654
20.8377
19.8117
18.7875
17.7648
16.7435
15.7236
14.705
13.6874
12.6709
11.6553
10.6405
9.62638
8.61282
7.59971
6.58697
5.57447
4.56214
3.5498
2.53761
1.52421
0.514895
149.046
146.112
143.743
141.941
140.235
138.532
136.863
135.235
133.641
132.073
130.528
129.003
127.497
126.007
124.532
123.071
121.623
120.187
118.762
117.348
115.942
114.547
113.159
111.78
110.409
109.046
107.69
106.341
104.999
103.665
102.337
101.017
99.704
98.3977
97.0982
95.8055
94.5194
93.2398
91.9667
90.6998
89.439
88.1843
86.9354
85.6922
84.4547
83.2226
81.9959
80.7744
79.5581
78.3468
77.1404
75.9389
74.7422
73.5502
72.3627
71.1799
70.0014
68.8274
67.6578
66.4924
65.3314
64.1745
63.0217
61.8731
60.7285
59.5879
58.4514
57.3188
56.1901
55.0652
53.9442
52.827
51.7135
50.6037
49.4976
48.3952
47.2963
46.201
45.1092
44.0209
42.9359
41.8544
40.7761
39.7012
38.6295
37.5609
36.4955
35.4331
34.3736
33.3171
32.2634
31.2126
30.1644
29.1189
28.0758
27.0353
25.9971
24.9612
23.9275
22.8958
21.8662
20.8384
19.8125
18.7882
17.7654
16.7442
15.7242
14.7056
13.688
12.6715
11.6559
10.641
9.62687
8.61328
7.60016
6.58739
5.57487
4.56251
3.55015
2.53787
1.52437
0.511403
148.918
146.157
143.75
141.942
140.238
138.535
136.864
135.237
133.643
132.074
130.529
129.004
127.497
126.008
124.533
123.072
121.624
120.188
118.763
117.348
115.943
114.547
113.16
111.781
110.41
109.046
107.69
106.341
105
103.665
102.338
101.018
99.7043
98.398
97.0984
95.8057
94.5196
93.2401
91.9669
90.7
89.4392
88.1845
86.9355
85.6924
84.4548
83.2227
81.996
80.7745
79.5582
78.3469
77.1405
75.9391
74.7424
73.5504
72.363
71.1802
70.0019
68.828
67.6584
66.4932
65.3322
64.1754
63.0227
61.8742
60.7297
59.5893
58.4528
57.3202
56.1916
55.0668
53.9458
52.8286
51.7151
50.6053
49.4992
48.3968
47.2979
46.2025
45.1107
44.0223
42.9374
41.8558
40.7775
39.7026
38.6308
37.5622
36.4967
35.4343
34.3749
33.3183
32.2647
31.2138
30.1656
29.12
28.077
27.0364
25.9982
24.9622
23.9285
22.8968
21.8672
20.8394
19.8134
18.7891
17.7663
16.745
15.7251
14.7064
13.6888
12.6723
11.6566
10.6417
9.62756
8.61395
7.6008
6.588
5.57546
4.56307
3.55068
2.5383
1.52464
0.507162
148.81
146.193
143.757
141.942
140.241
138.537
136.866
135.238
133.644
132.075
130.53
129.005
127.498
126.008
124.533
123.073
121.625
120.188
118.763
117.349
115.943
114.547
113.16
111.781
110.41
109.046
107.69
106.341
105
103.665
102.338
101.018
99.7046
98.3983
97.0988
95.806
94.5199
93.2403
91.9672
90.7002
89.4395
88.1847
86.9357
85.6926
84.455
83.2229
81.9961
80.7747
79.5583
78.347
77.1407
75.9392
74.7425
73.5505
72.3631
71.1803
70.002
68.8281
67.6585
66.4933
65.3323
64.1755
63.0228
61.8743
60.7299
59.5895
58.453
57.3205
56.192
55.0672
53.9463
52.8292
51.7158
50.6062
49.5001
48.3978
47.299
46.2037
45.1119
44.0236
42.9388
41.8572
40.779
39.7041
38.6323
37.5638
36.4983
35.4359
34.3764
33.3199
32.2662
31.2153
30.1671
29.1215
28.0784
27.0378
25.9996
24.9636
23.9298
22.8981
21.8684
20.8406
19.8146
18.7902
17.7675
16.7461
15.7261
14.7074
13.6898
12.6732
11.6575
10.6426
9.62843
8.61479
7.60161
6.58879
5.57622
4.56381
3.55139
2.53891
1.52504
0.50252
148.742
146.215
143.762
141.942
140.243
138.539
136.867
135.239
133.644
132.076
130.53
129.005
127.499
126.009
124.534
123.073
121.625
120.189
118.764
117.349
115.944
114.548
113.16
111.781
110.41
109.047
107.691
106.342
105
103.666
102.338
101.018
99.7049
98.3985
97.099
95.8062
94.5201
93.2406
91.9674
90.7005
89.4397
88.1849
86.9359
85.6928
84.4552
83.2231
81.9963
80.7748
79.5585
78.3472
77.1408
75.9393
74.7426
73.5506
72.3632
71.1804
70.0021
68.8282
67.6586
66.4934
65.3324
64.1756
63.023
61.8744
60.73
59.5896
58.4531
57.3206
56.192
55.0673
53.9464
52.8293
51.7159
50.6062
49.5002
48.3978
47.299
46.2038
45.1121
44.0238
42.9389
41.8574
40.7793
39.7044
38.6327
37.5642
36.4988
35.4364
34.377
33.3205
32.2669
31.216
30.1679
29.1223
28.0793
27.0387
26.0005
24.9646
23.9309
22.8992
21.8695
20.8417
19.8157
18.7914
17.7686
16.7473
15.7273
14.7086
13.691
12.6744
11.6587
10.6438
9.62953
8.61587
7.60267
6.58983
5.57723
4.56479
3.55235
2.53979
1.52573
0.498958
148.742
146.215
143.762
141.942
140.243
138.539
136.867
135.239
133.644
132.076
130.53
129.005
127.499
126.009
124.534
123.073
121.625
120.189
118.764
117.349
115.944
114.548
113.16
111.781
110.41
109.047
107.691
106.342
105
103.666
102.338
101.018
99.7049
98.3985
97.099
95.8062
94.5201
93.2406
91.9674
90.7005
89.4397
88.1849
86.9359
85.6928
84.4552
83.2231
81.9963
80.7748