/*--------------------------------*- C++ -*----------------------------------*\
  =========                 |
  \\      /  F ield         | OpenFOAM: The Open Source CFD Toolbox
   \\    /   O peration     | Website:  https://openfoam.org
    \\  /    A nd           | Version:  8
     \\/     M anipulation  |
\*---------------------------------------------------------------------------*/
FoamFile
{
    version     2.0;
    format      ascii;
    class       surfaceScalarField;
    location    "500";
    object      phi;
}
// * * * * * * * * * * * * * * * * * * * * * * * * * * * * * * * * * * * * * //

dimensions      [0 3 -1 0 0 0 0];

internalField   nonuniform List<scalar> 
14458
(
0.00222126
0.00139905
0.00205682
0.000164436
0.00198942
6.74027e-05
0.00194726
4.21601e-05
0.00191671
3.05459e-05
0.00189296
2.37468e-05
0.00187368
1.92747e-05
0.00185758
1.6099e-05
0.00184386
1.37244e-05
0.00183197
1.18861e-05
0.00182154
1.04218e-05
0.00181231
9.23218e-06
0.00180406
8.24613e-06
0.00179664
7.41659e-06
0.00178993
6.70817e-06
0.00178383
6.09912e-06
0.00177826
5.56918e-06
0.00177315
5.1046e-06
0.00176846
4.69096e-06
0.00176413
4.32672e-06
0.00176013
4.00142e-06
0.00175641
3.70999e-06
0.00175297
3.44516e-06
0.00174976
3.20834e-06
0.00174676
2.99331e-06
0.00174396
2.79758e-06
0.00174135
2.61325e-06
0.00173889
2.44868e-06
0.00173659
2.29634e-06
0.00173444
2.15521e-06
0.00173241
2.02005e-06
0.00173051
1.89734e-06
0.00172873
1.78204e-06
0.00172706
1.67409e-06
0.00172549
1.56574e-06
0.00172401
1.4706e-06
0.00172263
1.38068e-06
0.00172133
1.29642e-06
0.00172012
1.21215e-06
0.00171898
1.13765e-06
0.00171791
1.067e-06
0.00171691
1.0008e-06
0.00171598
9.2976e-07
0.0017151
8.71242e-07
0.00171429
8.15508e-07
0.00171352
7.63423e-07
0.00171281
7.08213e-07
0.00171215
6.61992e-07
0.00171153
6.17657e-07
0.00171096
5.76218e-07
0.00171043
5.26918e-07
0.00170993
4.90097e-07
0.00170948
4.54497e-07
0.00170906
4.21386e-07
0.00170867
3.82923e-07
0.00170832
3.53334e-07
0.001708
3.24416e-07
0.0017077
2.97536e-07
0.00170744
2.60712e-07
0.0017072
2.36704e-07
0.00170698
2.12992e-07
0.0017068
1.91176e-07
0.00170663
1.62784e-07
0.00170649
1.43194e-07
0.00170637
1.2354e-07
0.00170627
1.05414e-07
0.00170618
7.63413e-08
0.00170612
5.99952e-08
0.00170608
4.33766e-08
0.00170606
2.83025e-08
0.00170605
5.8788e-09
0.00170606
-7.83755e-09
0.00170608
-2.20205e-08
0.00170612
-3.49125e-08
0.00170618
-5.90896e-08
0.00170625
-7.07347e-08
0.00170633
-8.30113e-08
0.00170643
-9.3981e-08
0.00170654
-1.1227e-07
0.00170667
-1.22321e-07
0.0017068
-1.33097e-07
0.00170695
-1.4278e-07
0.00170711
-1.63277e-07
0.00170729
-1.7211e-07
0.00170747
-1.81721e-07
0.00170767
-1.90183e-07
0.00170787
-2.05599e-07
0.00170809
-2.13428e-07
0.00170831
-2.22036e-07
0.00170855
-2.29677e-07
0.00170879
-2.47157e-07
0.00170905
-2.54133e-07
0.00170931
-2.61843e-07
0.00170959
-2.68511e-07
0.00170987
-2.81065e-07
0.00171016
-2.87173e-07
0.00171046
-2.93932e-07
0.00171076
-2.99805e-07
0.00171107
-3.1337e-07
0.00171139
-3.18591e-07
0.00171172
-3.24347e-07
0.00171206
-3.29153e-07
0.0017124
-3.38284e-07
0.00171274
-3.42442e-07
0.00171309
-3.46957e-07
0.00171345
-3.50654e-07
0.00171381
-3.59132e-07
0.00171417
-3.62064e-07
0.00171454
-3.65169e-07
0.00171492
-3.67439e-07
0.00171529
-3.71722e-07
0.00171567
-3.7319e-07
0.00171605
-3.74632e-07
0.00171643
-3.75349e-07
0.00171681
-3.76817e-07
0.00171719
-3.76705e-07
0.00171757
-3.76474e-07
0.00171795
-3.75348e-07
0.00171833
-3.73337e-07
0.0017187
-3.64987e-07
0.00171906
-3.65517e-07
-1.95217e-07
0.00311152
0.00259572
0.00288393
0.000392017
0.00278399
0.000167349
0.00272314
0.000103003
0.0026798
7.38884e-05
0.0026464
5.71429e-05
0.00261943
4.62452e-05
0.00259697
3.85544e-05
0.00257787
3.2826e-05
0.00256135
2.84028e-05
0.00254689
2.48879e-05
0.00253408
2.20349e-05
0.00252265
1.96729e-05
0.00251238
1.76875e-05
0.00250309
1.59943e-05
0.00249465
1.45384e-05
0.00248695
1.32723e-05
0.00247989
1.21628e-05
0.0024734
1.1178e-05
0.00246742
1.03086e-05
0.00246189
9.53248e-06
0.00245676
8.83706e-06
0.00245199
8.20726e-06
0.00244756
7.64207e-06
0.00244342
7.12891e-06
0.00243956
6.66144e-06
0.00243594
6.22524e-06
0.00243256
5.8317e-06
0.00242939
5.46739e-06
0.00242641
5.12946e-06
0.00242362
4.80874e-06
0.002421
4.51462e-06
0.00241855
4.23844e-06
0.00241624
3.97954e-06
0.00241408
3.72543e-06
0.00241205
3.49713e-06
0.00241015
3.28163e-06
0.00240836
3.07931e-06
0.00240669
2.88109e-06
0.00240513
2.70209e-06
0.00240366
2.53266e-06
0.00240229
2.37349e-06
0.00240101
2.20991e-06
0.00239981
2.06901e-06
0.00239869
1.93515e-06
0.00239764
1.8095e-06
0.00239667
1.68137e-06
0.00239576
1.56963e-06
0.00239491
1.46288e-06
0.00239413
1.36249e-06
0.0023934
1.25164e-06
0.00239273
1.16218e-06
0.00239211
1.07614e-06
0.00239153
9.95396e-07
0.00239101
9.07687e-07
0.00239052
8.35254e-07
0.00239008
7.65031e-07
0.00238969
6.99015e-07
0.00238932
6.18531e-07
0.002389
5.59284e-07
0.00238871
5.01368e-07
0.00238846
4.47225e-07
0.00238824
3.83659e-07
0.00238804
3.34741e-07
0.00238788
2.86385e-07
0.00238775
2.40952e-07
0.00238764
1.79031e-07
0.00238757
1.3781e-07
0.00238751
9.66636e-08
0.00238748
5.8375e-08
0.00238748
9.12323e-09
0.0023875
-2.5902e-08
0.00238754
-6.1242e-08
0.0023876
-9.42713e-08
0.00238769
-1.44531e-07
0.00238779
-1.7461e-07
0.00238791
-2.05391e-07
0.00238806
-2.33876e-07
0.00238822
-2.73456e-07
0.00238839
-2.9974e-07
0.00238859
-3.26907e-07
0.0023888
-3.5221e-07
0.00238903
-3.94149e-07
0.00238928
-4.17397e-07
0.00238954
-4.41677e-07
0.00238982
-4.64009e-07
0.00239011
-4.96963e-07
0.00239041
-5.17732e-07
0.00239073
-5.39526e-07
0.00239107
-5.59706e-07
0.00239141
-5.95061e-07
0.00239177
-6.13589e-07
0.00239215
-6.33095e-07
0.00239253
-6.50828e-07
0.00239293
-6.77525e-07
0.00239333
-6.93831e-07
0.00239375
-7.10945e-07
0.00239418
-7.26522e-07
0.00239462
-7.53887e-07
0.00239507
-7.67789e-07
0.00239553
-7.82293e-07
0.002396
-7.95088e-07
0.00239648
-8.14346e-07
0.00239696
-8.25445e-07
0.00239746
-8.36788e-07
0.00239796
-8.46585e-07
0.00239846
-8.63546e-07
0.00239897
-8.7134e-07
0.00239949
-8.79013e-07
0.00240001
-8.85052e-07
0.00240053
-8.93862e-07
0.00240106
-8.97786e-07
0.00240159
-9.01144e-07
0.00240212
-9.03056e-07
0.00240265
-9.0593e-07
0.00240318
-9.05632e-07
0.00240371
-9.04447e-07
0.00240424
-9.01488e-07
0.00240477
-8.97005e-07
0.00240528
-8.75937e-07
0.00240579
-8.73033e-07
-4.58067e-07
0.00403426
0.00368821
0.00373892
0.000687358
0.00360103
0.00030524
0.00351841
0.000185625
0.00346051
0.000131788
0.00341635
0.000101298
0.00338092
8.16753e-05
0.00335155
6.79283e-05
0.00332663
5.77384e-05
0.00330514
4.98966e-05
0.00328634
4.3682e-05
0.00326973
3.8646e-05
0.00325492
3.4483e-05
0.00324162
3.09877e-05
0.0032296
2.80111e-05
0.00321869
2.54525e-05
0.00320873
2.32294e-05
0.00319961
2.1282e-05
0.00319123
1.95574e-05
0.0031835
1.80331e-05
0.00317636
1.66728e-05
0.00316974
1.54541e-05
0.0031636
1.43526e-05
0.00315788
1.33621e-05
0.00315254
1.24627e-05
0.00314756
1.16429e-05
0.0031429
1.08818e-05
0.00313854
1.01909e-05
0.00313446
9.55118e-06
0.00313063
8.95741e-06
0.00312704
8.39675e-06
0.00312367
7.87971e-06
0.00312052
7.39443e-06
0.00311756
6.93937e-06
0.00311478
6.4985e-06
0.00311218
6.0973e-06
0.00310974
5.7189e-06
0.00310746
5.36347e-06
0.00310532
5.01931e-06
0.00310332
4.70485e-06
0.00310144
4.40751e-06
0.00309969
4.12791e-06
0.00309805
3.84765e-06
0.00309651
3.60001e-06
0.00309508
3.36501e-06
0.00309375
3.14401e-06
0.00309251
2.92352e-06
0.00309135
2.72677e-06
0.00309027
2.53911e-06
0.00308927
2.36218e-06
0.00308835
2.1751e-06
0.00308749
2.01714e-06
0.0030867
1.86556e-06
0.00308598
1.72274e-06
0.00308531
1.57336e-06
0.0030847
1.44494e-06
0.00308414
1.32087e-06
0.00308364
1.20364e-06
0.00308319
1.07019e-06
0.00308278
9.64667e-07
0.00308242
8.61965e-07
0.0030821
7.65257e-07
0.00308183
6.58121e-07
0.00308159
5.70416e-07
0.0030814
4.8427e-07
0.00308124
4.02672e-07
0.00308111
3.01685e-07
0.00308102
2.27372e-07
0.00308096
1.53781e-07
0.00308094
8.45145e-08
0.00308095
2.45499e-09
0.00308098
-6.10787e-08
0.00308105
-1.24532e-07
0.00308114
-1.84542e-07
0.00308126
-2.65162e-07
0.0030814
-3.20064e-07
0.00308157
-3.75526e-07
0.00308177
-4.27627e-07
0.00308199
-4.92963e-07
0.00308223
-5.41218e-07
0.0030825
-5.90323e-07
0.00308278
-6.36738e-07
0.00308309
-7.03222e-07
0.00308342
-7.46029e-07
0.00308377
-7.89954e-07
0.00308414
-8.31088e-07
0.00308453
-8.85004e-07
0.00308493
-9.23349e-07
0.00308536
-9.62804e-07
0.0030858
-9.99948e-07
0.00308626
-1.05543e-06
0.00308674
-1.08962e-06
0.00308723
-1.12487e-06
0.00308774
-1.15756e-06
0.00308826
-1.20099e-06
0.0030888
-1.23108e-06
0.00308935
-1.26196e-06
0.00308992
-1.29057e-06
0.0030905
-1.33329e-06
0.00309109
-1.35884e-06
0.00309169
-1.38487e-06
0.00309231
-1.40833e-06
0.00309293
-1.43932e-06
0.00309357
-1.45965e-06
0.00309421
-1.4799e-06
0.00309487
-1.49771e-06
0.00309553
-1.52378e-06
0.00309619
-1.5379e-06
0.00309687
-1.55142e-06
0.00309755
-1.56227e-06
0.00309823
-1.57591e-06
0.00309892
-1.58286e-06
0.00309961
-1.5886e-06
0.0031003
-1.5918e-06
0.00310099
-1.59532e-06
0.00310168
-1.59443e-06
0.00310237
-1.59201e-06
0.00310305
-1.58623e-06
0.00310374
-1.5779e-06
0.0031044
-1.53968e-06
0.00310507
-1.54048e-06
-8.07079e-07
0.00509521
0.00469384
0.00472975
0.00105282
0.00454516
0.000489825
0.00443475
0.000296038
0.00435842
0.000208118
0.00430083
0.000158884
0.00425496
0.000127541
0.00421713
0.000105758
0.00418516
8.97036e-05
0.00415766
7.73986e-05
0.00413366
6.76782e-05
0.00411249
5.98188e-05
0.00409364
5.33342e-05
0.00407673
4.78979e-05
0.00406146
4.32752e-05
0.00404761
3.93052e-05
0.00403498
3.58587e-05
0.00402342
3.28422e-05
0.0040128
3.0175e-05
0.00400302
2.78168e-05
0.00399397
2.57134e-05
0.0039856
2.38294e-05
0.00397782
2.21285e-05
0.00397059
2.05971e-05
0.00396384
1.92063e-05
0.00395755
1.7938e-05
0.00395166
1.67636e-05
0.00394616
1.56937e-05
0.00394101
1.47028e-05
0.00393618
1.37828e-05
0.00393166
1.29166e-05
0.00392742
1.21154e-05
0.00392345
1.13639e-05
0.00391973
1.06592e-05
0.00391625
9.98167e-06
0.00391298
9.36089e-06
0.00390993
8.7759e-06
0.00390706
8.22643e-06
0.00390438
7.698e-06
0.00390188
7.21214e-06
0.00389953
6.75314e-06
0.00389734
6.32137e-06
0.00389529
5.89459e-06
0.00389337
5.51215e-06
0.00389159
5.14954e-06
0.00388993
4.80822e-06
0.00388838
4.47177e-06
0.00388693
4.16769e-06
0.0038856
3.87799e-06
0.00388436
3.60447e-06
0.00388321
3.32212e-06
0.00388214
3.07764e-06
0.00388117
2.84335e-06
0.00388027
2.6221e-06
0.00387944
2.39547e-06
0.00387869
2.19623e-06
0.00387801
2.00412e-06
0.00387739
1.8221e-06
0.00387684
1.62269e-06
0.00387634
1.45849e-06
0.00387591
1.2991e-06
0.00387552
1.14839e-06
0.0038752
9.86716e-07
0.00387492
8.49683e-07
0.00387469
7.15584e-07
0.0038745
5.88009e-07
0.00387436
4.385e-07
0.00387427
3.22008e-07
0.00387422
2.07177e-07
0.0038742
9.84123e-08
0.00387423
-2.4614e-08
0.00387429
-1.24516e-07
0.00387439
-2.23726e-07
0.00387453
-3.18155e-07
0.0038747
-4.36335e-07
0.0038749
-5.22986e-07
0.00387514
-6.0986e-07
0.0038754
-6.92134e-07
0.0038757
-7.89563e-07
0.00387602
-8.65934e-07
0.00387638
-9.42948e-07
0.00387676
-1.01631e-06
0.00387717
-1.11301e-06
0.0038776
-1.18082e-06
0.00387806
-1.24968e-06
0.00387855
-1.31478e-06
0.00387906
-1.39465e-06
0.00387959
-1.4554e-06
0.00388015
-1.51719e-06
0.00388073
-1.57586e-06
0.00388133
-1.65589e-06
0.00388195
-1.70994e-06
0.00388259
-1.76498e-06
0.00388325
-1.81655e-06
0.00388393
-1.88046e-06
0.00388463
-1.92791e-06
0.00388534
-1.97595e-06
0.00388607
-2.02086e-06
0.00388682
-2.08205e-06
0.00388759
-2.12211e-06
0.00388836
-2.16233e-06
0.00388916
-2.19894e-06
0.00388996
-2.24395e-06
0.00389078
-2.27557e-06
0.00389161
-2.30656e-06
0.00389245
-2.33404e-06
0.00389329
-2.3707e-06
0.00389415
-2.3923e-06
0.00389501
-2.41252e-06
0.00389588
-2.42887e-06
0.00389675
-2.44781e-06
0.00389763
-2.45795e-06
0.00389851
-2.46582e-06
0.00389939
-2.46995e-06
0.00390027
-2.47387e-06
0.00390115
-2.47149e-06
0.00390202
-2.46631e-06
0.00390289
-2.45621e-06
0.00390376
-2.44269e-06
0.0039046
-2.38198e-06
0.00390545
-2.37982e-06
-1.24061e-06
0.00634387
0.00561
0.00590982
0.00148687
0.00566913
0.000730509
0.00552327
0.000441899
0.00542325
0.000308143
0.0053485
0.000233629
0.00528942
0.000186622
0.00524096
0.000154215
0.00520019
0.000130477
0.00516522
0.000112367
0.00513478
9.81128e-05
0.00510798
8.66186e-05
0.00508416
7.71564e-05
0.00506282
6.92384e-05
0.00504358
6.25168e-05
0.00502613
5.67507e-05
0.00501024
5.17509e-05
0.0049957
4.7379e-05
0.00498236
4.35192e-05
0.00497006
4.01065e-05
0.00495871
3.70644e-05
0.0049482
3.43405e-05
0.00493845
3.18833e-05
0.00492937
2.96692e-05
0.00492092
2.76577e-05
0.00491304
2.58224e-05
0.00490567
2.41261e-05
0.00489879
2.25764e-05
0.00489235
2.1141e-05
0.00488632
1.98079e-05
0.00488068
1.85557e-05
0.0048754
1.73953e-05
0.00487046
1.63075e-05
0.00486583
1.5288e-05
0.0048615
1.43134e-05
0.00485744
1.34162e-05
0.00485365
1.25715e-05
0.00485009
1.17784e-05
0.00484677
1.10196e-05
0.00484366
1.03189e-05
0.00484076
9.65734e-06
0.00483805
9.03508e-06
0.00483551
8.42645e-06
0.00483315
7.87531e-06
0.00483095
7.35306e-06
0.00482889
6.86123e-06
0.00482698
6.38073e-06
0.00482521
5.94236e-06
0.00482356
5.52498e-06
0.00482204
5.1306e-06
0.00482063
4.73075e-06
0.00481932
4.37786e-06
0.00481813
4.03997e-06
0.00481703
3.72043e-06
0.00481603
3.39812e-06
0.00481511
3.11e-06
0.00481428
2.83251e-06
0.00481354
2.56915e-06
0.00481287
2.28886e-06
0.00481228
2.05084e-06
0.00481176
1.82015e-06
0.0048113
1.60145e-06
0.00481092
1.37233e-06
0.00481059
1.17306e-06
0.00481033
9.78489e-07
0.00481013
7.92917e-07
0.00480998
5.8423e-07
0.00480989
4.14388e-07
0.00480985
2.47452e-07
0.00480986
8.87653e-08
0.00480992
-8.4688e-08
0.00481003
-2.30621e-07
0.00481018
-3.75047e-07
0.00481037
-5.13015e-07
0.00481061
-6.76625e-07
0.00481089
-8.03537e-07
0.00481121
-9.30151e-07
0.00481157
-1.05062e-06
0.00481197
-1.18738e-06
0.00481241
-1.29939e-06
0.00481288
-1.41168e-06
0.00481338
-1.51911e-06
0.00481392
-1.652e-06
0.00481449
-1.75145e-06
0.00481509
-1.85175e-06
0.00481573
-1.94707e-06
0.00481639
-2.05843e-06
0.00481708
-2.14741e-06
0.0048178
-2.23723e-06
0.00481855
-2.32289e-06
0.00481933
-2.43189e-06
0.00482013
-2.51083e-06
0.00482096
-2.59054e-06
0.00482181
-2.66562e-06
0.00482268
-2.75398e-06
0.00482358
-2.82298e-06
0.00482449
-2.89222e-06
0.00482543
-2.95719e-06
0.00482639
-3.03971e-06
0.00482736
-3.09755e-06
0.00482836
-3.15504e-06
0.00482937
-3.20761e-06
0.00483039
-3.26884e-06
0.00483143
-3.31402e-06
0.00483249
-3.3578e-06
0.00483355
-3.39667e-06
0.00483462
-3.44486e-06
0.00483571
-3.47507e-06
0.0048368
-3.50289e-06
0.0048379
-3.52526e-06
0.004839
-3.54952e-06
0.00484011
-3.56274e-06
0.00484121
-3.57251e-06
0.00484232
-3.57686e-06
0.00484343
-3.57967e-06
0.00484453
-3.57445e-06
0.00484563
-3.56525e-06
0.00484673
-3.54877e-06
0.00484781
-3.52747e-06
0.00484887
-3.43789e-06
0.00484993
-3.43893e-06
-1.79217e-06
0.00782498
0.00642447
0.00732969
0.00198217
0.00702383
0.00103637
0.00683327
0.000632453
0.00670272
0.00043869
0.00660586
0.000330492
0.00652983
0.000262652
0.00646783
0.000216219
0.00641588
0.000182418
0.00637149
0.000156756
0.00633297
0.000136639
0.00629912
0.000120466
0.00626909
0.000107187
0.00624223
9.60986e-05
0.00621804
8.67037e-05
0.00619613
7.86559e-05
0.0061762
7.16868e-05
0.00615798
6.56e-05
0.00614126
6.02338e-05
0.00612588
5.5491e-05
0.00611167
5.12659e-05
0.00609853
4.74842e-05
0.00608634
4.4075e-05
0.006075
4.10009e-05
0.00606445
3.82075e-05
0.00605462
3.56576e-05
0.00604544
3.33032e-05
0.00603687
3.11483e-05
0.00602886
2.91519e-05
0.00602136
2.72979e-05
0.00601436
2.55594e-05
0.00600781
2.39466e-05
0.00600168
2.24359e-05
0.00599595
2.1021e-05
0.00599058
1.96742e-05
0.00598557
1.84309e-05
0.00598088
1.72615e-05
0.00597649
1.6164e-05
0.00597239
1.51181e-05
0.00596856
1.41495e-05
0.00596498
1.32358e-05
0.00596164
1.23764e-05
0.00595853
1.15418e-05
0.00595562
1.07809e-05
0.00595291
1.00602e-05
0.00595039
9.38127e-06
0.00594805
8.72191e-06
0.00594587
8.11659e-06
0.00594386
7.54053e-06
0.00594199
6.99592e-06
0.00594027
6.45027e-06
0.00593869
5.96253e-06
0.00593723
5.4958e-06
0.0059359
5.05399e-06
0.00593468
4.61286e-06
0.00593358
4.21406e-06
0.00593258
3.8303e-06
0.00593169
3.46566e-06
0.00593089
3.08495e-06
0.00593018
2.75488e-06
0.00592957
2.43533e-06
0.00592904
2.13184e-06
0.00592859
1.81883e-06
0.00592822
1.54181e-06
0.00592793
1.2718e-06
0.00592771
1.01385e-06
0.00592756
7.31641e-07
0.00592748
4.95101e-07
0.00592747
2.6312e-07
0.00592751
4.21496e-08
0.00592762
-1.93924e-07
0.00592779
-3.97362e-07
0.00592801
-5.98171e-07
0.00592829
-7.90438e-07
0.00592863
-1.01038e-06
0.00592901
-1.18757e-06
0.00592944
-1.36368e-06
0.00592993
-1.53174e-06
0.00593046
-1.71721e-06
0.00593103
-1.87363e-06
0.00593165
-2.02975e-06
0.00593231
-2.17946e-06
0.00593302
-2.35697e-06
0.00593376
-2.49572e-06
0.00593454
-2.63489e-06
0.00593537
-2.76757e-06
0.00593622
-2.91758e-06
0.00593712
-3.04141e-06
0.00593805
-3.16567e-06
0.00593901
-3.28444e-06
0.00594001
-3.42872e-06
0.00594104
-3.53813e-06
0.00594209
-3.64788e-06
0.00594318
-3.75154e-06
0.0059443
-3.86943e-06
0.00594544
-3.96452e-06
0.00594661
-4.05925e-06
0.0059478
-4.1483e-06
0.00594902
-4.25623e-06
0.00595026
-4.33526e-06
0.00595151
-4.41315e-06
0.00595279
-4.48449e-06
0.00595409
-4.56465e-06
0.0059554
-4.62556e-06
0.00595673
-4.68398e-06
0.00595807
-4.73578e-06
0.00595942
-4.79699e-06
0.00596079
-4.83663e-06
0.00596216
-4.8725e-06
0.00596353
-4.90101e-06
0.00596491
-4.93049e-06
0.0059663
-4.9462e-06
0.00596769
-4.95675e-06
0.00596907
-4.95999e-06
0.00597045
-4.96048e-06
0.00597183
-4.95037e-06
0.0059732
-4.93433e-06
0.00597456
-4.90858e-06
0.00597591
-4.87677e-06
0.00597723
-4.75042e-06
0.00597854
-4.74589e-06
-2.46671e-06
0.00958315
0.00712229
0.00904307
0.00252224
0.0086654
0.00141404
0.00841974
0.000878113
0.00825014
0.000608292
0.00812471
0.000455916
0.00802681
0.000360549
0.0079474
0.000295632
0.00788117
0.000248646
0.00782478
0.000213148
0.00777598
0.000185434
0.00773322
0.000163229
0.00769536
0.000145049
0.00766155
0.000129905
0.00763115
0.000117101
0.00760366
0.000106151
0.00757866
9.66829e-05
0.00755583
8.84247e-05
0.00753491
8.11551e-05
0.00751567
7.47337e-05
0.00749792
6.90174e-05
0.0074815
6.39032e-05
0.00746628
5.92954e-05
0.00745214
5.51386e-05
0.00743898
5.13601e-05
0.00742673
4.79098e-05
0.00741531
4.47265e-05
0.00740465
4.18083e-05
0.00739469
3.91048e-05
0.0073854
3.65944e-05
0.00737671
3.42439e-05
0.00736859
3.20623e-05
0.00736101
3.00203e-05
0.00735392
2.81097e-05
0.0073473
2.62977e-05
0.0073411
2.46217e-05
0.00733532
2.30467e-05
0.00732991
2.15699e-05
0.00732486
2.01668e-05
0.00732015
1.88648e-05
0.00731575
1.76375e-05
0.00731164
1.64835e-05
0.00730781
1.53694e-05
0.00730424
1.43478e-05
0.00730092
1.33806e-05
0.00729783
1.24694e-05
0.00729497
1.15887e-05
0.00729231
1.0776e-05
0.00728984
1.00028e-05
0.00728757
9.27158e-06
0.00728547
8.54618e-06
0.00728354
7.89072e-06
0.00728177
7.26377e-06
0.00728016
6.66988e-06
0.00727869
6.08184e-06
0.00727736
5.54522e-06
0.00727616
5.02912e-06
0.00727509
4.53837e-06
0.00727414
4.03412e-06
0.0072733
3.58921e-06
0.00727258
3.15884e-06
0.00727196
2.74956e-06
0.00727145
2.33287e-06
0.00727103
1.95871e-06
0.00727071
1.59449e-06
0.00727048
1.24619e-06
0.00727033
8.7382e-07
0.00727027
5.53844e-07
0.0072703
2.40594e-07
0.0072704
-5.80689e-08
0.00727058
-3.71203e-07
0.00727083
-6.46527e-07
0.00727115
-9.17715e-07
0.00727153
-1.17772e-06
0.00727199
-1.46624e-06
0.00727251
-1.70624e-06
0.00727309
-1.94404e-06
0.00727373
-2.17138e-06
0.00727443
-2.41648e-06
0.00727518
-2.6282e-06
0.00727599
-2.83879e-06
0.00727686
-3.04098e-06
0.00727777
-3.27223e-06
0.00727874
-3.45973e-06
0.00727975
-3.64698e-06
0.00728081
-3.82579e-06
0.00728191
-4.02251e-06
0.00728306
-4.18927e-06
0.00728425
-4.35584e-06
0.00728548
-4.51518e-06
0.00728676
-4.7012e-06
0.00728807
-4.84784e-06
0.00728941
-4.99413e-06
0.0072908
-5.13246e-06
0.00729221
-5.28529e-06
0.00729366
-5.41185e-06
0.00729514
-5.53721e-06
0.00729665
-5.65503e-06
0.00729818
-5.79218e-06
0.00729974
-5.89634e-06
0.00730133
-5.99827e-06
0.00730294
-6.09156e-06
0.00730457
-6.19319e-06
0.00730622
-6.27222e-06
0.00730788
-6.34735e-06
0.00730956
-6.41364e-06
0.00731125
-6.48862e-06
0.00731295
-6.5384e-06
0.00731467
-6.58268e-06
0.00731638
-6.61719e-06
0.0073181
-6.6511e-06
0.00731983
-6.66827e-06
0.00732155
-6.67833e-06
0.00732327
-6.67857e-06
0.00732498
-6.67383e-06
0.00732669
-6.65607e-06
0.00732839
-6.63047e-06
0.00733007
-6.59176e-06
0.00733174
-6.54494e-06
0.00733337
-6.37252e-06
0.00733498
-6.36755e-06
-3.31114e-06
0.0116649
0.00769174
0.0111083
0.00307884
0.0106583
0.00186412
0.0103471
0.00118927
0.0101283
0.000827091
0.00996616
0.000618051
0.00984002
0.000486692
0.00973813
0.000397515
0.00965352
0.000333262
0.00958173
0.000284936
0.0095198
0.000247359
0.00946568
0.000217356
0.00941786
0.000192866
0.00937524
0.000172519
0.00933699
0.000155355
0.00930243
0.000140704
0.00927106
0.000128059
0.00924244
0.000117045
0.00921622
0.000107365
0.00919214
9.88212e-05
0.00916993
9.12218e-05
0.00914941
8.44267e-05
0.00913039
7.83076e-05
0.00911275
7.27856e-05
0.00909634
6.77652e-05
0.00908107
6.31792e-05
0.00906685
5.89507e-05
0.00905358
5.50698e-05
0.00904121
5.14746e-05
0.00902967
4.8137e-05
0.0090189
4.50164e-05
0.00900884
4.21194e-05
0.00899945
3.94105e-05
0.00899068
3.68783e-05
0.00898249
3.44842e-05
0.00897485
3.22673e-05
0.0089677
3.01863e-05
0.00896104
2.82366e-05
0.00895481
2.63891e-05
0.00894901
2.46725e-05
0.00894359
2.30554e-05
0.00893854
2.15357e-05
0.00893383
2.00747e-05
0.00892945
1.87295e-05
0.00892537
1.74566e-05
0.00892158
1.62572e-05
0.00891807
1.51021e-05
0.00891481
1.40321e-05
0.0089118
1.30143e-05
0.00890902
1.20516e-05
0.00890646
1.11032e-05
0.00890411
1.02395e-05
0.00890196
9.41363e-06
0.0089
8.63092e-06
0.00889822
7.8605e-06
0.00889662
7.15262e-06
0.00889517
6.47214e-06
0.00889389
5.8247e-06
0.00889275
5.16698e-06
0.00889176
4.57922e-06
0.00889091
4.01106e-06
0.00889019
3.47023e-06
0.0088896
2.92465e-06
0.00888913
2.4296e-06
0.00888878
1.9482e-06
0.00888854
1.48757e-06
0.0088884
1.00316e-06
0.00888838
5.79316e-07
0.00888845
1.65076e-07
0.00888863
-2.29998e-07
0.00888889
-6.38699e-07
0.00888925
-1.00334e-06
0.0088897
-1.36183e-06
0.00889023
-1.70578e-06
0.00889084
-2.07924e-06
0.00889153
-2.39711e-06
0.0088923
-2.71123e-06
0.00889314
-3.01184e-06
0.00889405
-3.33052e-06
0.00889504
-3.61053e-06
0.00889609
-3.88821e-06
0.0088972
-4.15493e-06
0.00889838
-4.45222e-06
0.00889962
-4.6996e-06
0.00890092
-4.94571e-06
0.00890228
-5.18089e-06
0.00890369
-5.43457e-06
0.00890515
-5.65365e-06
0.00890667
-5.87156e-06
0.00890824
-6.08e-06
0.00890985
-6.31652e-06
0.00891151
-6.50807e-06
0.00891322
-6.69823e-06
0.00891496
-6.87805e-06
0.00891675
-7.0726e-06
0.00891858
-7.23659e-06
0.00892044
-7.39817e-06
0.00892234
-7.54985e-06
0.00892426
-7.72138e-06
0.00892622
-7.85484e-06
0.00892821
-7.98458e-06
0.00893022
-8.10307e-06
0.00893226
-8.22922e-06
0.00893432
-8.32864e-06
0.00893639
-8.4223e-06
0.00893849
-8.50439e-06
0.00894059
-8.59435e-06
0.00894271
-8.65454e-06
0.00894483
-8.70698e-06
0.00894697
-8.74672e-06
0.0089491
-8.78405e-06
0.00895123
-8.80089e-06
0.00895336
-8.808e-06
0.00895549
-8.80243e-06
0.00895761
-8.78978e-06
0.00895971
-8.76056e-06
0.0089618
-8.72065e-06
0.00896388
-8.66403e-06
0.00896593
-8.59747e-06
0.00896793
-8.36732e-06
0.00896991
-8.35003e-06
-4.33418e-06
0.0141222
0.00812848
0.0135876
0.0036134
0.013076
0.00237579
0.0126916
0.00157367
0.0124125
0.00110615
0.0122038
0.000826785
0.0120413
0.000649172
0.0119104
0.000528416
0.0118021
0.000441619
0.0117104
0.000376565
0.0116316
0.000326164
0.0115629
0.000286057
0.0115024
0.000253419
0.0114485
0.000226375
0.0114002
0.000203618
0.0113567
0.000184233
0.0113172
0.000167532
0.0112813
0.000153011
0.0112484
0.000140269
0.0112182
0.000129033
0.0111903
0.000119049
0.0111646
0.000110127
0.0111408
0.000102098
0.0111188
9.48508e-05
0.0110983
8.82615e-05
0.0110792
8.22411e-05
0.0110615
7.6693e-05
0.0110449
7.15962e-05
0.0110295
6.68755e-05
0.0110152
6.24945e-05
0.0110018
5.84037e-05
0.0109893
5.46061e-05
0.0109777
5.10587e-05
0.0109668
4.77464e-05
0.0109566
4.46237e-05
0.0109472
4.17297e-05
0.0109384
3.90164e-05
0.0109301
3.64765e-05
0.0109224
3.40755e-05
0.0109153
3.18424e-05
0.0109086
2.97403e-05
0.0109023
2.77656e-05
0.0108965
2.58745e-05
0.0108911
2.41271e-05
0.0108861
2.24743e-05
0.0108815
2.09168e-05
0.0108771
1.94215e-05
0.0108731
1.80315e-05
0.0108694
1.67098e-05
0.010866
1.54593e-05
0.0108629
1.4235e-05
0.01086
1.31121e-05
0.0108574
1.20388e-05
0.010855
1.10211e-05
0.0108529
1.00246e-05
0.0108509
9.10342e-06
0.0108492
8.21821e-06
0.0108476
7.37562e-06
0.0108462
6.52824e-06
0.0108451
5.76233e-06
0.0108441
5.02241e-06
0.0108432
4.31757e-06
0.0108425
3.61225e-06
0.010842
2.96634e-06
0.0108416
2.33883e-06
0.0108413
1.73815e-06
0.0108412
1.11566e-06
0.0108412
5.62153e-07
0.0108414
2.21482e-08
0.0108416
-4.92899e-07
0.010842
-1.01958e-06
0.0108425
-1.49549e-06
0.0108431
-1.96254e-06
0.0108438
-2.41084e-06
0.0108446
-2.88818e-06
0.0108455
-3.30284e-06
0.0108465
-3.71161e-06
0.0108476
-4.10303e-06
0.0108488
-4.5118e-06
0.0108501
-4.87635e-06
0.0108514
-5.23686e-06
0.0108529
-5.58315e-06
0.0108544
-5.96023e-06
0.010856
-6.28132e-06
0.0108576
-6.59967e-06
0.0108593
-6.90389e-06
0.0108611
-7.22631e-06
0.010863
-7.50926e-06
0.0108649
-7.78965e-06
0.0108669
-8.05766e-06
0.0108689
-8.35397e-06
0.010871
-8.5998e-06
0.0108732
-8.84276e-06
0.0108753
-9.07232e-06
0.0108776
-9.31599e-06
0.0108799
-9.52457e-06
0.0108822
-9.72908e-06
0.0108846
-9.92066e-06
0.010887
-1.01315e-05
0.0108894
-1.02992e-05
0.0108919
-1.04612e-05
0.0108944
-1.06086e-05
0.010897
-1.07621e-05
0.0108995
-1.08845e-05
0.0109021
-1.09987e-05
0.0109047
-1.10979e-05
0.0109073
-1.12032e-05
0.0109099
-1.12738e-05
0.0109125
-1.1334e-05
0.0109152
-1.13778e-05
0.0109178
-1.14166e-05
0.0109204
-1.14307e-05
0.0109231
-1.1432e-05
0.0109257
-1.14171e-05
0.0109283
-1.13917e-05
0.0109309
-1.13462e-05
0.0109334
-1.12871e-05
0.010936
-1.12065e-05
0.0109385
-1.11131e-05
0.0109409
-1.08118e-05
0.0109434
-1.07848e-05
-5.60075e-06
0.0170157
0.008438
0.0165448
0.0040843
0.0160001
0.00292049
0.0155424
0.00203133
0.0151931
0.00145546
0.0149266
0.00109325
0.0147179
0.000857862
0.0145497
0.000696622
0.0144107
0.000580618
0.0142935
0.00049382
0.0141929
0.00042675
0.0141054
0.000373531
0.0140285
0.000330346
0.0139602
0.000294658
0.0138991
0.000264702
0.0138441
0.000239239
0.0137943
0.000217345
0.013749
0.000198342
0.0137075
0.000181695
0.0136695
0.000167033
0.0136346
0.000154018
0.0136023
0.000142398
0.0135725
0.000131947
0.0135448
0.000122514
0.0135191
0.000113938
0.0134953
0.000106102
0.0134731
9.88838e-05
0.0134524
9.22493e-05
0.0134332
8.61057e-05
0.0134153
8.04067e-05
0.0133986
7.50914e-05
0.013383
7.01584e-05
0.0133685
6.55554e-05
0.013355
6.12621e-05
0.0133424
5.72246e-05
0.0133307
5.34816e-05
0.0133197
4.99764e-05
0.0133095
4.66984e-05
0.0132999
4.36061e-05
0.0132911
4.07284e-05
0.0132828
3.80216e-05
0.0132751
3.548e-05
0.0132679
3.30533e-05
0.0132612
3.08052e-05
0.013255
2.86795e-05
0.0132492
2.66765e-05
0.0132439
2.47577e-05
0.013239
2.29697e-05
0.0132344
2.12698e-05
0.0132302
1.96611e-05
0.0132263
1.80933e-05
0.0132228
1.66478e-05
0.0132196
1.52664e-05
0.0132166
1.39561e-05
0.013214
1.2678e-05
0.0132116
1.1491e-05
0.0132095
1.03507e-05
0.0132076
9.26501e-06
0.0132059
8.18125e-06
0.0132045
7.19322e-06
0.0132033
6.23925e-06
0.0132023
5.33e-06
0.0132014
4.42564e-06
0.0132008
3.59164e-06
0.0132004
2.78209e-06
0.0132001
2.00704e-06
0.0132
1.21253e-06
0.0132001
4.97439e-07
0.0132003
-1.98957e-07
0.0132007
-8.63094e-07
0.0132012
-1.53645e-06
0.0132018
-2.15065e-06
0.0132026
-2.75243e-06
0.0132036
-3.33004e-06
0.0132046
-3.93619e-06
0.0132058
-4.47077e-06
0.0132071
-4.9966e-06
0.0132085
-5.50017e-06
0.01321
-6.02011e-06
0.0132116
-6.4889e-06
0.0132133
-6.9513e-06
0.0132151
-7.39526e-06
0.013217
-7.87033e-06
0.013219
-8.28176e-06
0.0132211
-8.68836e-06
0.0132233
-9.07675e-06
0.0132255
-9.48283e-06
0.0132279
-9.84336e-06
0.0132303
-1.01994e-05
0.0132328
-1.05392e-05
0.0132353
-1.09077e-05
0.0132379
-1.12188e-05
0.0132406
-1.15249e-05
0.0132434
-1.18137e-05
0.0132462
-1.21158e-05
0.013249
-1.23771e-05
0.0132519
-1.26321e-05
0.0132549
-1.28704e-05
0.0132579
-1.31274e-05
0.0132609
-1.33346e-05
0.013264
-1.35335e-05
0.0132671
-1.37138e-05
0.0132702
-1.38984e-05
0.0132734
-1.40462e-05
0.0132766
-1.41828e-05
0.0132798
-1.43002e-05
0.013283
-1.44215e-05
0.0132862
-1.45023e-05
0.0132895
-1.4569e-05
0.0132927
-1.4615e-05
0.0132959
-1.46528e-05
0.0132992
-1.46609e-05
0.0133024
-1.46523e-05
0.0133056
-1.46231e-05
0.0133088
-1.45802e-05
0.0133119
-1.45123e-05
0.0133151
-1.44267e-05
0.0133182
-1.43144e-05
0.0133213
-1.41867e-05
0.0133243
-1.37977e-05
0.0133272
-1.37447e-05
-7.12898e-06
0.0204181
0.00863698
0.020045
0.00445732
0.0195159
0.00344958
0.0190009
0.00254639
0.0185768
0.00187951
0.018242
0.0014281
0.0179759
0.00112394
0.0177603
0.000912199
0.017582
0.000758938
0.0174317
0.00064411
0.017303
0.000555461
0.0171913
0.000485249
0.0170932
0.000428406
0.0170063
0.000381539
0.0169287
0.000342291
0.016859
0.000308999
0.0167959
0.000280432
0.0167386
0.00025568
0.0166862
0.000234036
0.0166383
0.000214996
0.0165942
0.000198115
0.0165535
0.000183056
0.0165159
0.000169524
0.0164811
0.000157313
0.0164488
0.000146214
0.0164189
0.000136073
0.016391
0.000126739
0.0163651
0.000118155
0.016341
0.00011021
0.0163186
0.000102842
0.0162977
9.59789e-05
0.0162782
8.96112e-05
0.0162601
8.36757e-05
0.0162432
7.81457e-05
0.0162275
7.29571e-05
0.0162128
6.81462e-05
0.0161992
6.36464e-05
0.0161864
5.94422e-05
0.0161745
5.54841e-05
0.0161635
5.17992e-05
0.0161531
4.83357e-05
0.0161435
4.50854e-05
0.0161346
4.19906e-05
0.0161263
3.91168e-05
0.0161186
3.64006e-05
0.0161114
3.38412e-05
0.0161048
3.13947e-05
0.0160986
2.91096e-05
0.016093
2.69375e-05
0.0160877
2.48816e-05
0.0160829
2.28864e-05
0.0160786
2.10377e-05
0.0160745
1.92715e-05
0.0160709
1.75955e-05
0.0160676
1.59665e-05
0.0160647
1.44471e-05
0.016062
1.29881e-05
0.0160597
1.15984e-05
0.0160576
1.02208e-05
0.0160559
8.95485e-06
0.0160544
7.73322e-06
0.0160532
6.56832e-06
0.0160522
5.4161e-06