/*--------------------------------*- C++ -*----------------------------------*\
  =========                 |
  \\      /  F ield         | OpenFOAM: The Open Source CFD Toolbox
   \\    /   O peration     | Website:  https://openfoam.org
    \\  /    A nd           | Version:  8
     \\/     M anipulation  |
\*---------------------------------------------------------------------------*/
FoamFile
{
    version     2.0;
    format      ascii;
    class       volVectorField;
    location    "500";
    object      U;
}
// * * * * * * * * * * * * * * * * * * * * * * * * * * * * * * * * * * * * * //

dimensions      [0 1 -1 0 0 0 0];

internalField   nonuniform List<vector> 
7320
(
(22.6429 -0.848127 0)
(20.2991 -0.0156863 0)
(19.4729 0.000192363 0)
(18.9932 0.000303694 0)
(18.6577 0.000223797 0)
(18.4025 0.00017425 0)
(18.1985 0.000141555 0)
(18.0298 0.000118293 0)
(17.8872 0.000100877 0)
(17.7644 8.73834e-05 0)
(17.6573 7.6625e-05 0)
(17.5629 6.78842e-05 0)
(17.4788 6.06374e-05 0)
(17.4034 5.45401e-05 0)
(17.3353 4.9329e-05 0)
(17.2736 4.48512e-05 0)
(17.2174 4.09545e-05 0)
(17.1659 3.75383e-05 0)
(17.1186 3.44885e-05 0)
(17.0751 3.1809e-05 0)
(17.0349 2.94156e-05 0)
(16.9977 2.72714e-05 0)
(16.9632 2.53175e-05 0)
(16.931 2.35759e-05 0)
(16.9011 2.19954e-05 0)
(16.8731 2.0559e-05 0)
(16.847 1.91961e-05 0)
(16.8225 1.79915e-05 0)
(16.7996 1.68783e-05 0)
(16.7781 1.58492e-05 0)
(16.7579 1.48561e-05 0)
(16.7389 1.3963e-05 0)
(16.7212 1.31241e-05 0)
(16.7045 1.23396e-05 0)
(16.6888 1.15359e-05 0)
(16.6741 1.08438e-05 0)
(16.6603 1.01897e-05 0)
(16.6474 9.57743e-06 0)
(16.6352 8.95315e-06 0)
(16.6238 8.41113e-06 0)
(16.6132 7.89655e-06 0)
(16.6032 7.41536e-06 0)
(16.5939 6.87827e-06 0)
(16.5851 6.4521e-06 0)
(16.577 6.04621e-06 0)
(16.5693 5.66823e-06 0)
(16.5622 5.2533e-06 0)
(16.5556 4.91775e-06 0)
(16.5494 4.59547e-06 0)
(16.5436 4.29578e-06 0)
(16.5383 3.915e-06 0)
(16.5334 3.6483e-06 0)
(16.5288 3.39045e-06 0)
(16.5246 3.15255e-06 0)
(16.5207 2.8591e-06 0)
(16.5171 2.64658e-06 0)
(16.5138 2.43826e-06 0)
(16.5108 2.2466e-06 0)
(16.5081 1.9558e-06 0)
(16.5057 1.78419e-06 0)
(16.5035 1.61453e-06 0)
(16.5016 1.46075e-06 0)
(16.4999 1.24119e-06 0)
(16.4984 1.10335e-06 0)
(16.4971 9.64182e-07 0)
(16.496 8.38121e-07 0)
(16.4952 6.04365e-07 0)
(16.4945 4.9002e-07 0)
(16.494 3.7325e-07 0)
(16.4937 2.70161e-07 0)
(16.4935 9.4352e-08 0)
(16.4935 -9.12771e-11 0)
(16.4937 -9.87796e-08 0)
(16.494 -1.86034e-07 0)
(16.4945 -3.83669e-07 0)
(16.4951 -4.63015e-07 0)
(16.4958 -5.47666e-07 0)
(16.4967 -6.20615e-07 0)
(16.4977 -7.65258e-07 0)
(16.4989 -8.32309e-07 0)
(16.5001 -9.05964e-07 0)
(16.5015 -9.69761e-07 0)
(16.503 -1.13908e-06 0)
(16.5046 -1.198e-06 0)
(16.5063 -1.26345e-06 0)
(16.5082 -1.31848e-06 0)
(16.5101 -1.44147e-06 0)
(16.5121 -1.49284e-06 0)
(16.5143 -1.55126e-06 0)
(16.5165 -1.60092e-06 0)
(16.5188 -1.74662e-06 0)
(16.5213 -1.79284e-06 0)
(16.5238 -1.84529e-06 0)
(16.5264 -1.88835e-06 0)
(16.529 -1.9891e-06 0)
(16.5318 -2.02911e-06 0)
(16.5346 -2.0752e-06 0)
(16.5376 -2.11343e-06 0)
(16.5406 -2.22711e-06 0)
(16.5436 -2.26199e-06 0)
(16.5468 -2.30169e-06 0)
(16.5499 -2.33312e-06 0)
(16.5532 -2.40741e-06 0)
(16.5565 -2.4352e-06 0)
(16.5599 -2.46674e-06 0)
(16.5633 -2.49143e-06 0)
(16.5668 -2.56369e-06 0)
(16.5703 -2.58409e-06 0)
(16.5738 -2.60653e-06 0)
(16.5774 -2.62218e-06 0)
(16.581 -2.65864e-06 0)
(16.5847 -2.66944e-06 0)
(16.5883 -2.6808e-06 0)
(16.592 -2.68666e-06 0)
(16.5957 -2.70144e-06 0)
(16.5994 -2.70217e-06 0)
(16.603 -2.7026e-06 0)
(16.6067 -2.69659e-06 0)
(16.6104 -2.68335e-06 0)
(16.614 -2.62559e-06 0)
(16.6175 -2.62942e-06 0)
(16.6212 -1.43023e-06 0)
(26.6037 0.16714 0)
(23.9491 0.00743099 0)
(22.9106 0.00132353 0)
(22.324 0.000761346 0)
(21.922 0.000547505 0)
(21.6197 0.000424649 0)
(21.3794 0.000344279 0)
(21.1815 0.000287354 0)
(21.0145 0.000244852 0)
(20.8711 0.00021198 0)
(20.7461 0.000185824 0)
(20.636 0.000164577 0)
(20.5381 0.000146974 0)
(20.4503 0.00013217 0)
(20.3712 0.000119536 0)
(20.2994 0.000108671 0)
(20.2341 9.92195e-05 0)
(20.1743 9.09335e-05 0)
(20.1194 8.35721e-05 0)
(20.0688 7.70757e-05 0)
(20.0221 7.12744e-05 0)
(19.9789 6.60757e-05 0)
(19.9388 6.13635e-05 0)
(19.9015 5.71387e-05 0)
(19.8668 5.33039e-05 0)
(19.8343 4.98128e-05 0)
(19.804 4.65496e-05 0)
(19.7756 4.36149e-05 0)
(19.749 4.09e-05 0)
(19.724 3.83838e-05 0)
(19.7006 3.59912e-05 0)
(19.6787 3.38029e-05 0)
(19.6581 3.17481e-05 0)
(19.6388 2.98221e-05 0)
(19.6207 2.79207e-05 0)
(19.6036 2.62215e-05 0)
(19.5877 2.46168e-05 0)
(19.5727 2.31103e-05 0)
(19.5587 2.1626e-05 0)
(19.5456 2.0292e-05 0)
(19.5333 1.90285e-05 0)
(19.5218 1.78417e-05 0)
(19.511 1.66083e-05 0)
(19.5009 1.55572e-05 0)
(19.4915 1.4558e-05 0)
(19.4827 1.36208e-05 0)
(19.4745 1.26558e-05 0)
(19.4669 1.18224e-05 0)
(19.4598 1.10255e-05 0)
(19.4531 1.02771e-05 0)
(19.447 9.4351e-06 0)
(19.4413 8.76838e-06 0)
(19.4361 8.12662e-06 0)
(19.4312 7.52566e-06 0)
(19.4268 6.8619e-06 0)
(19.4227 6.32323e-06 0)
(19.4189 5.80027e-06 0)
(19.4155 5.30997e-06 0)
(19.4124 4.69428e-06 0)
(19.4097 4.25463e-06 0)
(19.4072 3.82421e-06 0)
(19.405 3.42343e-06 0)
(19.403 2.94067e-06 0)
(19.4014 2.57932e-06 0)
(19.3999 2.22127e-06 0)
(19.3987 1.88638e-06 0)
(19.3978 1.41012e-06 0)
(19.397 1.10645e-06 0)
(19.3965 8.02526e-07 0)
(19.3962 5.21647e-07 0)
(19.396 1.46251e-07 0)
(19.3961 -1.10807e-07 0)
(19.3963 -3.71121e-07 0)
(19.3968 -6.12789e-07 0)
(19.3974 -1.00142e-06 0)
(19.3981 -1.22109e-06 0)
(19.399 -1.44716e-06 0)
(19.4001 -1.6546e-06 0)
(19.4013 -1.9569e-06 0)
(19.4027 -2.14799e-06 0)
(19.4042 -2.34702e-06 0)
(19.4059 -2.53086e-06 0)
(19.4077 -2.85633e-06 0)
(19.4096 -3.02508e-06 0)
(19.4117 -3.2028e-06 0)
(19.4139 -3.3646e-06 0)
(19.4162 -3.61707e-06 0)
(19.4186 -3.76749e-06 0)
(19.4212 -3.92699e-06 0)
(19.4238 -4.07329e-06 0)
(19.4266 -4.34881e-06 0)
(19.4294 -4.48325e-06 0)
(19.4324 -4.62625e-06 0)
(19.4355 -4.75485e-06 0)
(19.4387 -4.96016e-06 0)
(19.4419 -5.07859e-06 0)
(19.4453 -5.2044e-06 0)
(19.4488 -5.31787e-06 0)
(19.4523 -5.53207e-06 0)
(19.4559 -5.6337e-06 0)
(19.4596 -5.741e-06 0)
(19.4634 -5.83471e-06 0)
(19.4672 -5.98421e-06 0)
(19.4711 -6.06593e-06 0)
(19.4751 -6.15064e-06 0)
(19.4791 -6.22327e-06 0)
(19.4832 -6.35771e-06 0)
(19.4873 -6.41615e-06 0)
(19.4915 -6.47469e-06 0)
(19.4957 -6.52054e-06 0)
(19.5 -6.59113e-06 0)
(19.5042 -6.6219e-06 0)
(19.5085 -6.64943e-06 0)
(19.5128 -6.6658e-06 0)
(19.5171 -6.69113e-06 0)
(19.5215 -6.69169e-06 0)
(19.5258 -6.68676e-06 0)
(19.5301 -6.66802e-06 0)
(19.5344 -6.63693e-06 0)
(19.5386 -6.48431e-06 0)
(19.5427 -6.47402e-06 0)
(19.547 -3.41406e-06 0)
(28.9497 0.0984765 0)
(26.1304 0.00639103 0)
(24.9213 0.00233807 0)
(24.2467 0.00142131 0)
(23.7932 0.00101458 0)
(23.4561 0.000782697 0)
(23.1903 0.000632553 0)
(22.9724 0.000526905 0)
(22.7892 0.000448357 0)
(22.6322 0.000387778 0)
(22.4957 0.000339687 0)
(22.3756 0.000300674 0)
(22.2689 0.000268391 0)
(22.1734 0.000241265 0)
(22.0873 0.000218145 0)
(22.0093 0.000198265 0)
(21.9382 0.000180982 0)
(21.8733 0.000165837 0)
(21.8137 0.00015241 0)
(21.7589 0.000140546 0)
(21.7082 0.000129956 0)
(21.6614 0.000120467 0)
(21.6179 0.000111884 0)
(21.5775 0.000104172 0)
(21.5398 9.71715e-05 0)
(21.5046 9.07935e-05 0)
(21.4718 8.48615e-05 0)
(21.441 7.94919e-05 0)
(21.4122 7.45217e-05 0)
(21.3852 6.99105e-05 0)
(21.36 6.55475e-05 0)
(21.3362 6.15333e-05 0)
(21.314 5.77648e-05 0)
(21.2931 5.42309e-05 0)
(21.2736 5.07876e-05 0)
(21.2552 4.76703e-05 0)
(21.2381 4.47286e-05 0)
(21.222 4.19653e-05 0)
(21.2069 3.92757e-05 0)
(21.1927 3.68297e-05 0)
(21.1795 3.45155e-05 0)
(21.1671 3.23397e-05 0)
(21.1556 3.01354e-05 0)
(21.1448 2.82081e-05 0)
(21.1347 2.63782e-05 0)
(21.1252 2.46586e-05 0)
(21.1164 2.29269e-05 0)
(21.1082 2.13963e-05 0)
(21.1006 1.99355e-05 0)
(21.0936 1.85597e-05 0)
(21.087 1.7078e-05 0)
(21.0809 1.58505e-05 0)
(21.0753 1.46716e-05 0)
(21.0701 1.35627e-05 0)
(21.0654 1.23843e-05 0)
(21.061 1.13883e-05 0)
(21.0571 1.04247e-05 0)
(21.0534 9.51625e-06 0)
(21.0502 8.45155e-06 0)
(21.0473 7.63483e-06 0)
(21.0446 6.83874e-06 0)
(21.0423 6.09144e-06 0)
(21.0403 5.24311e-06 0)
(21.0386 4.5667e-06 0)
(21.0371 3.90075e-06 0)
(21.0359 3.2721e-06 0)
(21.0349 2.46121e-06 0)
(21.0342 1.8895e-06 0)
(21.0337 1.32182e-06 0)
(21.0334 7.90023e-07 0)
(21.0333 1.37349e-07 0)
(21.0335 -3.49968e-07 0)
(21.0338 -8.38475e-07 0)
(21.0344 -1.29818e-06 0)
(21.0351 -1.94989e-06 0)
(21.036 -2.36969e-06 0)
(21.0371 -2.79586e-06 0)
(21.0383 -3.19369e-06 0)
(21.0397 -3.71502e-06 0)
(21.0413 -4.08295e-06 0)
(21.0431 -4.45968e-06 0)
(21.0449 -4.81362e-06 0)
(21.047 -5.3538e-06 0)
(21.0491 -5.67987e-06 0)
(21.0515 -6.01679e-06 0)
(21.0539 -6.32999e-06 0)
(21.0565 -6.76201e-06 0)
(21.0592 -7.05385e-06 0)
(21.062 -7.35658e-06 0)
(21.065 -7.6397e-06 0)
(21.0681 -8.09294e-06 0)
(21.0713 -8.35357e-06 0)
(21.0746 -8.62456e-06 0)
(21.078 -8.87392e-06 0)
(21.0815 -9.22343e-06 0)
(21.0852 -9.45318e-06 0)
(21.0889 -9.69116e-06 0)
(21.0927 -9.91024e-06 0)
(21.0966 -1.0261e-05 0)
(21.1006 -1.0457e-05 0)
(21.1047 -1.06587e-05 0)
(21.1089 -1.08391e-05 0)
(21.1131 -1.10909e-05 0)
(21.1174 -1.12478e-05 0)
(21.1218 -1.14058e-05 0)
(21.1262 -1.15442e-05 0)
(21.1307 -1.17611e-05 0)
(21.1352 -1.18716e-05 0)
(21.1398 -1.19788e-05 0)
(21.1444 -1.20647e-05 0)
(21.1491 -1.21793e-05 0)
(21.1538 -1.22357e-05 0)
(21.1585 -1.22835e-05 0)
(21.1632 -1.23116e-05 0)
(21.1679 -1.23467e-05 0)
(21.1726 -1.23438e-05 0)
(21.1773 -1.23292e-05 0)
(21.182 -1.22891e-05 0)
(21.1867 -1.22287e-05 0)
(21.1913 -1.19379e-05 0)
(21.1958 -1.19314e-05 0)
(21.2004 -6.25589e-06 0)
(30.6449 0.0459571 0)
(27.8131 0.0083186 0)
(26.4561 0.00392311 0)
(25.6943 0.00237906 0)
(25.1892 0.00168077 0)
(24.8184 0.001288 0)
(24.5284 0.00103659 0)
(24.2922 0.00086108 0)
(24.0944 0.0007313 0)
(23.9254 0.000631589 0)
(23.7788 0.000552672 0)
(23.6501 0.000488777 0)
(23.5359 0.000435998 0)
(23.4338 0.000391709 0)
(23.3418 0.000354015 0)
(23.2586 0.000321625 0)
(23.1829 0.000293491 0)
(23.1137 0.000268854 0)
(23.0503 0.000247051 0)
(22.9919 0.000227774 0)
(22.938 0.000210576 0)
(22.8881 0.00019517 0)
(22.8419 0.000181253 0)
(22.7989 0.000168733 0)
(22.7589 0.000157364 0)
(22.7215 0.000147001 0)
(22.6866 0.000137395 0)
(22.654 0.000128659 0)
(22.6235 0.000120571 0)
(22.5949 0.000113063 0)
(22.5681 0.000105984 0)
(22.543 9.94453e-05 0)
(22.5195 9.33094e-05 0)
(22.4975 8.7555e-05 0)
(22.4768 8.20014e-05 0)
(22.4575 7.69282e-05 0)
(22.4394 7.21448e-05 0)
(22.4224 6.7651e-05 0)
(22.4065 6.33148e-05 0)
(22.3916 5.93389e-05 0)
(22.3777 5.55809e-05 0)
(22.3647 5.20459e-05 0)
(22.3526 4.85287e-05 0)
(22.3412 4.53972e-05 0)
(22.3306 4.24268e-05 0)
(22.3207 3.96318e-05 0)
(22.3115 3.68612e-05 0)
(22.303 3.43718e-05 0)
(22.295 3.1999e-05 0)
(22.2876 2.97602e-05 0)
(22.2808 2.7423e-05 0)
(22.2744 2.54229e-05 0)
(22.2686 2.35051e-05 0)
(22.2632 2.1696e-05 0)
(22.2583 1.98249e-05 0)
(22.2538 1.8197e-05 0)
(22.2496 1.66261e-05 0)
(22.2459 1.51396e-05 0)
(22.2426 1.34816e-05 0)
(22.2396 1.21421e-05 0)
(22.2369 1.08404e-05 0)
(22.2345 9.6121e-06 0)
(22.2325 8.27459e-06 0)
(22.2308 7.15928e-06 0)
(22.2293 6.06614e-06 0)
(22.2281 5.02827e-06 0)
(22.2272 3.78027e-06 0)
(22.2265 2.83363e-06 0)
(22.2261 1.89889e-06 0)
(22.2259 1.01581e-06 0)
(22.226 -4.99807e-09 0)
(22.2262 -8.15443e-07 0)
(22.2267 -1.62222e-06 0)
(22.2274 -2.38789e-06 0)
(22.2283 -3.37883e-06 0)
(22.2293 -4.08055e-06 0)
(22.2306 -4.78635e-06 0)
(22.232 -5.45232e-06 0)
(22.2336 -6.26253e-06 0)
(22.2354 -6.8802e-06 0)
(22.2374 -7.50555e-06 0)
(22.2395 -8.09923e-06 0)
(22.2417 -8.91329e-06 0)
(22.2442 -9.46174e-06 0)
(22.2467 -1.00212e-05 0)
(22.2494 -1.05479e-05 0)
(22.2523 -1.12146e-05 0)
(22.2553 -1.17062e-05 0)
(22.2584 -1.22088e-05 0)
(22.2617 -1.26843e-05 0)
(22.2651 -1.33614e-05 0)
(22.2686 -1.37997e-05 0)
(22.2722 -1.42485e-05 0)
(22.2759 -1.46673e-05 0)
(22.2798 -1.52034e-05 0)
(22.2837 -1.55891e-05 0)
(22.2878 -1.59821e-05 0)
(22.2919 -1.63482e-05 0)
(22.2962 -1.6869e-05 0)
(22.3005 -1.71964e-05 0)
(22.3049 -1.75272e-05 0)
(22.3094 -1.78273e-05 0)
(22.314 -1.82087e-05 0)
(22.3187 -1.84689e-05 0)
(22.3234 -1.8726e-05 0)
(22.3282 -1.89535e-05 0)
(22.333 -1.927e-05 0)
(22.3379 -1.94505e-05 0)
(22.3428 -1.96213e-05 0)
(22.3478 -1.97596e-05 0)
(22.3528 -1.99259e-05 0)
(22.3578 -2.00143e-05 0)
(22.3628 -2.00857e-05 0)
(22.3679 -2.01259e-05 0)
(22.3729 -2.01673e-05 0)
(22.378 -2.0155e-05 0)
(22.383 -2.01214e-05 0)
(22.388 -2.00467e-05 0)
(22.393 -1.9942e-05 0)
(22.398 -1.94542e-05 0)
(22.4027 -1.94515e-05 0)
(22.4077 -1.01602e-05 0)
(31.9342 0.0469921 0)
(29.2283 0.0125097 0)
(27.7543 0.00606041 0)
(26.9065 0.00365714 0)
(26.348 0.00255938 0)
(25.9421 0.00194748 0)
(25.6273 0.00155988 0)
(25.3724 0.00129154 0)
(25.1601 0.00109432 0)
(24.9793 0.000943469 0)
(24.8229 0.000824487 0)
(24.6858 0.000728393 0)
(24.5645 0.000649183 0)
(24.4561 0.000582828 0)
(24.3587 0.000526444 0)
(24.2706 0.000478042 0)
(24.1905 0.000436044 0)
(24.1174 0.000399299 0)
(24.0504 0.000366831 0)
(23.9887 0.000338122 0)
(23.9318 0.000312522 0)
(23.8793 0.000289596 0)
(23.8305 0.000268908 0)
(23.7852 0.000250275 0)
(23.743 0.000233353 0)
(23.7037 0.000217919 0)
(23.667 0.000203643 0)
(23.6327 0.00019062 0)
(23.6006 0.000178558 0)
(23.5706 0.000167357 0)
(23.5425 0.000156824 0)
(23.5162 0.000147072 0)
(23.4916 0.000137925 0)
(23.4686 0.000129349 0)
(23.447 0.000121127 0)
(23.4268 0.000113574 0)
(23.4079 0.000106459 0)
(23.3902 9.97754e-05 0)
(23.3736 9.33652e-05 0)
(23.3581 8.74568e-05 0)
(23.3437 8.18767e-05 0)
(23.3301 7.66272e-05 0)
(23.3175 7.14673e-05 0)
(23.3057 6.68171e-05 0)
(23.2947 6.24094e-05 0)
(23.2845 5.82593e-05 0)
(23.2749 5.41879e-05 0)
(23.2661 5.04897e-05 0)
(23.2578 4.69676e-05 0)
(23.2502 4.36408e-05 0)
(23.2431 4.02395e-05 0)
(23.2366 3.72642e-05 0)
(23.2306 3.44145e-05 0)
(23.225 3.17213e-05 0)
(23.22 2.89854e-05 0)
(23.2154 2.65587e-05 0)
(23.2112 2.42203e-05 0)
(23.2074 2.20029e-05 0)
(23.204 1.96109e-05 0)
(23.2009 1.76087e-05 0)
(23.1983 1.56669e-05 0)
(23.1959 1.38285e-05 0)
(23.1939 1.18812e-05 0)
(23.1922 1.02078e-05 0)
(23.1908 8.57244e-06 0)
(23.1897 7.01448e-06 0)
(23.1888 5.22816e-06 0)
(23.1882 3.80374e-06 0)
(23.1879 2.40203e-06 0)
(23.1879 1.07141e-06 0)
(23.188 -4.06378e-07 0)
(23.1884 -1.62903e-06 0)
(23.1891 -2.84094e-06 0)
(23.1899 -3.99674e-06 0)
(23.1909 -5.4026e-06 0)
(23.1922 -6.46474e-06 0)
(23.1937 -7.52667e-06 0)
(23.1953 -8.53496e-06 0)
(23.1971 -9.7025e-06 0)
(23.1991 -1.06394e-05 0)
(23.2013 -1.15813e-05 0)
(23.2037 -1.24806e-05 0)
(23.2062 -1.3627e-05 0)
(23.2088 -1.44594e-05 0)
(23.2117 -1.53014e-05 0)
(23.2147 -1.60999e-05 0)
(23.2178 -1.70544e-05 0)
(23.2211 -1.78e-05 0)
(23.2245 -1.85553e-05 0)
(23.228 -1.92744e-05 0)
(23.2317 -2.02199e-05 0)
(23.2355 -2.0883e-05 0)
(23.2394 -2.15553e-05 0)
(23.2435 -2.21871e-05 0)
(23.2476 -2.29489e-05 0)
(23.2519 -2.35305e-05 0)
(23.2562 -2.41166e-05 0)
(23.2607 -2.46659e-05 0)
(23.2653 -2.53867e-05 0)
(23.27 -2.5877e-05 0)
(23.2747 -2.63665e-05 0)
(23.2795 -2.68137e-05 0)
(23.2844 -2.73477e-05 0)
(23.2894 -2.77337e-05 0)
(23.2945 -2.81098e-05 0)
(23.2996 -2.84442e-05 0)
(23.3047 -2.88727e-05 0)
(23.3099 -2.91352e-05 0)
(23.3152 -2.9379e-05 0)
(23.3205 -2.95765e-05 0)
(23.3258 -2.97972e-05 0)
(23.3311 -2.99185e-05 0)
(23.3364 -3.00114e-05 0)
(23.3418 -3.00588e-05 0)
(23.3471 -3.0098e-05 0)
(23.3524 -3.00654e-05 0)
(23.3578 -2.99991e-05 0)
(23.363 -2.98719e-05 0)
(23.3683 -2.97036e-05 0)
(23.3735 -2.89593e-05 0)
(23.3785 -2.89594e-05 0)
(23.3837 -1.50912e-05 0)
(32.9266 0.0603715 0)
(30.4695 0.0174491 0)
(28.9196 0.00880602 0)
(27.99 0.00533471 0)
(27.3757 0.00370679 0)
(26.9322 0.00280121 0)
(26.5909 0.00223221 0)
(26.3162 0.00184142 0)
(26.0885 0.00155603 0)
(25.8954 0.00133878 0)
(25.7288 0.00116809 0)
(25.5832 0.00103064 0)
(25.4546 0.000917621 0)
(25.3399 0.00082313 0)
(25.2369 0.000742983 0)
(25.1439 0.000674271 0)
(25.0594 0.000614724 0)
(24.9824 0.00056268 0)
(24.9118 0.000516762 0)
(24.8469 0.000476168 0)
(24.7871 0.000439993 0)
(24.7319 0.000407608 0)
(24.6806 0.000378405 0)
(24.6331 0.000352083 0)
(24.5888 0.00032817 0)
(24.5476 0.00030635 0)
(24.5091 0.000286194 0)
(24.4732 0.000267764 0)
(24.4397 0.000250692 0)
(24.4083 0.000234836 0)
(24.379 0.000219955 0)
(24.3516 0.000206156 0)
(24.3259 0.000193223 0)
(24.3019 0.000181105 0)
(24.2794 0.000169544 0)
(24.2585 0.000158885 0)
(24.2388 0.000148853 0)
(24.2204 0.000139434 0)
(24.2033 0.000130441 0)
(24.1872 0.000122123 0)
(24.1722 0.000114272 0)
(24.1582 0.000106888 0)
(24.1452 9.96925e-05 0)
(24.133 9.31525e-05 0)
(24.1216 8.6957e-05 0)
(24.111 8.11214e-05 0)
(24.1012 7.54381e-05 0)
(24.0921 7.02359e-05 0)
(24.0836 6.52843e-05 0)
(24.0757 6.06041e-05 0)
(24.0685 5.58889e-05 0)
(24.0618 5.16993e-05 0)
(24.0556 4.76893e-05 0)
(24.05 4.38952e-05 0)
(24.0448 4.00889e-05 0)
(24.0401 3.66661e-05 0)
(24.0359 3.33712e-05 0)
(24.0321 3.02423e-05 0)
(24.0286 2.69458e-05 0)
(24.0256 2.41158e-05 0)
(24.0229 2.13747e-05 0)
(24.0206 1.87737e-05 0)
(24.0186 1.60714e-05 0)
(24.017 1.36994e-05 0)
(24.0156 1.13856e-05 0)
(24.0146 9.17694e-06 0)
(24.0139 6.72864e-06 0)
(24.0134 4.70505e-06 0)
(24.0132 2.7183e-06 0)
(24.0133 8.27347e-07 0)
(24.0136 -1.21448e-06 0)
(24.0142 -2.9541e-06 0)
(24.015 -4.67333e-06 0)
(24.016 -6.31776e-06 0)
(24.0172 -8.23143e-06 0)
(24.0187 -9.74585e-06 0)
(24.0203 -1.12536e-05 0)
(24.0222 -1.26905e-05 0)
(24.0242 -1.42977e-05 0)
(24.0265 -1.56347e-05 0)
(24.0289 -1.6972e-05 0)
(24.0315 -1.82531e-05 0)
(24.0343 -1.98032e-05 0)
(24.0372 -2.09904e-05 0)
(24.0403 -2.21842e-05 0)
(24.0435 -2.33209e-05 0)
(24.047 -2.46261e-05 0)
(24.0505 -2.56876e-05 0)
(24.0542 -2.67558e-05 0)
(24.058 -2.77761e-05 0)
(24.062 -2.90431e-05 0)
(24.0661 -2.99838e-05 0)
(24.0703 -3.09303e-05 0)
(24.0747 -3.18235e-05 0)
(24.0791 -3.2856e-05 0)
(24.0837 -3.36768e-05 0)
(24.0884 -3.44974e-05 0)
(24.0932 -3.52685e-05 0)
(24.0981 -3.6224e-05 0)
(24.103 -3.69104e-05 0)
(24.1081 -3.75896e-05 0)
(24.1132 -3.82118e-05 0)
(24.1185 -3.89227e-05 0)
(24.1237 -3.94566e-05 0)
(24.1291 -3.99714e-05 0)
(24.1345 -4.04288e-05 0)
(24.14 -4.09815e-05 0)
(24.1455 -4.13356e-05 0)
(24.151 -4.16593e-05 0)
(24.1566 -4.19191e-05 0)
(24.1622 -4.2194e-05 0)
(24.1678 -4.23447e-05 0)
(24.1734 -4.24526e-05 0)
(24.179 -4.2497e-05 0)
(24.1846 -4.25204e-05 0)
(24.1902 -4.24507e-05 0)
(24.1957 -4.23315e-05 0)
(24.2013 -4.21275e-05 0)
(24.2068 -4.1869e-05 0)
(24.2122 -4.07973e-05 0)
(24.2174 -4.07884e-05 0)
(24.2229 -2.12192e-05 0)
(33.6709 0.0694783 0)
(31.5724 0.022704 0)
(30.0008 0.0122433 0)
(28.9993 0.00751385 0)
(28.3282 0.0052014 0)
(27.8445 0.003907 0)
(27.4742 0.00309734 0)
(27.1779 0.00254498 0)
(26.9335 0.00214408 0)
(26.727 0.00184044 0)
(26.5495 0.00160286 0)
(26.3948 0.00141217 0)
(26.2583 0.00125579 0)
(26.137 0.00112536 0)
(26.0282 0.00101494 0)
(25.93 0.000920432 0)
(25.841 0.000838644 0)
(25.7598 0.000767251 0)
(25.6856 0.000704354 0)
(25.6174 0.000648776 0)
(25.5545 0.000599281 0)
(25.4965 0.000554991 0)
(25.4427 0.000515076 0)
(25.3929 0.000479079 0)
(25.3465 0.000446365 0)
(25.3033 0.000416501 0)
(25.2631 0.000388941 0)
(25.2255 0.000363694 0)
(25.1905 0.000340306 0)
(25.1577 0.000318586 0)
(25.1272 0.000298233 0)
(25.0986 0.000279345 0)
(25.0719 0.000261657 0)
(25.047 0.000245096 0)
(25.0236 0.000229361 0)
(25.0019 0.000214818 0)
(24.9815 0.000201144 0)
(24.9625 0.000188315 0)
(24.9447 0.000176108 0)
(24.9281 0.00016479 0)
(24.9126 0.000154117 0)
(24.8981 0.00014408 0)
(24.8846 0.000134363 0)
(24.872 0.000125475 0)
(24.8603 0.00011706 0)
(24.8494 0.000109132 0)
(24.8393 0.000101452 0)
(24.8299 9.43827e-05 0)
(24.8212 8.76561e-05 0)
(24.8131 8.12955e-05 0)
(24.8057 7.49564e-05 0)
(24.7988 6.92576e-05 0)
(24.7926 6.38058e-05 0)
(24.7868 5.86433e-05 0)
(24.7816 5.35116e-05 0)
(24.7768 4.88494e-05 0)
(24.7725 4.43645e-05 0)
(24.7686 4.01015e-05 0)
(24.7652 3.5688e-05 0)
(24.7622 3.18261e-05 0)
(24.7595 2.80892e-05 0)
(24.7572 2.45378e-05 0)
(24.7553 2.08999e-05 0)
(24.7537 1.76558e-05 0)
(24.7525 1.44958e-05 0)
(24.7515 1.14755e-05 0)
(24.7509 8.21084e-06 0)
(24.7506 5.43835e-06 0)
(24.7505 2.72134e-06 0)
(24.7507 1.32004e-07 0)
(24.7512 -2.60656e-06 0)
(24.7519 -4.99183e-06 0)
(24.7529 -7.34362e-06 0)
(24.7541 -9.59712e-06 0)
(24.7555 -1.21342e-05 0)
(24.7572 -1.42131e-05 0)
(24.7591 -1.62759e-05 0)
(24.7612 -1.82465e-05 0)
(24.7634 -2.03947e-05 0)
(24.7659 -2.22298e-05 0)
(24.7686 -2.40581e-05 0)
(24.7714 -2.58127e-05 0)
(24.7745 -2.78542e-05 0)
(24.7777 -2.94815e-05 0)
(24.781 -3.11101e-05 0)
(24.7845 -3.26643e-05 0)
(24.7882 -3.43965e-05 0)
(24.7921 -3.58472e-05 0)
(24.7961 -3.72995e-05 0)
(24.8002 -3.86886e-05 0)
(24.8044 -4.03412e-05 0)
(24.8088 -4.1621e-05 0)
(24.8134 -4.29012e-05 0)
(24.818 -4.41116e-05 0)
(24.8228 -4.54672e-05 0)
(24.8277 -4.65768e-05 0)
(24.8326 -4.76791e-05 0)
(24.8377 -4.87156e-05 0)
(24.8429 -4.99454e-05 0)
(24.8482 -5.08647e-05 0)
(24.8535 -5.17675e-05 0)
(24.859 -5.25947e-05 0)
(24.8645 -5.3509e-05 0)
(24.8701 -5.42136e-05 0)
(24.8757 -5.48867e-05 0)
(24.8814 -5.54828e-05 0)
(24.8871 -5.6171e-05 0)
(24.8929 -5.66246e-05 0)
(24.8987 -5.70322e-05 0)
(24.9046 -5.73544e-05 0)
(24.9104 -5.76793e-05 0)
(24.9163 -5.78513e-05 0)
(24.9222 -5.79623e-05 0)
(24.928 -5.79877e-05 0)
(24.9339 -5.7975e-05 0)
(24.9397 -5.78441e-05 0)
(24.9455 -5.76444e-05 0)
(24.9513 -5.73307e-05 0)
(24.957 -5.69461e-05 0)
(24.9626 -5.54611e-05 0)
(24.968 -5.54231e-05 0)
(24.9737 -2.88041e-05 0)
(34.1947 0.0755307 0)
(32.5411 0.0282331 0)
(31.0182 0.0164209 0)
(29.9639 0.010304 0)
(29.2379 0.00713871 0)
(28.712 0.0053386 0)
(28.3102 0.00421203 0)
(27.9902 0.00344694 0)
(27.7273 0.00289463 0)
(27.5061 0.00247835 0)
(27.3165 0.002154 0)
(27.1518 0.00189456 0)
(27.0068 0.00168244 0)
(26.8782 0.00150596 0)
(26.763 0.0013569 0)
(26.6593 0.00122954 0)
(26.5653 0.0011195 0)
(26.4798 0.00102359 0)
(26.4016 0.000939215 0)
(26.3298 0.000864712 0)
(26.2637 0.000798416 0)
(26.2027 0.00073912 0)
(26.1463 0.000685711 0)
(26.094 0.000637524 0)
(26.0453 0.000593721 0)
(26.0001 0.000553717 0)
(25.958 0.000516824 0)
(25.9187 0.000482983 0)
(25.8821 0.000451632 0)
(25.8479 0.000422522 0)
(25.816 0.000395285 0)
(25.7863 0.000369998 0)
(25.7585 0.000346339 0)
(25.7326 0.00032421 0)
(25.7083 0.000303255 0)
(25.6857 0.000283857 0)
(25.6646 0.000265638 0)
(25.6448 0.000248559 0)
(25.6264 0.000232354 0)
(25.6092 0.000217306 0)
(25.5932 0.000203125 0)
(25.5782 0.000189794 0)
(25.5643 0.000176952 0)
(25.5513 0.000165151 0)
(25.5392 0.000153981 0)
(25.528 0.000143457 0)
(25.5176 0.000133305 0)
(25.5079 0.000123917 0)
(25.4989 0.000114988 0)
(25.4906 0.000106542 0)
(25.483 9.8194e-05 0)
(25.476 9.06203e-05 0)
(25.4696 8.33776e-05 0)
(25.4637 7.65151e-05 0)
(25.4584 6.97414e-05 0)
(25.4535 6.35379e-05 0)
(25.4492 5.75734e-05 0)
(25.4453 5.19002e-05 0)
(25.4418 4.61055e-05 0)
(25.4388 4.09587e-05 0)
(25.4361 3.5982e-05 0)
(25.4339 3.12471e-05 0)
(25.432 2.64495e-05 0)
(25.4305 2.21181e-05 0)
(25.4293 1.7904e-05 0)
(25.4285 1.38728e-05 0)
(25.428 9.60005e-06 0)
(25.4277 5.89317e-06 0)
(25.4278 2.26664e-06 0)
(25.4282 -1.19104e-06 0)
(25.4288 -4.79065e-06 0)
(25.4297 -7.98026e-06 0)
(25.4308 -1.11188e-05 0)
(25.4322 -1.41293e-05 0)
(25.4339 -1.74324e-05 0)
(25.4357 -2.02135e-05 0)
(25.4378 -2.29653e-05 0)
(25.4401 -2.55977e-05 0)
(25.4426 -2.84109e-05 0)
(25.4454 -3.08633e-05 0)
(25.4483 -3.32988e-05 0)
(25.4514 -3.56381e-05 0)
(25.4547 -3.8278e-05 0)
(25.4581 -4.04483e-05 0)
(25.4618 -4.26115e-05 0)
(25.4655 -4.46782e-05 0)
(25.4695 -4.69289e-05 0)
(25.4736 -4.88561e-05 0)
(25.4779 -5.07771e-05 0)
(25.4823 -5.2615e-05 0)
(25.4869 -5.47293e-05 0)
(25.4915 -5.64206e-05 0)
(25.4964 -5.81038e-05 0)
(25.5013 -5.96958e-05 0)
(25.5064 -6.14357e-05 0)
(25.5115 -6.2891e-05 0)
(25.5168 -6.43287e-05 0)
(25.5222 -6.56798e-05 0)
(25.5277 -6.72288e-05 0)
(25.5332 -6.84217e-05 0)
(25.5389 -6.95853e-05 0)
(25.5446 -7.06497e-05 0)
(25.5504 -7.17956e-05 0)
(25.5562 -7.26944e-05 0)
(25.5622 -7.35455e-05 0)
(25.5681 -7.42948e-05 0)
(25.5741 -7.51283e-05 0)
(25.5802 -7.56865e-05 0)
(25.5862 -7.61788e-05 0)
(25.5923 -7.65589e-05 0)
(25.5984 -7.69247e-05 0)
(25.6045 -7.71042e-05 0)
(25.6106 -7.71997e-05 0)
(25.6167 -7.71828e-05 0)
(25.6228 -7.7106e-05 0)
(25.6288 -7.68812e-05 0)
(25.6348 -7.65638e-05 0)
(25.6408 -7.60972e-05 0)
(25.6467 -7.55403e-05 0)
(25.6526 -7.3537e-05 0)
(25.6581 -7.34396e-05 0)
(25.664 -3.81362e-05 0)
(34.5334 0.0801401 0)
(33.3602 0.0337827 0)
(31.9723 0.0212954 0)
(30.8975 0.0138031 0)
(30.1241 0.00962824 0)
(29.5558 0.0071874 0)
(29.1205 0.00564894 0)
(28.7745 0.0046053 0)
(28.4912 0.0038548 0)
(28.2535 0.00329151 0)
(28.0506 0.00285436 0)
(27.8746 0.00250591 0)
(27.7203 0.00222192 0)
(27.5835 0.00198627 0)
(27.4613 0.00178772 0)
(27.3515 0.0016184 0)
(27.252 0.00147238 0)
(27.1617 0.0013453 0)
(27.0791 0.0012337 0)
(27.0035 0.00113523 0)
(26.9339 0.00104769 0)
(26.8697 0.00096944 0)
(26.8103 0.000898999 0)
(26.7553 0.000835426 0)
(26.7042 0.000777628 0)
(26.6567 0.000724829 0)
(26.6125 0.00067616 0)
(26.5714 0.000631471 0)
(26.5331 0.000590075 0)
(26.4974 0.00055165 0)
(26.464 0.000515744 0)
(26.433 0.000482408 0)
(26.404 0.000451249 0)
(26.377 0.000422136 0)
(26.3518 0.000394649 0)
(26.3282 0.000369181 0)
(26.3063 0.000345288 0)
(26.2858 0.000322909 0)
(26.2666 0.000301729 0)
(26.2488 0.000282038 0)
(26.2322 0.000263495 0)
(26.2167 0.000246072 0)
(26.2022 0.000229355 0)
(26.1888 0.000213935 0)
(26.1763 0.000199346 0)
(26.1646 0.0001856 0)
(26.1538 0.000172383 0)
(26.1439 0.000160117 0)
(26.1346 0.000148453 0)
(26.1261 0.000137417 0)
(26.1182 0.000126582 0)
(26.111 0.000116678 0)
(26.1044 0.00010721 0)
(26.0984 9.82346e-05 0)
(26.0929 8.94243e-05 0)
(26.088 8.13036e-05 0)
(26.0836 7.34989e-05 0)
(26.0796 6.60717e-05 0)
(26.0761 5.85663e-05 0)
(26.073 5.18192e-05 0)
(26.0704 4.52993e-05 0)
(26.0682 3.90909e-05 0)
(26.0663 3.28543e-05 0)
(26.0649 2.7168e-05 0)
(26.0638 2.16413e-05 0)
(26.063 1.63518e-05 0)
(26.0626 1.08319e-05 0)
(26.0624 5.96016e-06 0)
(26.0626 1.20254e-06 0)
(26.0631 -3.33386e-06 0)
(26.0639 -7.99872e-06 0)
(26.065 -1.21888e-05 0)
(26.0663 -1.63045e-05 0)
(26.0679 -2.02543e-05 0)
(26.0697 -2.44997e-05 0)
(26.0717 -2.81524e-05 0)
(26.074 -3.17574e-05 0)
(26.0766 -3.52087e-05 0)
(26.0793 -3.88392e-05 0)
(26.0822 -4.20547e-05 0)
(26.0854 -4.52388e-05 0)
(26.0887 -4.82978e-05 0)
(26.0923 -5.16663e-05 0)
(26.096 -5.45041e-05 0)
(26.0999 -5.73225e-05 0)
(26.1039 -6.00161e-05 0)
(26.1081 -6.28953e-05 0)
(26.1125 -6.54036e-05 0)
(26.1171 -6.78939e-05 0)
(26.1218 -7.02757e-05 0)
(26.1266 -7.2942e-05 0)
(26.1316 -7.51299e-05 0)
(26.1366 -7.72972e-05 0)
(26.1419 -7.93463e-05 0)
(26.1472 -8.15414e-05 0)
(26.1527 -8.34079e-05 0)
(26.1582 -8.52426e-05 0)
(26.1639 -8.69638e-05 0)
(26.1696 -8.8883e-05 0)
(26.1755 -9.03949e-05 0)
(26.1814 -9.18601e-05 0)
(26.1874 -9.31967e-05 0)
(26.1934 -9.4604e-05 0)
(26.1995 -9.57212e-05 0)
(26.2057 -9.67695e-05 0)
(26.2119 -9.76852e-05 0)
(26.2182 -9.86718e-05 0)
(26.2245 -9.93364e-05 0)
(26.2308 -9.99098e-05 0)
(26.2371 -0.000100338 0)
(26.2434 -0.00010073 0)
(26.2498 -0.000100896 0)
(26.2561 -0.00010095 0)
(26.2624 -0.000100858 0)
(26.2687 -0.00010068 0)
(26.2749 -0.000100318 0)
(26.2811 -9.98347e-05 0)
(26.2873 -9.91602e-05 0)
(26.2933 -9.8372e-05 0)
(26.2994 -9.57248e-05 0)
(26.3051 -9.55182e-05 0)
(26.3111 -4.95685e-05 0)
(34.7383 0.0835126 0)
(34.0044 0.0389142 0)
(32.8456 0.0266756 0)
(31.8006 0.0180607 0)
(30.9964 0.0127822 0)
(30.3892 0.00956157 0)
(29.9198 0.00749902 0)
(29.546 0.00609457 0)
(29.2402 0.00508583 0)
(28.9844 0.0043309 0)
(28.7664 0.003747 0)
(28.578 0.00328308 0)
(28.413 0.00290613 0)
(28.2671 0.0025942 0)
(28.1371 0.00233204 0)
(28.0203 0.00210895 0)
(27.9149 0.00191693 0)
(27.8191 0.00175011 0)
(27.7317 0.00160385 0)
(27.6517 0.00147494 0)
(27.5782 0.00136046 0)
(27.5104 0.00125819 0)
(27.4478 0.00116619 0)
(27.3898 0.00108315 0)
(27.336 0.00100765 0)
(27.2861 0.000938675 0)
(27.2396 0.000875124 0)
(27.1964 0.000816726 0)
(27.1562 0.000762642 0)
(27.1187 0.000712458 0)
(27.0838 0.000665624 0)
(27.0513 0.000622148 0)
(27.0209 0.000581556 0)
(26.9927 0.00054367 0)
(26.9663 0.000507996 0)
(26.9418 0.000474925 0)
(26.9189 0.000443935 0)
(26.8975 0.000414937 0)
(26.8776 0.000387554 0)
(26.859 0.000362076 0)
(26.8416 0.000338101 0)
(26.8255 0.000315584 0)
(26.8105 0.000294054 0)
(26.7965 0.000274133 0)
(26.7835 0.000255293 0)
(26.7714 0.00023754 0)
(26.7602 0.000220516 0)
(26.7499 0.000204671 0)
(26.7403 0.000189607 0)
(26.7314 0.000175352 0)
(26.7233 0.000161429 0)
(26.7158 0.000148625 0)
(26.709 0.000136388 0)
(26.7028 0.000124783 0)
(26.6972 0.000113443 0)
(26.6921 0.000102934 0)
(26.6875 9.28378e-05 0)
(26.6835 8.32263e-05 0)
(26.6799 7.35976e-05 0)
(26.6768 6.48555e-05 0)
(26.6741 5.64127e-05 0)
(26.6719 4.8368e-05 0)
(26.67 4.03432e-05 0)
(26.6686 3.29674e-05 0)
(26.6675 2.58051e-05 0)
(26.6668 1.89482e-05 0)
(26.6664 1.18828e-05 0)
(26.6664 5.55858e-06 0)
(26.6667 -6.05867e-07 0)
(26.6673 -6.4834e-06 0)
(26.6682 -1.24679e-05 0)
(26.6694 -1.79025e-05 0)
(26.6708 -2.32315e-05 0)
(26.6725 -2.83467e-05 0)
(26.6745 -3.37527e-05 0)
(26.6768 -3.84865e-05 0)
(26.6793 -4.31479e-05 0)
(26.682 -4.7612e-05 0)
(26.6849 -5.22468e-05 0)
(26.6881 -5.64045e-05 0)
(26.6914 -6.05109e-05 0)
(26.695 -6.44548e-05 0)
(26.6988 -6.8711e-05 0)
(26.7027 -7.23682e-05 0)
(26.7068 -7.59884e-05 0)
(26.7111 -7.94476e-05 0)
(26.7156 -8.30882e-05 0)
(26.7203 -8.63037e-05 0)
(26.7251 -8.94846e-05 0)
(26.73 -9.25237e-05 0)
(26.7351 -9.58498e-05 0)
(26.7403 -9.86358e-05 0)
(26.7457 -0.000101383 0)
(26.7512 -0.000103978 0)
(26.7568 -0.000106712 0)
(26.7625 -0.000109066 0)
(26.7683 -0.000111369 0)
(26.7742 -0.000113525 0)
(26.7802 -0.000115872 0)
(26.7863 -0.000117754 0)
(26.7925 -0.000119567 0)
(26.7987 -0.000121214 0)
(26.805 -0.000122915 0)
(26.8114 -0.000124276 0)
(26.8178 -0.00012554 0)
(26.8243 -0.000126634 0)
(26.8308 -0.000127779 0)
(26.8373 -0.000128549 0)
(26.8438 -0.000129195 0)
(26.8503 -0.000129657 0)
(26.8569 -0.000130052 0)
(26.8634 -0.000130176 0)
(26.8699 -0.000130153 0)
(26.8764 -0.000129945 0)
(26.8829 -0.000129616 0)
(26.8893 -0.000129063 0)
(26.8957 -0.000128352 0)
(26.902 -0.000127401 0)
(26.9083 -0.000126308 0)
(26.9144 -0.000122867 0)