/*--------------------------------*- C++ -*----------------------------------*\
  =========                 |
  \\      /  F ield         | OpenFOAM: The Open Source CFD Toolbox
   \\    /   O peration     | Website:  https://openfoam.org
    \\  /    A nd           | Version:  8
     \\/     M anipulation  |
\*---------------------------------------------------------------------------*/
FoamFile
{
    version     2.0;
    format      ascii;
    class       volScalarField;
    location    "250";
    object      epsilon;
}
// * * * * * * * * * * * * * * * * * * * * * * * * * * * * * * * * * * * * * //

dimensions      [0 2 -3 0 0 0 0];

internalField   nonuniform List<scalar> 
7320
(
11607
10157.3
9313.78
8771.14
8388.68
8137.41
8064.66
8074.87
8036.74
7963.41
7892.78
7840.54
7807.42
7790.07
7784.81
7789.21
7801.11
7819.07
7842.09
7869.92
7901.8
7937.36
7976.2
8018.45
8063.73
8111.87
8162.55
8216.09
8272.03
8330.17
8390.13
8452.04
8515.41
8579.91
8645.04
8710.99
8777.06
8842.81
8907.68
8971.64
9034.06
9094.5
9152.47
9208.31
9261.44
9311.65
9358.69
9402.96
9444.22
9482.42
9517.52
9550.3
9580.51
9608.21
9633.4
9656.72
9678.05
9697.41
9714.82
9731.12
9746.02
9759.52
9771.61
9782.86
9793.08
9802.25
9810.32
9818.05
9825.09
9831.39
9836.87
9842.07
9846.75
9850.85
9854.29
9857.78
9860.93
9863.68
9865.93
9868.17
9870.13
9871.77
9872.99
9874.42
9875.69
9876.74
9877.47
9878.33
9879.02
9879.54
9879.76
9880.27
9880.69
9880.99
9881.08
9881.32
9881.48
9881.54
9881.39
9881.49
9881.55
9881.55
9881.38
9881.36
9881.3
9881.18
9880.92
9880.84
9880.73
9880.59
9880.37
9880.21
9880.04
9879.86
9879.63
9879.41
9879.18
9878.98
9878.76
9878.51
9878.17
9878.19
3749.21
3919.24
3598.46
3368.42
3209.77
3104.27
3048.55
2976.33
2857.02
2749.92
2677.57
2631.97
2603.58
2586.42
2576.89
2572.85
2572.86
2575.94
2581.48
2589.08
2598.37
2609.1
2621.07
2634.18
2648.29
2663.3
2679.1
2695.69
2712.96
2730.86
2749.28
2768.21
2787.53
2807.17
2826.98
2846.95
2866.94
2886.83
2906.47
2925.81
2944.69
2963
2980.58
2997.47
3013.54
3028.75
3043.03
3056.44
3068.95
3080.54
3091.22
3101.13
3110.25
3118.63
3126.28
3133.33
3139.77
3145.64
3150.93
3155.83
3160.31
3164.38
3168.05
3171.44
3174.52
3177.29
3179.76
3182.07
3184.18
3186.08
3187.76
3189.33
3190.74
3191.99
3193.06
3194.09
3195.03
3195.86
3196.57
3197.24
3197.84
3198.35
3198.75
3199.17
3199.54
3199.86
3200.11
3200.37
3200.58
3200.75
3200.85
3200.99
3201.11
3201.21
3201.26
3201.33
3201.38
3201.41
3201.39
3201.42
3201.43
3201.44
3201.41
3201.4
3201.39
3201.36
3201.31
3201.28
3201.25
3201.22
3201.16
3201.13
3201.08
3201.04
3200.98
3200.93
3200.87
3200.82
3200.76
3200.7
3200.62
3200.66
1528.96
1989.01
1884.89
1770.06
1685.61
1625.86
1585.44
1533.34
1466.55
1416.25
1385.43
1366.77
1355.4
1348.72
1345.24
1344.07
1344.62
1346.5
1349.48
1353.42
1358.18
1363.67
1369.84
1376.65
1384.04
1391.99
1400.46
1409.45
1418.91
1428.79
1439.05
1449.68
1460.61
1471.79
1483.16
1494.7
1506.31
1517.91
1529.43
1540.8
1551.94
1562.76
1573.21
1583.29
1592.9
1601.99
1610.54
1618.58
1626.09
1633.03
1639.45
1645.44
1650.96
1656
1660.62
1664.87
1668.75
1672.27
1675.48
1678.46
1681.19
1683.64
1685.87
1687.91
1689.77
1691.43
1692.93
1694.35
1695.64
1696.79
1697.8
1698.74
1699.59
1700.32
1700.98
1701.62
1702.21
1702.7
1703.12
1703.52
1703.87
1704.15
1704.39
1704.66
1704.89
1705.07
1705.22
1705.36
1705.48
1705.55
1705.61
1705.71
1705.78
1705.82
1705.85
1705.88
1705.9
1705.89
1705.88
1705.89
1705.9
1705.89
1705.86
1705.84
1705.82
1705.78
1705.74
1705.72
1705.7
1705.66
1705.62
1705.58
1705.54
1705.49
1705.44
1705.39
1705.34
1705.3
1705.25
1705.19
1705.15
1705.11
720.936
1168.14
1165.7
1105.61
1054.11
1014.06
983.927
954.323
926.847
909.594
899.192
892.47
888.2
885.741
884.635
884.569
885.31
886.706
888.696
891.237
894.283
897.806
901.798
906.257
911.164
916.498
922.269
928.469
935.063
942.011
949.295
956.895
964.765
972.847
981.131
989.584
998.129
1006.68
1015.2
1023.64
1031.92
1039.96
1047.77
1055.3
1062.51
1069.31
1075.73
1081.76
1087.39
1092.58
1097.41
1101.92
1106.09
1109.89
1113.36
1116.56
1119.48
1122.11
1124.53
1126.79
1128.86
1130.71
1132.38
1133.92
1135.32
1136.55
1137.68
1138.77
1139.76
1140.61
1141.37
1142.07
1142.7
1143.23
1143.73
1144.23
1144.68
1145.04
1145.36
1145.65
1145.9
1146.09
1146.28
1146.49
1146.67
1146.79
1146.9
1147
1147.08
1147.11
1147.16
1147.23
1147.29
1147.31
1147.33
1147.35
1147.35
1147.33
1147.32
1147.33
1147.34
1147.31
1147.29
1147.27
1147.24
1147.2
1147.17
1147.15
1147.12
1147.09
1147.05
1147.01
1146.97
1146.93
1146.88
1146.83
1146.79
1146.74
1146.7
1146.64
1146.62
1146.55
358.825
725.637
779.838
754.423
722.695
694.416
673.834
664.88
664.081
664.915
664.07
662.317
660.726
659.694
659.256
659.351
659.897
660.837
662.172
663.898
666.001
668.474
671.329
674.574
678.202
682.198
686.581
691.347
696.463
701.894
707.629
713.647
719.91
726.365
733.014
739.826
746.733
753.655
760.565
767.419
774.156
780.7
787.063
793.223
799.117
804.681
809.929
814.868
819.477
823.725
827.687
831.395
834.822
837.935
840.788
843.415
845.814
847.962
849.949
851.814
853.524
855.039
856.414
857.679
858.823
859.821
860.754
861.651
862.47
863.165
863.787
864.361
864.874
865.299
865.708
866.124
866.5
866.793
867.049
867.286
867.487
867.63
867.782
867.957
868.11
868.207
868.291
868.372
868.43
868.449
868.486
868.55
868.601
868.613
868.621
868.633
868.631
868.604
868.595
868.607
868.611
868.588
868.563
868.544
868.518
868.477
868.445
868.427
868.406
868.372
868.334
868.298
868.262
868.221
868.175
868.129
868.09
868.049
868.009
867.955
867.94
867.861
180.958
454.621
539.391
539.302
522.002
502.539
491.003
498.982
515.925
527.006
530.776
531.006
530.243
529.479
529
528.859
529.039
529.518
530.317
531.444
532.896
534.673
536.79
539.259
542.074
545.225
548.731
552.588
556.766
561.231
565.975
570.978
576.207
581.613
587.203
592.948
598.786
604.646
610.504
616.324
622.052
627.618
633.042
638.303
643.342
648.098
652.589
656.819
660.768
664.405
667.805
670.993
673.942
676.616
679.068
681.327
683.389
685.23
686.94
688.549
690.025
691.327
692.509
693.596
694.579
695.431
696.234
697.01
697.718
698.313
698.847
699.339
699.778
700.137
700.49
700.852
701.18
701.429
701.648
701.85
702.02
702.136
702.268
702.422
702.556
702.637
702.708
702.777
702.823
702.834
702.867
702.924
702.97
702.977
702.983
702.991
702.987
702.959
702.951
702.963
702.967
702.944
702.921
702.903
702.878
702.838
702.81
702.794
702.775
702.743
702.708
702.675
702.641
702.602
702.56
702.518
702.481
702.443
702.406
702.356
702.346
702.266
91.0686
278.195
374.357
393.485
388.041
376.16
372.83
393.836
422.88
440.342
446.557
447.504
446.783
445.791
444.966
444.42
444.162
444.182
444.501
445.13
446.066
447.308
448.873
450.767
452.987
455.521
458.389
461.585
465.081
468.842
472.864
477.127
481.601
486.239
491.054
496.017
501.071
506.152
511.241
516.306
521.298
526.154
530.897
535.505
539.927
544.102
548.051
551.773
555.252
558.456
561.458
564.277
566.887
569.252
571.422
573.422
575.247
576.874
578.389
579.818
581.13
582.283
583.33
584.293
585.164
585.915
586.628
587.319
587.95
588.477
588.949
589.385
589.773
590.088
590.403
590.728
591.021
591.242
591.436
591.615
591.765
591.865
591.983
592.123
592.245
592.315
592.379
592.439
592.48
592.487
592.517
592.57
592.612
592.617
592.622
592.629
592.625
592.597
592.591
592.603
592.607
592.585
592.564
592.547
592.523
592.486
592.46
592.446
592.429
592.399
592.367
592.337
592.305
592.269
592.23
592.191
592.157
592.122
592.088
592.041
592.034
591.956
46.1017
162.206
254.3
287.092
291.87
286.967
290.736
321.298
358.984
381.052
388.878
390.07
389.085
387.662
386.364
385.344
384.621
384.188
384.061
384.246
384.737
385.529
386.635
388.061
389.799
391.838
394.195
396.862
399.812
403.013
406.46
410.134
414.006
418.035
422.232
426.574
431.007
435.472
439.954
444.425
448.839
453.141
457.354
461.456
465.401
469.13
472.663
475.999
479.12
481.997
484.699
487.24
489.596
491.73
493.69
495.497
497.146
498.616
499.987
501.282
502.471
503.515
504.463
505.335
506.124
506.803
507.449
508.077
508.652
509.129
509.557
509.953
510.305
510.59
510.877
511.175
511.444
511.645
511.822
511.985
512.121
512.212
512.32
512.45
512.563
512.628
512.687
512.742
512.779
512.785
512.814
512.864
512.904
512.909
512.914
512.921
512.917
512.891
512.886
512.898
512.902
512.883
512.864
512.848
512.826
512.791
512.768
512.755
512.74
512.713
512.683
512.655
512.626
512.593
512.556
512.52
512.489
512.456
512.425
512.382
512.376
512.301
24.142
88.6618
165.023
205.357
218.736
220.348
229.986
267.148
311.288
337.298
346.622
348.016
346.716
344.816
343.012
341.499
340.31
339.437
338.888
338.662
338.75
339.141
339.845
340.863
342.185
343.799
345.718
347.934
350.421
353.147
356.106
359.281
362.645
366.16
369.839
373.658
377.57
381.521
385.498
389.475
393.412
397.258
401.035
404.724
408.279
411.648
414.847
417.873
420.71
423.329
425.793
428.115
430.271
432.225
434.021
435.679
437.193
438.541
439.801
440.992
442.087
443.048
443.921
444.723
445.449
446.074
446.67
447.25
447.781
448.222
448.618
448.984
449.309
449.573
449.84
450.116
450.367
450.555
450.72
450.872
450.999
451.084
451.186
451.308
451.415
451.477
451.533
451.586
451.621
451.628
451.656
451.704
451.743
451.749
451.755
451.762
451.759
451.736
451.732
451.744
451.749
451.732
451.714
451.7
451.68
451.648
451.627
451.616
451.602
451.577
451.55
451.524
451.497
451.466
451.432
451.399
451.37
451.34
451.311
451.271
451.266
451.196
13.5102
45.5714
99.8459
140.861
160.601
168.086
182.33
223.544
272.581
302.453
313.601
315.44
313.952
311.635
309.355
307.371
305.735
304.441
303.493
302.884
302.598
302.622
302.96
303.608
304.557
305.79
307.319
309.134
311.21
313.515
316.043
318.779
321.697
324.762
327.986
331.348
334.806
338.309
341.848
345.398
348.924
352.379
355.783
359.119
362.345
365.411
368.328
371.096
373.697
376.103
378.372
380.514
382.506
384.315
385.98
387.516
388.921
390.174
391.345
392.453
393.472
394.367
395.181
395.929
396.605
397.189
397.746
398.287
398.784
399.197
399.569
399.911
400.217
400.465
400.716
400.976
401.213
401.392
401.549
401.693
401.814
401.896
401.994
402.11
402.213
402.274
402.329
402.38
402.415
402.423
402.451
402.498
402.536
402.544
402.551
402.559
402.557
402.537
402.534
402.546
402.552
402.538
402.522
402.509
402.492
402.463
402.443
402.433
402.421
402.398
402.374
402.35
402.325
402.296
402.265
402.234
402.207
402.18
402.153
402.116
402.111
402.046
8.2339
22.8828
55.3106
90.3035
113.151
125.38
142.923
185.905
238.47
272.378
285.967
288.726
287.33
284.752
282.087
279.689
277.647
275.966
274.648
273.683
273.051
272.735
272.735
273.044
273.65
274.534
275.707
277.156
278.857
280.78
282.919
285.257
287.772
290.432
293.246
296.197
299.246
302.35
305.497
308.666
311.826
314.935
318.01
321.034
323.97
326.77
329.444
331.987
334.385
336.61
338.711
340.699
342.552
344.24
345.794
347.23
348.544
349.719
350.816
351.854
352.81
353.653
354.418
355.121
355.758
356.309
356.833
357.342
357.811
358.204
358.556
358.88
359.17
359.407
359.646
359.892
360.118
360.29
360.442
360.58
360.697
360.778
360.873
360.984
361.084
361.145
361.2
361.25
361.286
361.297
361.325
361.37
361.408
361.418
361.427
361.436
361.436
361.419
361.418
361.43
361.437
361.425
361.412
361.401
361.385
361.359
361.341
361.332
361.322
361.301
361.279
361.257
361.234
361.208
361.179
361.15
361.125
361.1
361.075
361.041
361.036
360.976
5.47987
11.9958
28.2459
52.7193
74.5099
89.5681
108.952
151.545
206.138
244.229
261.054
265.416
264.551
261.974
259.082
256.371
253.992
251.974
250.327
249.039
248.092
247.464
247.153
247.148
247.437
248.001
248.844
249.955
251.31
252.882
254.663
256.636
258.781
261.069
263.508
266.082
268.758
271.496
274.285
277.107
279.934
282.728
285.503
288.244
290.917
293.478
295.932
298.275
300.49
302.554
304.507
306.359
308.09
309.671
311.129
312.478
313.714
314.822
315.856
316.833
317.735
318.533
319.257
319.922
320.525
321.049
321.546
322.028
322.473
322.848
323.184
323.493
323.77
323.999
324.228
324.463
324.679
324.847
324.994
325.129
325.243
325.324
325.417
325.523
325.62
325.683
325.738
325.788
325.825
325.839
325.868
325.912
325.95
325.963
325.974
325.984
325.986
325.972
325.973
325.985
325.993
325.983
325.972
325.963
325.949
325.926
325.91
325.902
325.892
325.874
325.854
325.834
325.813
325.789
325.763
325.736
325.714
325.69
325.667
325.636
325.631
325.576
3.95869
6.92991
14.0525
27.7462
44.5175
59.6061
79.0274
119.088
173.831
215.941
236.833
243.66
243.932
241.739
238.861
235.993
233.382
231.104
229.184
227.62
226.395
225.49
224.897
224.607
224.606
224.874
225.413
226.212
227.248
228.495
229.943
231.579
233.382
235.326
237.418
239.643
241.973
244.372
246.83
249.33
251.848
254.35
256.846
259.324
261.753
264.091
266.342
268.499
270.546
272.462
274.279
276.006
277.625
279.109
280.48
281.749
282.915
283.964
284.941
285.864
286.717
287.475
288.163
288.795
289.368
289.868
290.341
290.798
291.221
291.582
291.904
292.2
292.466
292.688
292.908
293.132
293.34
293.504
293.648
293.779
293.892
293.974
294.065
294.167
294.262
294.326
294.382
294.432
294.471
294.488
294.518
294.56
294.598
294.614
294.627
294.638
294.643
294.633
294.634
294.646
294.655
294.648
294.64
294.632
294.62
294.6
294.586
294.579
294.571
294.555
294.537
294.519
294.5
294.478
294.454
294.429
294.408
294.387
294.366
294.337
294.332
294.281
3.07739
4.48328
7.43327
13.6796
23.7155
35.7729
52.9748
88.2616
140.734
186.064
211.669
221.926
224.111
222.828
220.306
217.507
214.819
212.39
210.279
208.502
207.052
205.911
205.074
204.532
204.27
204.271
204.533
205.046
205.788
206.735
207.877
209.2
210.686
212.312
214.081
215.982
217.989
220.072
222.221
224.419
226.647
228.874
231.107
233.336
235.532
237.66
239.718
241.697
243.585
245.361
247.048
248.656
250.168
251.56
252.85
254.045
255.145
256.137
257.061
257.933
258.74
259.461
260.116
260.716
261.261
261.74
262.191
262.624
263.026
263.373
263.683
263.967
264.223
264.439
264.65
264.863
265.063
265.224
265.365
265.493
265.604
265.688
265.776
265.875
265.967
266.033
266.089
266.14
266.18
266.201
266.232
266.273
266.311
266.329
266.344
266.357
266.363
266.357
266.36
266.372
266.381
266.378
266.371
266.365
266.355
266.338
266.326
266.319
266.312
266.299
266.283
266.267
266.25
266.23
266.208
266.186
266.167
266.147
266.127
266.102
266.096
266.051
2.55077
3.21809
4.43991
6.94986
11.6374
18.9801
31.693
59.8902
107.056
153.832
184.279
198.886
203.89
204.193
202.491
200.075
197.528
195.103
192.916
191.013
189.406
188.087
187.054
186.301
185.815
185.582
185.598
185.853
186.328
187.003
187.864
188.899
190.093
191.425
192.895
194.494
196.201
197.988
199.846
201.76
203.713
205.68
207.662
209.652
211.626
213.55
215.42
217.228
218.961
220.598
222.16
223.65
225.057
226.36
227.569
228.691
229.726
230.664
231.536
232.357
233.119
233.804
234.425
234.995
235.514
235.972
236.4
236.81
237.192
237.524
237.822
238.094
238.339
238.549
238.752
238.954
239.145
239.303
239.441
239.566
239.675
239.76
239.847
239.941
240.03
240.097
240.154
240.206
240.247
240.272
240.302
240.342
240.38
240.401
240.418
240.432
240.44
240.438
240.442
240.453
240.463
240.462
240.458
240.454
240.446
240.432
240.421
240.415
240.409
240.398
240.384
240.37
240.355
240.337
240.318
240.298
240.28
240.262
240.244
240.221
240.214
240.174
2.23304
2.52146
3.02076
3.98132
5.82557
9.22812
16.5412
35.8243
74.2399
119.425
153.876
173.417
182.167
184.861
184.574
182.963
180.854
178.647
176.542
174.633
172.962
171.542
170.375
169.463
168.799
168.372
168.178
168.209
168.45
168.88
169.489
170.264
171.192
172.254
173.449
174.769
176.196
177.708
179.293
180.94
182.634
184.352
186.095
187.855
189.612
191.337
193.023
194.661
196.24
197.74
199.175
200.548
201.849
203.06
204.187
205.235
206.205
207.087
207.906
208.676
209.392
210.039
210.627
211.165
211.656
212.092
212.498
212.884
213.244
213.562
213.846
214.105
214.34
214.543
214.737
214.928
215.109
215.263
215.397
215.519
215.625
215.71
215.795
215.885
215.971
216.038
216.096
216.147
216.189
216.217
216.248
216.287
216.323
216.347
216.365
216.381
216.391
216.392
216.397
216.408
216.419
216.42
216.418
216.415
216.41
216.398
216.389
216.384
216.379
216.37
216.358
216.346
216.332
216.317
216.3
216.282
216.266
216.249
216.233
216.213
216.206
216.171
2.04418
2.12297
2.29787
2.64423
3.30821
4.6058
7.81999
18.2839
45.0285
84.3666
120.505
144.768
157.973
163.904
165.743
165.471
164.191
162.488
160.678
158.926
157.318
155.895
154.678
153.677
152.893
152.323
151.964
151.811
151.853
152.073
152.461
153.005
153.695
154.515
155.46
156.526
157.696
158.953
160.284
161.681
163.13
164.612
166.126
167.664
169.21
170.74
172.244
173.713
175.137
176.498
177.804
179.058
180.25
181.366
182.408
183.379
184.279
185.102
185.866
186.583
187.25
187.856
188.408
188.913
189.375
189.787
190.168
190.53
190.867
191.168
191.437
191.683
191.906
192.101
192.284
192.464
192.634
192.782
192.912
193.028
193.132
193.217
193.299
193.383
193.465
193.532
193.589
193.64
193.683
193.713
193.745
193.781
193.816
193.841
193.861
193.878
193.89
193.894
193.9
193.911
193.921
193.925
193.925
193.924
193.92
193.911
193.904
193.9
193.895
193.888
193.878
193.868
193.856
193.843
193.828
193.812
193.797
193.783
193.768
193.751
193.743
193.712
1.93663
1.89382
1.90926
1.99942
2.20873
2.64729
3.80476
8.13865
22.82
51.8262
85.5733
112.936
130.651
140.491
145.198
146.895
146.933
146.106
144.871
143.491
142.113
140.82
139.661
138.661
137.834
137.184
136.716
136.429
136.316
136.366
136.57
136.919
137.402
138.009
138.733
139.57
140.509
141.532
142.631
143.796
145.015
146.275
147.571
148.896
150.238
151.577
152.901
154.202
155.469
156.689
157.864
158.993
160.073
161.088
162.039
162.928
163.755
164.514
165.219
165.878
166.493
167.055
167.567
168.036
168.465
168.851
169.206
169.54
169.853
170.134
170.387
170.617
170.826
171.011
171.183
171.35
171.508
171.648
171.772
171.883
171.982
172.065
172.144
172.223
172.3
172.365
172.421
172.471
172.514
172.546
172.577
172.611
172.645
172.671
172.691
172.709
172.722
172.729
172.736
172.746
172.757
172.762
172.764
172.764
172.762
172.756
172.75
172.746
172.743
172.737
172.73
172.721
172.711
172.699
172.687
172.673
172.66
172.647
172.634
172.619
172.61
172.584
1.87971
1.7662
1.69697
1.67044
1.6973
1.81226
2.17571
3.62192
9.60125
26.1428
52.3643
79.2798
100.265
114.1
122.24
126.541
128.456
128.956
128.652
127.921
126.993
126.005
125.043
124.161
123.388
122.741
122.236
121.877
121.664
121.593
121.656
121.849
122.164
122.591
123.127
123.766
124.499
125.315
126.204
127.158
128.167
129.22
130.311
131.435
132.581
133.733
134.881
136.014
137.125
138.2
139.24
140.242
141.203
142.112
142.967
143.768
144.515
145.204
145.844
146.442
146.999
147.511
147.98
148.409
148.802
149.156
149.482
149.788
150.073
150.331
150.565
150.777
150.971
151.143
151.302
151.455
151.6
151.73
151.846
151.951
152.044
152.124
152.198
152.271
152.342
152.404
152.458
152.506
152.547
152.58
152.611
152.643
152.674
152.7
152.721
152.739
152.753
152.762
152.77
152.78
152.79
152.796
152.799
152.801
152.8
152.796
152.792
152.789
152.786
152.782
152.776
152.769
152.76
152.751
152.74
152.728
152.717
152.705
152.694
152.681
152.673
152.65
1.85262
1.70014
1.58446
1.50025
1.44748
1.43562
1.51509
1.933
3.80249
10.5092
25.7743
47.1945
68.2941
84.9744
96.5217
103.846
108.16
110.476
111.52
111.78
111.577
111.116
110.534
109.918
109.324
108.789
108.337
107.984
107.74
107.607
107.584
107.67
107.86
108.148
108.532
109.007
109.567
110.204
110.91
111.677
112.498
113.362
114.266
115.202
116.164
117.138
118.114
119.084
120.038
120.968
121.87
122.742
123.58
124.376
125.128
125.835
126.495
127.107
127.675
128.206
128.701
129.157
129.576
129.96
130.312
130.632
130.925
131.198
131.453
131.685
131.896
132.089
132.264
132.421
132.566
132.703
132.833
132.951
133.057
133.153
133.239
133.314
133.383
133.45
133.514
133.571
133.622
133.667
133.706
133.739
133.768
133.797
133.826
133.851
133.872
133.889
133.904
133.914
133.922
133.932
133.941
133.948
133.952
133.955
133.955
133.953
133.951
133.948
133.946
133.943
133.938
133.933
133.926
133.918
133.909
133.9
133.89
133.88
133.87
133.859
133.851
133.832
1.84139
1.6697
1.52947
1.41574
1.32561
1.26015
1.23418
1.31891
1.81077
3.7771
9.76679
21.9404
38.4158
54.9202
68.5965
78.7014
85.6464
90.1722
92.9756
94.6017
95.4457
95.7839
95.8068
95.6452
95.3888
95.0984
94.8166
94.5706
94.3822
94.2632
94.2207
94.2581
94.3764
94.574
94.8499
95.2022
95.6275
96.1199
96.6734
97.2822
97.9402
98.6398
99.3762
100.144
100.936
101.743
102.557
103.369
104.171
104.956
105.72
106.459
107.171
107.85
108.493
109.098
109.665
110.192
110.683
111.14
111.566
111.961
112.324
112.657
112.964
113.242
113.498
113.736
113.957
114.16
114.345
114.514
114.668
114.808
114.936
115.056
115.169
115.273
115.368
115.454
115.531
115.599
115.661
115.72
115.777
115.828
115.874
115.915
115.952
115.983
116.01
116.037
116.062
116.085
116.105
116.122
116.136
116.146
116.155
116.164
116.172
116.179
116.184
116.187
116.189
116.188
116.187
116.185
116.184
116.181
116.178
116.173
116.168
116.162
116.155
116.147
116.138
116.13
116.121
116.112
116.104
116.088
1.83747
1.65774
1.50597
1.3778
1.26991
1.18067
1.11322
1.08712
1.1783
1.64211
3.24946
7.62302
16.1893
28.125
40.8322
52.1421
61.1601
67.8788
72.6674
75.9689
78.1781
79.6086
80.4963
81.014
81.2874
81.4065
81.4364
81.4244
81.4014
81.392
81.4132
81.4765
81.5892
81.7551
81.9769
82.2554
82.5904
82.9791
83.4181
83.9032
84.4299
84.9929
85.5876
86.2093
86.8525
87.51
88.1744
88.8387
89.4966
90.1414
90.7691
91.3764
91.9612
92.5194
93.0487
93.5474
94.0149
94.4505
94.8558
95.2333
95.5851
95.9113
96.2125
96.4898
96.7446
96.9777
97.1918
97.3898
97.574
97.7438
97.8998
98.0424
98.1728
98.2913
98.4002
98.5017
98.5971
98.6854
98.7664
98.84
98.9067
98.9664
99.0207
99.0715
99.1195
99.1638
99.2042
99.2404
99.2726
99.3005
99.3255
99.3487
99.3709
99.391
99.4088
99.4241
99.4371
99.4475
99.4563
99.4642
99.4718
99.4781
99.4831
99.4865
99.4886
99.489
99.4886
99.4876
99.4864
99.4846
99.4821
99.4787
99.4746
99.4697
99.4641
99.4577
99.4509
99.4438
99.4366
99.4289
99.4219
99.4082
1.83635
1.65389
1.49762
1.36332
1.24763
1.14813
1.06419
0.999971
0.973936
1.04377
1.37437
2.40593
5.03671
10.2612
18.1211
27.3751
36.4617
44.3847
50.8048
55.773
59.505
62.2525
64.2456
65.6745
66.6901
67.4089
67.9192
68.2874
68.5635
68.7834
68.973
69.1547
69.3438
69.5512
69.7846
70.0493
70.3485
70.6833
71.0532
71.4562
71.8899
72.3509
72.8357
73.3403
73.8604
74.3904
74.9248
75.4574
75.9832
76.497
76.9952
77.475
77.9348
78.3724
78.7861
79.175
79.5388
79.8776
80.1924
80.4849
80.757
81.0095
81.2432
81.4587
81.6571
81.8394
82.0072
82.1623
82.3065
82.44
82.5633
82.6765
82.7805
82.8757
82.9633
83.0446
83.1209
83.1919
83.2575
83.3176
83.3724
83.4219
83.4671
83.5088
83.5481
83.5845
83.618
83.6483
83.6756
83.6995
83.7211
83.7407
83.7591
83.776
83.7912
83.8045
83.8159
83.8253
83.8334
83.8404
83.8469
83.8524
83.8569
83.8602
83.8624
83.8634
83.8636
83.8631
83.8622
83.8609
83.8591
83.8566
83.8534
83.8496
83.8452
83.8402
83.8348
83.829
83.8231
83.8167
83.8106
83.7988
1.83609
1.6529
1.49526
1.35888
1.24033
1.13696
1.04696
0.97006
0.90955
0.87752
0.906797
1.08064
1.60154
2.88608
5.52869
9.9276
15.8527
22.5075
29.0246
34.8427
39.7454
43.7311
46.8982
49.3793
51.3084
52.8046
53.9673
54.8766
55.5973
56.1794
56.6633
57.0764
57.4424
57.7812
58.1072
58.4313
58.7614
59.103
59.459
59.8306
60.2178
60.6193
61.0331
61.4563
61.8858
62.3174
62.747
63.1697
63.5817
63.9794
64.36
64.7216
65.0635
65.3848
65.6855
65.9652
66.2247
66.4647
66.6864
66.8911
67.0807
67.2563
67.4189
67.569
67.7077
67.8356
67.9539
68.0635
68.1656
68.2607
68.3492
68.4311
68.5069
68.5768
68.6416
68.7018
68.7583
68.8112
68.8606
68.9061
68.9481
68.9863
69.0215
69.0539
69.0842
69.1123
69.1385
69.1624
69.184
69.2033
69.2208
69.2366
69.2512
69.2646
69.2768
69.2876
69.297
69.305
69.3119
69.3177
69.3229
69.3274
69.3313
69.3341
69.3362
69.3373
69.3378
69.3376
69.337
69.336
69.3347
69.3327
69.3303
69.3274
69.3241
69.3202
69.316
69.3114
69.3066
69.3016
69.2964
69.2869
1.83604
1.65269
1.49473
1.35782
1.23848
1.13395
1.04211
0.961507
0.89167
0.83403
0.794204
0.786649
0.844936
1.0443
1.53962
2.59428
4.52681
7.53309
11.5131
16.0788
20.7452
25.1271
29.0171
32.3526
35.1536
37.4757
39.3875
40.9579
42.2517
43.3248
44.2242
44.9874
45.6456
46.2209
46.7351
47.2059
47.6468
48.068
48.477
48.8782
49.2748
49.6681
50.0581
50.4432
50.8217
51.1909
51.5477
51.8889
52.212
52.5147
52.7959
53.0549
53.292
53.508
53.7043
53.8818
54.0423
54.1873
54.3188
54.4381
54.5472
54.6473
54.7398
54.8252
54.9044
54.978
55.0467
55.1109
55.1714
55.2284
55.2824
55.333
55.3807
55.4254
55.4674
55.5069
55.5442
55.5796
55.613
55.6443
55.6735
55.7006
55.7257
55.749
55.7707
55.791
55.81
55.8275
55.8436
55.8581
55.8715
55.8834
55.8944
55.9045
55.9138
55.922
55.9293
55.9356
55.9412
55.9458
55.9499
55.9534
55.9564
55.9587
55.9604
55.9615
55.9621
55.9621
55.9617
55.961
55.9599
55.9585
55.9567
55.9545
55.952
55.9491
55.9459
55.9424
55.9387
55.9347
55.9305
55.9226
1.83603
1.65264
1.49462
1.3576
1.23811
1.13333
1.04107
0.95962
0.887687
0.824444
0.769912
0.725759
0.696766
0.693711
0.7392
0.878597
1.19542
1.82156
2.91997
4.62339
6.95888
9.81192
12.962
16.1622
19.2138
21.9979
24.4686
26.6262
28.4946
30.1056
31.4933
32.6908
33.7293
34.6373
35.4385
36.1498
36.7894
37.3724
37.9101
38.4113
38.8821
39.3269
39.7479
40.1456
40.5196
40.8685
41.1911
41.4855
41.751
41.9872
42.1946
42.3742
42.5281
42.6586
42.7686
42.8606
42.9373
43.0015
43.0555
43.1013
43.1409
43.1759
43.2076
43.2367
43.2641
43.2903
43.3158
43.3406
43.365
43.3891
43.4131
43.4368
43.4601
43.483
43.5054
43.5271
43.5483
43.5689
43.589
43.6082
43.6266
43.6442
43.6609
43.6765
43.6913
43.7052
43.7185
43.7308
43.7423
43.7529
43.7627
43.7717
43.7799
43.7874
43.7943
43.8006
43.8062
43.8111
43.8156
43.8193
43.8226
43.8254
43.8278
43.8297
43.8312
43.8322
43.8329
43.8332
43.8331
43.8327
43.832
43.8311
43.8298
43.8283
43.8266
43.8245
43.8222
43.8197
43.817
43.8141
43.8109
43.805
1.83602
1.65261
1.49457
1.35754
1.23801
1.13321
1.04088
0.959295
0.887007
0.822799
0.765703
0.715131
0.671065
0.634423
0.607731
0.596357
0.610754
0.670405
0.809389
1.08131
1.55908
2.32235
3.43317
4.90903
6.70945
8.74264
10.8905
13.0372
15.093
17.0019
18.7402
20.3056
21.7086
22.9648
24.0899
25.1001
26.0085
26.8241
27.5607
28.2295
28.8395
29.3973
29.9069
30.3707
30.7897
31.1646
31.4956
31.7834
32.0294
32.2354
32.4045
32.5396
32.6447
32.7238
32.7812
32.8205
32.8457
32.8599
32.8661
32.8667
32.8638
32.8589
32.8535
32.8484
32.8443
32.8416
32.8407
32.8416
32.8442
32.8485
32.8546
32.862
32.8708
32.8805
32.8913
32.9026
32.9143
32.9264
32.9388
32.9512
32.9636
32.9757
32.9877
32.9993
33.0104
33.0211
33.0314
33.0411
33.0503
33.059
33.0673
33.0749
33.0819
33.0884
33.0945
33.1
33.105
33.1096
33.1138
33.1175
33.1207
33.1235
33.126
33.1281
33.1298
33.1312
33.1323
33.1331
33.1335
33.1337
33.1337
33.1334
33.1328
33.1321
33.1311
33.1299
33.1285
33.1269
33.1252
33.1233
33.1211
33.1167
1.83602
1.65258
1.49453
1.35749
1.23796
1.13314
1.04082
0.959218
0.886887
0.822557
0.765124
0.713682
0.667519
0.626145
0.589338
0.557267
0.530715
0.511444
0.502839
0.510943
0.54613
0.625107
0.772639
1.02154
1.40952
1.97209
2.73359
3.69904
4.8507
6.15009
7.54535
8.98058
10.4052
11.7798
13.0787
14.2889
15.4066
16.4355
17.3787
18.2376
19.0188
19.7268
20.3649
20.9355
21.4409
21.8833
22.2659
22.5921
22.8661
23.0927
23.2771
23.4242
23.5393
23.6274
23.6931
23.7407
23.774
23.7963
23.8104
23.8187
23.823
23.8249
23.8257
23.8263
23.8272
23.829
23.8321
23.8365
23.8422
23.8493
23.8577
23.8673
23.8779
23.8894
23.9017
23.9146
23.9278
23.9412
23.9549
23.9685
23.982
23.9954
24.0086
24.0214
24.0338
24.0457
24.0572
24.0681
24.0785
24.0885
24.0979
24.1067
24.115
24.1227
24.1299
24.1366
24.1427
24.1484
24.1537
24.1585
24.1628
24.1667
24.1702
24.1733
24.1761
24.1785
24.1806
24.1823
24.1838
24.1849
24.1858
24.1865
24.1869
24.1871
24.1871
24.1869
24.1865
24.1859
24.1851
24.1842
24.183
24.1803
1.83601
1.65256
1.4945
1.35745
1.23791
1.1331
1.04077
0.95917
0.886834
0.822489
0.765021
0.713489
0.667109
0.625232
0.587323
0.552961
0.521838
0.493789
0.468829
0.447244
0.429715
0.417533
0.412921
0.419537
0.443153
0.492341
0.578961
0.718018
0.926696
1.22225
1.61928
2.12684
2.74631
3.47038
4.28364
5.16413
6.08627
7.02395
7.95288
8.85414
9.70865
10.504
11.2344
11.8984
12.497
13.0336
13.5123
13.9377
14.3145
14.6472
14.9403
15.1976
15.423
15.62
15.7919
15.9417
16.0723
16.1862
16.2857
16.3731
16.45
16.5181
16.579
16.6337
16.6833
16.7287
16.7707
16.8097
16.8463
16.8809
16.9137
16.9449
16.9748
17.0035
17.0312
17.0577
17.0833
17.1078
17.1314
17.1541
17.1758
17.1967
17.2166
17.2357
17.2538
17.2711
17.2875
17.303
17.3176
17.3315
17.3446
17.3568
17.3683
17.3791
17.3891
17.3985
17.4072
17.4153
17.4227
17.4296
17.4359
17.4417
17.447
17.4518
17.4562
17.4601
17.4636
17.4668
17.4695
17.472
17.4741
17.4759
17.4774
17.4787
17.4797
17.4805
17.4811
17.4814
17.4816
17.4816
17.4814
17.48
1.83601
1.65254
1.49448
1.35742
1.23788
1.13307
1.04074
0.959139
0.886801
0.822453
0.764979
0.713437
0.667039
0.62512
0.587123
0.552576
0.521078
0.492293
0.465943
0.441803
0.419709
0.399566
0.381367
0.365226
0.351425
0.340492
0.333306
0.331261
0.33649
0.35212
0.382514
0.433396
0.511827
0.625907
0.784192
0.994783
1.26436
1.5972
1.99444
2.45372
2.97001
3.5346
4.13521
4.75847
5.391
6.02041
6.63587
7.22854
7.79166
8.32046
8.812
9.26489
9.67897
10.0551
10.3949
10.7005
10.9743
11.219
11.4372
11.6316
11.8047
11.959
12.0967
12.2198
12.3301
12.4293
12.5189
12.5999
12.6737
12.7411
12.8028
12.8597
12.9123
12.9611
13.0065
13.0488
13.0884
13.1255
13.1604
13.1931
13.2239
13.253
13.2803
13.306
13.3302
13.3531
13.3745
13.3947
13.4137
13.4315
13.4482
13.4638
13.4784
13.4921
13.5048
13.5167
13.5277
13.538
13.5475
13.5563
13.5644
13.5718
13.5787
13.5849
13.5907
13.5959
13.6006
13.6049
13.6087
13.6122
13.6152
13.6179
13.6203
13.6224
13.6242
13.6257
13.627
13.6281
13.6289
13.6296
13.63
13.6293
1.83601
1.65254
1.49448
1.35742
1.23788
1.13307
1.04074
0.959138
0.886801
0.822453
0.764979
0.713438
0.667039
0.625121
0.587124
0.552577
0.52108
0.492296
0.465948
0.441811
0.419722
0.399586
0.381396
0.365266
0.351476
0.340549
0.333352
0.331258
0.336365
0.351744
0.381664
0.43173
0.50885
0.620941
0.77637
0.983118
1.24783
1.57485
1.96551
2.41775