/*--------------------------------*- C++ -*----------------------------------*\
  =========                 |
  \\      /  F ield         | OpenFOAM: The Open Source CFD Toolbox
   \\    /   O peration     | Website:  https://openfoam.org
    \\  /    A nd           | Version:  8
     \\/     M anipulation  |
\*---------------------------------------------------------------------------*/
FoamFile
{
    version     2.0;
    format      ascii;
    class       volScalarField;
    location    "250";
    object      k;
}
// * * * * * * * * * * * * * * * * * * * * * * * * * * * * * * * * * * * * * //

dimensions      [0 2 -2 0 0 0 0];

internalField   nonuniform List<scalar> 
7320
(
6.0764
5.55929
5.24708
5.04128
4.89361
4.79383
4.76196
4.76613
4.75269
4.72406
4.69549
4.67384
4.65974
4.65198
4.64912
4.65016
4.65425
4.66078
4.66934
4.67982
4.6919
4.70543
4.72024
4.73636
4.75365
4.77202
4.79135
4.81176
4.83306
4.85518
4.87796
4.90145
4.92547
4.94988
4.9745
4.9994
5.02432
5.0491
5.07353
5.0976
5.12107
5.14379
5.16557
5.18654
5.20648
5.22533
5.24298
5.25958
5.27506
5.28938
5.30254
5.31482
5.32614
5.33652
5.34595
5.35469
5.36267
5.36992
5.37644
5.38254
5.38811
5.39317
5.3977
5.40191
5.40574
5.40918
5.41221
5.41511
5.41775
5.42011
5.42218
5.42414
5.4259
5.42745
5.42875
5.43007
5.43126
5.4323
5.43316
5.43401
5.43476
5.43538
5.43585
5.4364
5.43689
5.43729
5.43758
5.43791
5.43818
5.43838
5.43848
5.43867
5.43884
5.43896
5.439
5.43909
5.43916
5.43919
5.43914
5.43918
5.43921
5.43921
5.43916
5.43915
5.43913
5.43909
5.439
5.43897
5.43893
5.43889
5.43881
5.43875
5.43869
5.43863
5.43854
5.43846
5.43838
5.43831
5.43823
5.43814
5.43802
5.43803
4.84202
5.67911
5.53979
5.36017
5.2165
5.11359
5.07976
5.10208
5.14566
5.19877
5.24432
5.27835
5.30418
5.32508
5.34302
5.35927
5.37451
5.38921
5.40393
5.41921
5.43526
5.4523
5.47055
5.49026
5.51148
5.53424
5.55866
5.58486
5.61269
5.64202
5.67276
5.70491
5.73825
5.77253
5.8077
5.84371
5.88018
5.91674
5.95319
5.98937
6.02493
6.05951
6.09306
6.12558
6.15672
6.18617
6.21392
6.24009
6.26452
6.28709
6.30807
6.32773
6.34592
6.36252
6.3777
6.39171
6.40453
6.41607
6.42665
6.43661
6.44577
6.45396
6.46135
6.46819
6.4744
6.47986
6.48488
6.48972
6.49417
6.49801
6.50142
6.50459
6.50743
6.50983
6.51204
6.51431
6.51638
6.51806
6.51949
6.52084
6.52199
6.52286
6.52368
6.52464
6.5255
6.52609
6.52657
6.52705
6.52742
6.52759
6.52777
6.52812
6.52841
6.52853
6.52858
6.52867
6.52869
6.52859
6.52852
6.52858
6.52861
6.52853
6.5284
6.52831
6.52819
6.528
6.52781
6.52772
6.52761
6.52744
6.52725
6.52707
6.52688
6.52667
6.52644
6.5262
6.52599
6.52578
6.52557
6.52529
6.5252
6.5248
3.59574
5.05135
5.15988
5.06784
4.96315
4.87719
4.87312
5.01296
5.25299
5.48352
5.64903
5.75898
5.83409
5.88824
5.92927
5.96182
5.98864
6.0116
6.03234
6.05216
6.07183
6.09196
6.11316
6.13595
6.16059
6.18722
6.21615
6.24758
6.28137
6.31731
6.35537
6.39551
6.43747
6.48089
6.52578
6.57204
6.61916
6.66655
6.71398
6.76122
6.80779
6.85313
6.89731
6.94026
6.98148
7.02047
7.05728
7.09201
7.12448
7.15444
7.18238
7.20864
7.233
7.25515
7.27544
7.29419
7.31134
7.3267
7.3409
7.35431
7.36667
7.37765
7.38759
7.39677
7.4051
7.41238
7.41914
7.42572
7.43177
7.43693
7.44151
7.44577
7.44958
7.45274
7.45574
7.45886
7.46171
7.46395
7.46588
7.46768
7.46921
7.4703
7.47141
7.47274
7.47393
7.47471
7.47535
7.47598
7.47643
7.47659
7.47683
7.47732
7.47773
7.47785
7.4779
7.478
7.47799
7.47779
7.47769
7.47778
7.47782
7.47766
7.47745
7.4773
7.4771
7.47678
7.47651
7.47636
7.47619
7.47593
7.47563
7.47535
7.47506
7.47473
7.47436
7.47399
7.47367
7.47333
7.47301
7.47257
7.47246
7.47173
2.74722
4.4834
4.83298
4.83973
4.77981
4.71518
4.75451
5.03925
5.48483
5.87545
6.13841
6.3061
6.41721
6.49508
6.55236
6.59632
6.63128
6.66012
6.68522
6.70845
6.73096
6.75363
6.77733
6.80279
6.83038
6.86031
6.89304
6.92884
6.96754
7.00888
7.05287
7.09945
7.14831
7.199
7.25159
7.30595
7.36143
7.41731
7.47334
7.52923
7.5844
7.63815
7.69062
7.74171
7.7908
7.83723
7.88112
7.92255
7.96131
7.99705
8.03046
8.06189
8.09105
8.11757
8.14187
8.16433
8.18487
8.20326
8.22028
8.2364
8.25126
8.26443
8.27636
8.28739
8.29739
8.30609
8.31423
8.32216
8.32946
8.33566
8.34117
8.34629
8.35087
8.35464
8.35828
8.36206
8.36551
8.36821
8.37053
8.3727
8.37453
8.37582
8.37717
8.37879
8.38025
8.38118
8.38195
8.3827
8.38324
8.38341
8.38371
8.38432
8.38482
8.38495
8.38502
8.38513
8.38511
8.38484
8.38472
8.38483
8.38488
8.38468
8.38443
8.38424
8.38398
8.38357
8.38324
8.38305
8.38285
8.38252
8.38214
8.38179
8.38143
8.38101
8.38055
8.38009
8.37969
8.37926
8.37887
8.37831
8.3782
8.37724
2.10347
3.90608
4.48956
4.61194
4.6074
4.5723
4.66992
5.11795
5.76639
6.30045
6.64559
6.86004
6.99948
7.09563
7.16525
7.21778
7.25881
7.29203
7.32039
7.34619
7.37086
7.39552
7.4212
7.4488
7.47878
7.51142
7.54726
7.58662
7.62931
7.67507
7.72389
7.77572
7.8302
7.88683
7.94571
8.00667
8.06899
8.13185
8.19495
8.25797
8.32026
8.381
8.44039
8.49827
8.55394
8.60665
8.65651
8.70363
8.74772
8.78841
8.82648
8.86233
8.8956
8.92585
8.95361
8.97926
9.00273
9.02373
9.0432
9.06164
9.07865
9.09371
9.10738
9.12
9.13145
9.14141
9.15075
9.15985
9.16823
9.17533
9.18166
9.18753
9.19279
9.19712
9.20132
9.20567
9.20966
9.21276
9.21545
9.21794
9.22005
9.22154
9.22311
9.225
9.22669
9.22776
9.22866
9.22954
9.23016
9.23035
9.23072
9.23143
9.23202
9.23218
9.23226
9.23239
9.23237
9.23206
9.23193
9.23207
9.23214
9.2319
9.23162
9.23139
9.2311
9.23063
9.23025
9.23004
9.2298
9.22943
9.22899
9.22858
9.22816
9.22768
9.22714
9.22661
9.22615
9.22566
9.2252
9.22456
9.22444
9.2233
1.61627
3.30904
4.10187
4.3562
4.42027
4.42532
4.59394
5.21261
6.05699
6.72469
7.14489
7.40118
7.56536
7.67711
7.75704
7.8166
7.86251
7.89918
7.93004
7.95778
7.98405
8.01017
8.03733
8.06654
8.09835
8.13309
8.17138
8.21357
8.25949
8.30882
8.36159
8.41773
8.47686
8.53842
8.60255
8.66906
8.73716
8.80594
8.87509
8.94425
9.01268
9.07953
9.14497
9.20884
9.27036
9.32866
9.38389
9.43612
9.48505
9.53024
9.57257
9.61245
9.6495
9.6832
9.71414
9.74274
9.76891
9.79234
9.81409
9.83468
9.85368
9.87052
9.8858
9.8999
9.91271
9.92386
9.93433
9.94452
9.95391
9.96188
9.96899
9.97558
9.98149
9.98636
9.9911
9.996
10.0005
10.004
10.007
10.0099
10.0122
10.0139
10.0157
10.0179
10.0198
10.021
10.0221
10.0231
10.0238
10.024
10.0245
10.0253
10.026
10.0261
10.0263
10.0264
10.0264
10.0261
10.026
10.0261
10.0262
10.0259
10.0256
10.0254
10.0251
10.0245
10.0241
10.0239
10.0236
10.0232
10.0227
10.0223
10.0218
10.0213
10.0207
10.0201
10.0196
10.019
10.0185
10.0178
10.0177
10.0164
1.26815
2.70653
3.65761
4.05482
4.20217
4.25973
4.50867
5.29657
6.33064
7.1296
7.62434
7.92189
8.11001
8.23649
8.32591
8.39177
8.44192
8.48146
8.51432
8.54349
8.57089
8.59799
8.62613
8.65644
8.68953
8.72578
8.76588
8.81024
8.85865
8.91081
8.96674
9.02637
9.08931
9.15496
9.22349
9.29469
9.36772
9.44159
9.516
9.59054
9.66443
9.73672
9.80762
9.87694
9.94381
10.0073
10.0675
10.1245
10.178
10.2275
10.2738
10.3176
10.3582
10.3952
10.4293
10.4607
10.4895
10.5153
10.5393
10.5619
10.5829
10.6014
10.6183
10.6339
10.648
10.6603
10.6719
10.6832
10.6936
10.7024
10.7103
10.7176
10.7242
10.7296
10.7349
10.7403
10.7453
10.7492
10.7527
10.7558
10.7585
10.7604
10.7625
10.7649
10.767
10.7684
10.7696
10.7707
10.7716
10.7719
10.7724
10.7733
10.7741
10.7743
10.7745
10.7747
10.7747
10.7744
10.7742
10.7744
10.7745
10.7743
10.774
10.7737
10.7733
10.7728
10.7723
10.7721
10.7718
10.7714
10.7709
10.7704
10.7698
10.7693
10.7686
10.768
10.7674
10.7668
10.7663
10.7655
10.7653
10.7639
1.04446
2.13063
3.15652
3.69526
3.93984
4.06322
4.398
5.34683
6.56593
7.50021
8.0745
8.4164
8.62996
8.77178
8.87084
8.94292
8.99712
9.03928
9.07383
9.10409
9.13223
9.15989
9.18857
9.21948
9.25332
9.2905
9.33182
9.37768
9.4279
9.48217
9.54052
9.60289
9.66886
9.73783
9.80997
9.88508
9.96228
10.0405
10.1195
10.1988
10.2775
10.3548
10.4307
10.505
10.5768
10.6452
10.7101
10.7717
10.8296
10.8832
10.9335
10.981
11.0252
11.0655
11.1025
11.1368
11.1682
11.1964
11.2225
11.2473
11.2701
11.2905
11.3089
11.326
11.3414
11.355
11.3677
11.38
11.3914
11.4011
11.4098
11.4179
11.4251
11.4312
11.437
11.443
11.4485
11.4529
11.4567
11.4602
11.4632
11.4654
11.4677
11.4704
11.4728
11.4744
11.4758
11.477
11.478
11.4784
11.479
11.4801
11.4809
11.4812
11.4815
11.4817
11.4817
11.4814
11.4813
11.4815
11.4817
11.4814
11.4811
11.4808
11.4805
11.4799
11.4794
11.4792
11.4789
11.4784
11.4778
11.4773
11.4768
11.4761
11.4754
11.4747
11.4741
11.4735
11.4729
11.4721
11.4719
11.4704
0.919781
1.62604
2.61325
3.27057
3.62153
3.82364
4.24591
5.34117
6.7411
7.81996
8.48406
8.87713
9.12005
9.27937
9.38927
9.4682
9.52675
9.57164
9.60784
9.63903
9.66768
9.69559
9.72442
9.75549
9.78959
9.82719
9.86912
9.91586
9.96723
10.0229
10.083
10.1473
10.2156
10.2872
10.3622
10.4405
10.5211
10.6031
10.686
10.7694
10.8525
10.9341
11.0146
11.0935
11.17
11.243
11.3125
11.3785
11.4406
11.4983
11.5525
11.6037
11.6514
11.6949
11.735
11.7721
11.8062
11.8367
11.8651
11.892
11.9168
11.9389
11.959
11.9775
11.9944
12.0092
12.0231
12.0365
12.0489
12.0596
12.0691
12.0779
12.0859
12.0925
12.099
12.1056
12.1116
12.1165
12.1207
12.1246
12.128
12.1305
12.1331
12.136
12.1387
12.1405
12.1421
12.1435
12.1447
12.1452
12.1459
12.1471
12.1481
12.1485
12.1487
12.149
12.1491
12.1488
12.1488
12.149
12.1492
12.149
12.1486
12.1484
12.148
12.1474
12.1469
12.1466
12.1463
12.1458
12.1453
12.1447
12.1441
12.1435
12.1427
12.142
12.1414
12.1407
12.14
12.1392
12.139
12.1374
0.860378
1.23784
2.06245
2.7836
3.2382
3.52876
4.03607
5.25694
6.83154
8.06813
8.8376
9.29294
9.57205
9.75299
9.87622
9.96356
10.0274
10.0756
10.1138
10.146
10.1752
10.2032
10.2319
10.2628
10.2968
10.3343
10.3764
10.4234
10.4753
10.5317
10.5928
10.6585
10.7283
10.8017
10.8789
10.9596
11.043
11.128
11.2142
11.3012
11.388
11.4737
11.5582
11.6414
11.7223
11.7996
11.8734
11.9437
12.01
12.0716
12.1297
12.1845
12.2357
12.2826
12.3257
12.3657
12.4024
12.4354
12.4661
12.4951
12.5219
12.5458
12.5676
12.5876
12.6059
12.622
12.6371
12.6517
12.6651
12.6768
12.6872
12.6968
12.7055
12.7129
12.72
12.7271
12.7338
12.7392
12.7439
12.7482
12.7519
12.7547
12.7577
12.7609
12.7639
12.7659
12.7677
12.7694
12.7707
12.7714
12.7722
12.7735
12.7747
12.7752
12.7755
12.7759
12.7761
12.7758
12.7758
12.7761
12.7763
12.7761
12.7758
12.7755
12.7752
12.7745
12.7741
12.7738
12.7735
12.773
12.7724
12.7718
12.7712
12.7705
12.7697
12.769
12.7683
12.7676
12.7669
12.7659
12.7658
12.7641
0.836789
0.988225
1.56009
2.25459
2.78766
3.1679
3.7527
5.07117
6.80893
8.21819
9.11402
9.6478
9.97368
10.1829
10.3238
10.4223
10.4934
10.5461
10.5871
10.621
10.6508
10.6791
10.7077
10.7383
10.7718
10.809
10.8507
10.8975
10.9494
11.006
11.0675
11.1338
11.2045
11.2791
11.3577
11.4402
11.5256
11.613
11.7019
11.7918
11.8818
11.9709
12.0591
12.1462
12.231
12.3124
12.3904
12.4647
12.535
12.6006
12.6624
12.7208
12.7755
12.8256
12.8719
12.9147
12.9541
12.9896
13.0226
13.0537
13.0826
13.1084
13.1319
13.1535
13.1733
13.1907
13.207
13.2227
13.2373
13.25
13.2613
13.2718
13.2813
13.2894
13.2971
13.3049
13.3122
13.3181
13.3233
13.3281
13.3323
13.3355
13.3387
13.3423
13.3456
13.3479
13.35
13.3519
13.3534
13.3542
13.3552
13.3567
13.3579
13.3586
13.3591
13.3595
13.3598
13.3596
13.3596
13.36
13.3602
13.3601
13.3598
13.3595
13.3592
13.3586
13.3581
13.3578
13.3575
13.357
13.3564
13.3558
13.3552
13.3545
13.3537
13.3529
13.3521
13.3514
13.3507
13.3497
13.3495
13.3477
0.830411
0.857546
1.16957
1.72976
2.28261
2.73623
3.38285
4.76219
6.64184
8.23714
9.28514
9.91946
10.3075
10.5551
10.7203
10.8346
10.916
10.9756
11.021
11.0576
11.089
11.118
11.1468
11.1771
11.2102
11.2468
11.2879
11.3341
11.3855
11.4419
11.5032
11.5695
11.6405
11.7156
11.795
11.8785
11.9654
12.0544
12.1453
12.2375
12.3302
12.4222
12.5136
12.604
12.6925
12.7776
12.8594
12.9376
13.0117
13.0811
13.1466
13.2086
13.2666
13.32
13.3694
13.4151
13.4572
13.4952
13.5305
13.5638
13.5946
13.6224
13.6476
13.6709
13.6921
13.711
13.7285
13.7454
13.7611
13.7748
13.7872
13.7985
13.8088
13.8177
13.8261
13.8346
13.8424
13.849
13.8547
13.86
13.8646
13.8682
13.8718
13.8758
13.8794
13.8821
13.8844
13.8866
13.8883
13.8893
13.8905
13.8921
13.8936
13.8944
13.895
13.8955
13.8959
13.8958
13.8959
13.8963
13.8966
13.8965
13.8962
13.896
13.8957
13.8951
13.8946
13.8943
13.894
13.8935
13.8929
13.8923
13.8917
13.891
13.8901
13.8893
13.8886
13.8878
13.8871
13.8861
13.8858
13.884
0.83163
0.801476
0.924863
1.27994
1.76213
2.24347
2.92152
4.3135
6.29826
8.0858
9.31469
10.078
10.5495
10.8503
11.0499
11.187
11.2837
11.3537
11.4062
11.4475
11.4819
11.5126
11.5423
11.5729
11.6058
11.642
11.6824
11.7279
11.7786
11.8342
11.895
11.9609
12.0316
12.1067
12.1862
12.2702
12.3577
12.4478
12.54
12.6339
12.7286
12.8229
12.9169
13.0103
13.1019
13.1904
13.2757
13.3574
13.4351
13.5081
13.5771
13.6425
13.7038
13.7604
13.8128
13.8613
13.9061
13.9467
13.9843
14.0197
14.0526
14.0822
14.1092
14.1341
14.1569
14.1771
14.196
14.214
14.2308
14.2456
14.259
14.2712
14.2824
14.292
14.3012
14.3103
14.3188
14.326
14.3323
14.3381
14.3432
14.3473
14.3513
14.3555
14.3595
14.3625
14.3652
14.3676
14.3696
14.3709
14.3723
14.374
14.3756
14.3766
14.3774
14.3781
14.3785
14.3785
14.3787
14.3792
14.3796
14.3795
14.3794
14.3792
14.3789
14.3783
14.3779
14.3776
14.3773
14.3768
14.3762
14.3756
14.375
14.3742
14.3734
14.3725
14.3718
14.371
14.3702
14.3692
14.3689
14.3671
0.835912
0.78267
0.803487
0.968847
1.29727
1.72719
2.38145
3.72103
5.75124
7.72132
9.15815
10.0847
10.6678
11.0423
11.2908
11.461
11.5805
11.6665
11.7302
11.7794
11.8193
11.8536
11.8856
11.9175
11.951
11.9872
12.0273
12.0721
12.1221
12.1769
12.2368
12.302
12.372
12.4466
12.5258
12.6095
12.6972
12.7877
12.8807
12.9756
13.0717
13.1678
13.2638
13.3595
13.4537
13.5452
13.6335
13.7184
13.7994
13.8757
13.948
14.0165
14.081
14.1406
14.1959
14.2471
14.2945
14.3375
14.3774
14.4149
14.4497
14.4812
14.51
14.5365
14.5607
14.5824
14.6025
14.6217
14.6396
14.6555
14.6698
14.683
14.695
14.7055
14.7154
14.7251
14.7342
14.7421
14.749
14.7553
14.7609
14.7655
14.7699
14.7745
14.7788
14.7823
14.7853
14.788
14.7902
14.7918
14.7934
14.7954
14.7972
14.7983
14.7993
14.8001
14.8007
14.8008
14.8011
14.8016
14.8021
14.8022
14.8021
14.802
14.8017
14.8012
14.8008
14.8005
14.8002
14.7997
14.7992
14.7986
14.7979
14.7972
14.7964
14.7955
14.7947
14.7939
14.7931
14.7921
14.7917
14.7899
0.841162
0.780281
0.755033
0.802079
0.963984
1.26138
1.80829
3.00597
4.98935
7.10325
8.76449
9.89091
10.6208
11.0966
11.4143
11.6324
11.7857
11.8959
11.9771
12.0389
12.088
12.129
12.1656
12.2006
12.236
12.2733
12.3138
12.3586
12.4081
12.4623
12.5214
12.5857
12.6549
12.7287
12.8071
12.8903
12.9776
13.068
13.1611
13.2565
13.3533
13.4506
13.5481
13.6455
13.7417
13.8355
13.9264
14.0141
14.0979
14.1772
14.2523
14.3237
14.391
14.4535
14.5114
14.5652
14.615
14.6604
14.7024
14.7418
14.7785
14.8118
14.8422
14.8702
14.8959
14.9189
14.9403
14.9606
14.9795
14.9965
15.0118
15.0259
15.0387
15.05
15.0606
15.071
15.0807
15.0892
15.0968
15.1036
15.1097
15.1148
15.1197
15.1246
15.1293
15.1332
15.1365
15.1395
15.1421
15.144
15.1458
15.1479
15.1499
15.1513
15.1525
15.1535
15.1542
15.1545
15.1549
15.1555
15.156
15.1562
15.1562
15.1561
15.1559
15.1555
15.1551
15.1548
15.1546
15.1542
15.1536
15.153
15.1524
15.1517
15.1508
15.15
15.1492
15.1483
15.1476
15.1465
15.1461
15.1443
0.846369
0.784568
0.740875
0.73153
0.781527
0.928216
1.28983
2.23322
4.03458
6.20623
8.08216
9.43994
10.3566
10.9685
11.3827
11.6692
11.8718
12.018
12.1258
12.2075
12.2714
12.3235
12.3683
12.4093
12.449
12.4892
12.5316
12.5774
12.6272
12.6814
12.7402
12.8038
12.8722
12.9452
13.0228
13.1051
13.1916
13.2815
13.3744
13.4697
13.5667
13.6645
13.7629
13.8613
13.959
14.0546
14.1474
14.2373
14.3234
14.4052
14.4828
14.5567
14.6263
14.6912
14.7515
14.8076
14.8595
14.9071
14.951
14.9922
15.0305
15.0654
15.0974
15.1268
15.1537
15.1781
15.2006
15.2219
15.2418
15.2597
15.276
15.2909
15.3046
15.3167
15.328
15.3389
15.3493
15.3584
15.3665
15.3739
15.3805
15.3862
15.3914
15.3968
15.4018
15.4061
15.4098
15.4131
15.416
15.4182
15.4203
15.4226
15.4247
15.4264
15.4277
15.4289
15.4298
15.4303
15.4308
15.4315
15.4321
15.4324
15.4325
15.4325
15.4324
15.4321
15.4317
15.4315
15.4312
15.4309
15.4303
15.4298
15.4292
15.4285
15.4277
15.4268
15.426
15.4252
15.4244
15.4234
15.4229
15.4211
0.851009
0.791139
0.741125
0.708408
0.703806
0.748623
0.922269
1.52314
2.96859
5.04315
7.07286
8.67237
9.81361
10.6021
11.1474
11.53
11.8032
12.0019
12.1493
12.261
12.348
12.4179
12.4763
12.5276
12.5751
12.6212
12.6677
12.7165
12.7682
12.8236
12.8829
12.9466
13.0147
13.0871
13.164
13.2455
13.3312
13.4204
13.5126
13.6075
13.7043
13.8022
13.9008
13.9998
14.0982
14.1948
14.2891
14.3805
14.4683
14.552
14.6316
14.7073
14.7788
14.8457
14.9079
14.9659
15.0196
15.0688
15.1144
15.157
15.1967
15.233
15.2663
15.2969
15.325
15.3505
15.374
15.3962
15.4169
15.4357
15.4528
15.4685
15.4828
15.4957
15.5076
15.5191
15.53
15.5397
15.5484
15.5563
15.5634
15.5696
15.5753
15.5809
15.5863
15.5909
15.595
15.5987
15.6019
15.6044
15.6068
15.6093
15.6116
15.6135
15.6151
15.6164
15.6175
15.6182
15.6188
15.6196
15.6203
15.6207
15.621
15.6211
15.621
15.6208
15.6205
15.6203
15.6201
15.6198
15.6193
15.6188
15.6182
15.6175
15.6168
15.616
15.6152
15.6143
15.6135
15.6126
15.612
15.6103
0.854797
0.797915
0.746858
0.705374
0.67804
0.67375
0.728532
1.01224
1.95368
3.70166
5.73932
7.54133
8.9271
9.9317
10.6483
11.1615
11.5335
11.8074
12.0123
12.1685
12.2902
12.3873
12.4671
12.5352
12.5959
12.6521
12.7066
12.7612
12.8173
12.8758
12.9373
13.0024
13.0713
13.144
13.2209
13.302
13.387
13.4756
13.5672
13.6614
13.7577
13.8553
13.9538
14.0527
14.1513
14.2485
14.3434
14.4357
14.5246
14.6094
14.6902
14.7672
14.84
14.9082
14.9717
15.031
15.0859
15.1365
15.1833
15.2269
15.2676
15.3049
15.3392
15.3707
15.3997
15.4261
15.4504
15.4732
15.4946
15.5141
15.5319
15.5482
15.5632
15.5767
15.5892
15.6011
15.6124
15.6226
15.6318
15.6402
15.6478
15.6544
15.6605
15.6665
15.6721
15.6771
15.6815
15.6855
15.689
15.6919
15.6945
15.6972
15.6997
15.7019
15.7036
15.7052
15.7065
15.7074
15.7081
15.709
15.7098
15.7104
15.7107
15.711
15.711
15.7109
15.7107
15.7105
15.7104
15.7101
15.7097
15.7092
15.7087
15.7081
15.7073
15.7066
15.7058
15.705
15.7042
15.7032
15.7027
15.701
0.857612
0.803835
0.754018
0.710069
0.674079
0.64957
0.650132
0.74414
1.19495
2.38152
4.17295
6.04546
7.64674
8.88918
9.81536
10.4986
11.0044
11.3827
11.6692
11.8896
12.0621
12.1996
12.3119
12.4061
12.4875
12.5604
12.6281
12.6932
12.7575
12.8223
12.8887
12.9574
13.0289
13.1035
13.1815
13.2631
13.3483
13.4368
13.5281
13.6219
13.7177
13.8149
13.913
14.0116
14.1099
14.207
14.302
14.3944
14.4837
14.569
14.6503
14.7277
14.801
14.8697
14.9339
14.9938
15.0493
15.1006
15.148
15.1921
15.2332
15.271
15.3058
15.3379
15.3674
15.3944
15.4192
15.4424
15.4641
15.4841
15.5024
15.5192
15.5346
15.5486
15.5615
15.5738
15.5853
15.5959
15.6056
15.6143
15.6223
15.6294
15.6358
15.642
15.6479
15.6533
15.658
15.6623
15.6661
15.6693
15.6722
15.675
15.6777
15.6801
15.682
15.6838
15.6853
15.6864
15.6873
15.6883
15.6892
15.6899
15.6904
15.6907
15.6909
15.6909
15.6908
15.6907
15.6906
15.6903
15.69
15.6896
15.6891
15.6885
15.6879
15.6871
15.6864
15.6856
15.6848
15.6839
15.6833
15.6816
0.859481
0.808375
0.760621
0.716969
0.678355
0.646196
0.625384
0.639161
0.789755
1.36626
2.61068
4.28953
5.9773
7.42677
8.58001
9.46818
10.1456
10.6633
11.062
11.3723
11.6172
11.8134
11.9732
12.1062
12.2195
12.3183
12.407
12.4892
12.5673
12.6433
12.7186
12.7943
12.8714
12.9503
13.0315
13.1155
13.2023
13.2917
13.3837
13.4778
13.5736
13.6707
13.7685
13.8667
13.9646
14.0612
14.1558
14.2479
14.3368
14.4218
14.5029
14.5799
14.6527
14.7212
14.7851
14.8447
14.9
14.9511
14.9984
15.0423
15.0832
15.121
15.1557
15.1878
15.2174
15.2444
15.2694
15.2927
15.3144
15.3345
15.353
15.37
15.3856
15.3999
15.4131
15.4256
15.4373
15.4481
15.458
15.4671
15.4753
15.4827
15.4895
15.4959
15.502
15.5075
15.5125
15.5171
15.5211
15.5246
15.5278
15.5308
15.5336
15.5361
15.5383
15.5403
15.5419
15.5432
15.5443
15.5454
15.5464
15.5472
15.5479
15.5483
15.5486
15.5487
15.5487
15.5487
15.5486
15.5485
15.5483
15.5479
15.5475
15.547
15.5464
15.5457
15.545
15.5443
15.5435
15.5427
15.542
15.5404
0.860564
0.811408
0.765707
0.723434
0.684829
0.65038
0.621754
0.606565
0.636169
0.823088
1.41522
2.56225
4.05681
5.57037
6.90594
8.00563
8.88293
9.57473
10.1198
10.5515
10.8963
11.1747
11.4025
11.5917
11.7516
11.8892
12.0101
12.1188
12.2189
12.313
12.4033
12.4913
12.5784
12.6654
12.7532
12.8423
12.9331
13.0257
13.12
13.2157
13.3128
13.4106
13.5089
13.6071
13.7046
13.8008
13.8949
13.9862
14.0742
14.1584
14.2384
14.3142
14.3858
14.4529
14.5156
14.574
14.6281
14.6782
14.7244
14.7673
14.8072
14.8441
14.8781
14.9095
14.9385
14.9651
14.9897
15.0126
15.034
15.0538
15.0721
15.089
15.1046
15.119
15.1322
15.1446
15.1563
15.1672
15.1772
15.1864
15.1948
15.2024
15.2094
15.216
15.2222
15.2279
15.2331
15.2378
15.242
15.2458
15.2491
15.2523
15.2552
15.2579
15.2603
15.2624
15.2642
15.2657
15.267
15.2682
15.2693
15.2702
15.271
15.2715
15.272
15.2722
15.2723
15.2724
15.2724
15.2723
15.2721
15.2719
15.2715
15.2711
15.2706
15.27
15.2693
15.2686
15.2679
15.2672
15.2665
15.2649
0.861099
0.813132
0.769007
0.728256
0.690668
0.656225
0.625337
0.600354
0.590481
0.626908
0.804317
1.30732
2.2556
3.52322
4.86391
6.10176
7.16544
8.04731
8.76702
9.3516
9.82729
10.2166
10.5379
10.8058
11.0319
11.2255
11.3936
11.5423
11.6758
11.7981
11.9119
12.0198
12.1235
12.2244
12.3238
12.4224
12.521
12.62
12.7194
12.8193
12.9196
13.0199
13.12
13.2193
13.3175
13.4138
13.5075
13.5981
13.6851
13.7679
13.8464
13.9203
13.9898
14.0548
14.1153
14.1714
14.2233
14.2713
14.3155
14.3564
14.3944
14.4295
14.4619
14.4919
14.5196
14.5452
14.5688
14.5908
14.6113
14.6304
14.6482
14.6646
14.6798
14.6939
14.7069
14.7191
14.7305
14.7412
14.7512
14.7603
14.7688
14.7765
14.7836
14.7902
14.7964
14.8021
14.8074
14.8123
14.8166
14.8206
14.8241
14.8274
14.8304
14.8332
14.8357
14.838
14.8399
14.8416
14.843
14.8443
14.8455
14.8466
14.8474
14.8481
14.8487
14.849
14.8493
14.8494
14.8495
14.8495
14.8494
14.8492
14.849
14.8486
14.8482
14.8477
14.8471
14.8465
14.8458
14.8451
14.8445
14.843
0.861317
0.813941
0.770773
0.731181
0.694713
0.661073
0.630148
0.602464
0.580592
0.572604
0.602091
0.732609
1.08696
1.77657
2.77137
3.9123
5.03989
6.06349
6.9514
7.70383
8.33496
8.86296
9.30557
9.67849
9.99509
10.2664
10.5012
10.7071
10.8897
11.054
11.2037
11.3421
11.4718
11.5949
11.7131
11.8278
11.9399
12.0502
12.1592
12.2671
12.374
12.4798
12.5842
12.6868
12.7873
12.885
12.9795
13.0701
13.1564
13.238
13.3147
13.3864
13.4533
13.5154
13.5728
13.6257
13.6745
13.7194
13.7606
13.7986
13.8337
13.8661
13.8962
13.9239
13.9496
13.9733
13.9954
14.0159
14.0351
14.053
14.0697
14.0853
14.0997
14.1132
14.1257
14.1374
14.1484
14.1588
14.1684
14.1774
14.1857
14.1933
14.2004
14.207
14.2131
14.2189
14.2242
14.229
14.2335
14.2376
14.2412
14.2446
14.2477
14.2506
14.2532
14.2555
14.2576
14.2594
14.261
14.2624
14.2637
14.2649
14.2658
14.2666
14.2673
14.2678
14.2681
14.2684
14.2686
14.2686
14.2686
14.2686
14.2684
14.2681
14.2678
14.2674
14.2669
14.2663
14.2658
14.2651
14.2645
14.2631
0.861388
0.814244
0.771528
0.732595
0.696913
0.664069
0.633754
0.605881
0.580964
0.560952
0.551213
0.565769
0.639181
0.840721
1.25947
1.9362
2.81479
3.77992
4.72845
5.60139
6.37646
7.05149
7.63388
8.13481
8.56624
8.93924
9.2636
9.54773
9.79884
10.0228
10.2247
10.4083
10.577
10.7339
10.8813
11.0212
11.155
11.2841
11.4092
11.5309
11.6495
11.7653
11.878
11.9874
12.0932
12.195
12.2922
12.3844
12.4713
12.5525
12.628
12.6978
12.7621
12.821
12.875
12.9243
12.9693
13.0104
13.0479
13.0822
13.1138
13.1429
13.1697
13.1946
13.2176
13.239
13.2589
13.2775
13.2949
13.3112
13.3266
13.3409
13.3544
13.367
13.3788
13.3898
13.4003
13.4101
13.4193
13.4279
13.436
13.4435
13.4504
13.4569
13.463
13.4686
13.4739
13.4788
13.4833
13.4874
13.4912
13.4946
13.4978
13.5007
13.5034
13.5059
13.5081
13.51
13.5117
13.5133
13.5147
13.5159
13.517
13.5179
13.5186
13.5193
13.5197
13.5201
13.5204
13.5206
13.5207
13.5207
13.5206
13.5204
13.5202
13.5199
13.5195
13.519
13.5186
13.518
13.5174
13.5162
0.861405
0.814329
0.771775
0.73312
0.697832
0.665473
0.635685
0.608216
0.582984
0.560262
0.541103
0.528299
0.528528
0.55701
0.644943
0.843255
1.20682
1.75779
2.46325
3.25174
4.05043
4.80955
5.50504
6.12962
6.68459
7.1751
7.60813
7.9911
8.33122
8.63486
8.90764
9.15428
9.379
9.58501
9.77554
9.95322
10.1202
10.2782
10.4287
10.5725
10.7104
10.8428
10.9698
11.0913
11.2072
11.317
11.4205
11.5173
11.6072
11.6902
11.7661
11.8353
11.898
11.9547
12.0059
12.0519
12.0934
12.1308
12.1646
12.1953
12.2233
12.249
12.2726
12.2944
12.3147
12.3336
12.3512
12.3678
12.3833
12.398
12.4119
12.4251
12.4374
12.4491
12.4602
12.4706
12.4805
12.4898
12.4986
12.5069
12.5148
12.5221
12.529
12.5354
12.5414
12.547
12.5523
12.5572
12.5618
12.566
12.5699
12.5734
12.5767
12.5798
12.5826
12.5851
12.5875
12.5896
12.5915
12.5931
12.5947
12.596
12.5972
12.5983
12.5992
12.5999
12.6006
12.6011
12.6014
12.6017
12.602
12.6021
12.6021
12.6021
12.6019
12.6017
12.6015
12.6011
12.6008
12.6003
12.5998
12.5987
0.861407
0.814342
0.77183
0.733259
0.698113
0.665956
0.636436
0.609274
0.584258
0.561246
0.54026
0.521689
0.506644
0.497682
0.500245
0.525323
0.592963
0.733719
0.982251
1.3612
1.86639
2.46574
3.11276
3.76356
4.38758
4.96884
5.50185
5.98671
6.42605
6.82354
7.18337
7.50991
7.80739
8.07974
8.33029
8.5615
8.77616
8.97655
9.16458
9.3417
9.50903
9.66731
9.81696
9.95811
10.0907
10.2147
10.3298
10.4361
10.5333
10.6218
10.7017
10.7735
10.8376
10.8947
10.9454
10.9905
11.0306
11.0663
11.0983
11.127
11.153
11.1767
11.1984
11.2184
11.237
11.2544
11.2707
11.2861
11.3006
11.3144
11.3275
11.34
11.3519
11.3632
11.3739
11.3841
11.3939
11.4031
11.4119
11.4202
11.4281
11.4355
11.4426
11.4492
11.4554
11.4612
11.4667
11.4718
11.4766
11.4811
11.4852
11.4891
11.4926
11.4959
11.499
11.5018
11.5043
11.5067
11.5088
11.5107
11.5125
11.514
11.5154
11.5166
11.5177
11.5187
11.5195
11.5202
11.5208
11.5212
11.5216
11.5219
11.522
11.5221
11.5222
11.5221
11.522
11.5218
11.5215
11.5212
11.5208
11.5199
0.861405
0.814337
0.77183
0.733276
0.698164
0.666067
0.636636
0.609601
0.584731
0.561808
0.540649
0.521149
0.503348
0.487537
0.474462
0.465694
0.46429
0.475947
0.510548
0.583308
0.713985
0.92225
1.22032
1.60679
2.06581
2.57175
3.0968
3.61731
4.11723
4.58801
5.02667
5.43342
5.80989
6.15826
6.48069
6.7795
7.05672
7.31386
7.55325
7.77672
7.98575
8.18135
8.36421
8.53471
8.69307
8.83944
8.97399
9.0969
9.20851
9.30926
9.39972
9.48052
9.55243
9.61627
9.67288
9.72306
9.76761
9.80728
9.84276
9.87461
9.9034
9.92958
9.95356
9.97566
9.99616
10.0153
10.0332
10.0501
10.0661
10.0812
10.0956
10.1093
10.1223
10.1347
10.1466
10.1578
10.1686
10.1788
10.1885
10.1977
10.2065
10.2147
10.2226
10.23
10.237
10.2436
10.2498
10.2556
10.261
10.2661
10.2709
10.2753
10.2794
10.2832
10.2868
10.2901
10.2931
10.2959
10.2984
10.3008
10.3029
10.3048
10.3065
10.3081
10.3095
10.3107
10.3118
10.3128
10.3136
10.3143
10.3149
10.3154
10.3158
10.3161
10.3163
10.3164
10.3165
10.3165
10.3164
10.3163
10.316
10.3152
0.861402
0.814329
0.77182
0.733266
0.698158
0.666072
0.636662
0.60966
0.584836
0.561965
0.540833
0.521259
0.503103
0.486278
0.470772
0.4567
0.444381
0.434475
0.428215
0.42777
0.436829
0.461254
0.509544
0.592551
0.721977
0.907591
1.15428
1.46005
1.8161
2.20863
2.62181
3.04069
3.45328
3.85141
4.23053
4.58886
4.92628
5.24381
5.54196
5.82082
6.08151
6.32481
6.55134
6.76161
6.95618
7.1356
7.30053
7.45159
7.58952
7.71509
7.82909
7.93233
8.02564
8.10987
8.18586
8.25439
8.31624
8.37215
8.42278
8.46872
8.51054
8.54872
8.58371
8.61589
8.64559
8.67311
8.6987
8.72255
8.74484
8.76573
8.78536
8.80383
8.82123
8.83766
8.85318
8.86783
8.88168
8.89476
8.90713
8.91881
8.92985
8.94027
8.95011
8.95938
8.9681
8.9763
8.98401
8.99125
8.99803
9.00438
9.01033
9.01588
9.02105
9.02586
9.03033
9.03447
9.03831
9.04186
9.04513
9.04814
9.05089
9.0534
9.0557
9.05779
9.05967
9.06138
9.06291
9.06427
9.06548
9.06654
9.06747
9.06827
9.06896
9.06953
9.07001
9.07039
9.07068
9.07088
9.07102
9.07107
9.07106
9.0705
0.8614
0.814321
0.77181
0.733254
0.698144
0.666058
0.636651
0.609654
0.584838
0.561978
0.540857
0.521288
0.503107
0.486178
0.47039
0.455656
0.441924
0.42919
0.417519
0.407084
0.398229
0.391555
0.388066
0.389375
0.397987
0.417549
0.452982
0.510302
0.596046
0.716258
0.875319
1.0749
1.31347
1.58637
1.88647
2.20521
2.53377
2.86415
3.18973
3.50602
3.80899
4.09656
4.36839
4.62478
4.86638
5.09389
5.30796
5.50906
5.69758
5.87383
6.03809
6.19066
6.33188
6.46218
6.58203
6.692
6.79267
6.88468
6.96869
7.04533
7.11522
7.17899
7.2372
7.29039
7.33907
7.38369
7.42466
7.46235
7.49709
7.52917
7.55886
7.58638
7.61194
7.63573
7.6579
7.67858
7.69789
7.71595
7.73284
7.74866
7.76348
7.77736
7.79038
7.80258
7.81401
7.82472
7.83474
7.84412
7.8529
7.8611
7.86877
7.87592
7.88258
7.88878
7.89454
7.89989
7.90485
7.90945
7.9137
7.91761
7.92122
7.92453
7.92756
7.93033
7.93286
7.93516
7.93724
7.93912
7.94081
7.94232
7.94367
7.94486
7.9459
7.94681
7.9476
7.94828
7.94884
7.94931
7.94969
7.94997
7.95017
7.94987
0.861399
0.814317
0.771804
0.733245
0.698135
0.666048
0.636641
0.609644
0.584828
0.561967
0.540847
0.521278
0.503096
0.48616
0.470348
0.455554
0.441688
0.428672
0.416445
0.404961
0.394198
0.384161
0.374898
0.366518
0.359221
0.353335
0.349377
0.348139
0.350797
0.359042
0.375178
0.402153
0.443508
0.50317
0.585122
0.692925
0.82926
0.995526
1.1916
1.41578
1.66517
1.93549
2.22128
2.51682
2.81654
3.11537
3.40892
3.69359
3.96657
4.22583
4.47001
4.69834
4.91051
5.10662
5.28706
5.45244
5.60353
5.74122
5.86644
5.98016
6.08333
6.17689
6.26172
6.33868
6.40854
6.47202
6.52978
6.58241
6.63046
6.6744
6.71466
6.75162
6.78561
6.81694
6.84587
6.87262
6.89739
6.92038
6.94173
6.96158
6.98006
6.99728
7.01333
7.02831
7.04228
7.05532
7.06749
7.07885
7.08944
7.09933
7.10855
7.11713
7.12513
7.13257
7.13948
7.1459
7.15185
7.15737
7.16247
7.16718
7.17152
7.17551
7.17918
7.18255
7.18562
7.18843
7.19098
7.1933
7.19539
7.19728
7.19897
7.20049
7.20183
7.20302
7.20407
7.20498
7.20577
7.20645
7.20702
7.20749
7.20786
7.20774
0.861399
0.814317
0.771804
0.733245
0.698135
0.666048
0.636641
0.609644
0.584828
0.561967
0.540847
0.521278
0.503096
0.48616
0.470348
0.455555
0.441689
0.428674
0.416448
0.404966
0.394206
0.384174