/*--------------------------------*- C++ -*----------------------------------*\
  =========                 |
  \\      /  F ield         | OpenFOAM: The Open Source CFD Toolbox
   \\    /   O peration     | Website:  https://openfoam.org
    \\  /    A nd           | Version:  8
     \\/     M anipulation  |
\*---------------------------------------------------------------------------*/
FoamFile
{
    version     2.0;
    format      ascii;
    class       volScalarField;
    location    "250";
    object      nut;
}
// * * * * * * * * * * * * * * * * * * * * * * * * * * * * * * * * * * * * * //

dimensions      [0 2 -1 0 0 0 0];

internalField   nonuniform List<scalar> 
7320
(
0.000286297
0.000273844
0.000266044
0.000260776
0.000256926
0.000254168
0.000253063
0.000253185
0.000252954
0.000252217
0.000251405
0.000250752
0.000250299
0.000250022
0.000249882
0.000249854
0.000249911
0.000250037
0.00025022
0.000250455
0.000250735
0.000251053
0.000251405
0.000251792
0.000252209
0.000252654
0.000253124
0.000253621
0.000254141
0.000254682
0.000255241
0.000255817
0.000256408
0.000257009
0.000257617
0.000258232
0.00025885
0.000259466
0.000260075
0.000260676
0.000261265
0.000261836
0.000262386
0.000262916
0.000263422
0.000263902
0.000264352
0.000264777
0.000265174
0.000265542
0.000265881
0.000266197
0.000266489
0.000266757
0.000267001
0.000267227
0.000267434
0.000267622
0.000267792
0.00026795
0.000268095
0.000268227
0.000268345
0.000268455
0.000268555
0.000268645
0.000268725
0.000268801
0.000268871
0.000268933
0.000268988
0.00026904
0.000269087
0.000269129
0.000269164
0.000269199
0.000269231
0.000269259
0.000269283
0.000269306
0.000269327
0.000269344
0.000269358
0.000269373
0.000269386
0.000269398
0.000269406
0.000269415
0.000269423
0.00026943
0.000269433
0.000269438
0.000269443
0.000269447
0.000269449
0.000269452
0.000269454
0.000269455
0.000269454
0.000269456
0.000269457
0.000269457
0.000269456
0.000269456
0.000269456
0.000269455
0.000269453
0.000269453
0.000269452
0.000269451
0.000269449
0.000269448
0.000269446
0.000269445
0.000269443
0.000269441
0.000269439
0.000269438
0.000269436
0.000269434
0.000269431
0.000269431
0.000562803
0.000740631
0.000767562
0.000767667
0.000763005
0.000758117
0.000761792
0.000787146
0.000834087
0.000884553
0.000924442
0.000952704
0.000972539
0.000986726
0.000997057
0.00100471
0.00101043
0.00101474
0.00101811
0.00102087
0.00102325
0.00102544
0.0010276
0.00102987
0.00103232
0.001035
0.00103799
0.00104135
0.00104506
0.00104909
0.00105345
0.00105814
0.00106312
0.00106833
0.00107381
0.00107954
0.00108544
0.00109141
0.00109743
0.00110346
0.00110945
0.00111529
0.00112102
0.00112663
0.00113204
0.00113716
0.00114201
0.00114659
0.00115088
0.00115482
0.00115853
0.00116203
0.0011653
0.00116825
0.00117096
0.00117347
0.00117576
0.0011778
0.00117971
0.00118153
0.00118321
0.00118469
0.00118604
0.00118728
0.0011884
0.00118937
0.00119029
0.0011912
0.00119204
0.00119274
0.00119336
0.00119394
0.00119446
0.00119487
0.00119528
0.00119573
0.00119614
0.00119644
0.0011967
0.00119694
0.00119714
0.00119727
0.00119742
0.00119762
0.00119779
0.00119789
0.00119798
0.00119806
0.00119811
0.00119811
0.00119814
0.00119821
0.00119827
0.00119828
0.00119828
0.00119829
0.00119828
0.00119823
0.00119821
0.00119822
0.00119823
0.0011982
0.00119816
0.00119813
0.00119809
0.00119803
0.00119798
0.00119796
0.00119793
0.00119788
0.00119783
0.00119778
0.00119773
0.00119767
0.0011976
0.00119753
0.00119748
0.00119742
0.00119736
0.00119728
0.00119728
0.00119712
0.000761067
0.00115457
0.00127126
0.00130587
0.00131522
0.00131674
0.00134805
0.001475
0.00169339
0.00191082
0.00207302
0.00218393
0.00226007
0.00231362
0.00235204
0.00238
0.00240048
0.00241556
0.00242688
0.00243574
0.00244301
0.00244933
0.0024553
0.00246141
0.00246796
0.00247513
0.00248322
0.00249239
0.00250263
0.00251385
0.00252608
0.00253934
0.00255351
0.00256842
0.00258416
0.0026007
0.00261778
0.0026351
0.00265261
0.00267021
0.00268768
0.00270475
0.00272154
0.00273801
0.00275391
0.00276895
0.0027832
0.0027967
0.00280935
0.00282098
0.00283191
0.00284229
0.00285196
0.00286071
0.00286874
0.00287618
0.00288299
0.00288904
0.00289469
0.00290012
0.00290515
0.00290957
0.00291356
0.00291727
0.00292063
0.00292351
0.00292625
0.00292898
0.00293152
0.00293361
0.00293547
0.0029372
0.00293875
0.00293998
0.00294121
0.00294256
0.00294379
0.00294471
0.00294549
0.00294623
0.00294683
0.00294722
0.00294766
0.00294825
0.00294879
0.00294909
0.00294934
0.00294959
0.00294975
0.00294975
0.00294983
0.00295006
0.00295025
0.00295027
0.00295027
0.00295029
0.00295026
0.00295011
0.00295005
0.00295009
0.00295011
0.00295001
0.0029499
0.0029498
0.00294968
0.0029495
0.00294935
0.00294927
0.00294919
0.00294904
0.00294888
0.00294872
0.00294856
0.00294838
0.00294817
0.00294797
0.0029478
0.00294761
0.00294745
0.00294719
0.00294718
0.00294667
0.000942179
0.00154868
0.00180338
0.00190671
0.00195064
0.00197321
0.00206772
0.00239486
0.0029212
0.00341568
0.00377139
0.00401024
0.00417276
0.00428653
0.00436791
0.00442705
0.00447035
0.00450223
0.00452606
0.00454458
0.00455954
0.0045723
0.00458406
0.00459584
0.00460824
0.00462167
0.00463668
0.00465368
0.00467262
0.00469337
0.00471599
0.00474054
0.00476681
0.00479449
0.00482373
0.00485448
0.0048863
0.00491861
0.0049513
0.00498421
0.00501693
0.00504894
0.00508044
0.00511139
0.00514132
0.00516967
0.00519656
0.00522207
0.00524598
0.00526803
0.00528875
0.00530841
0.00532675
0.00534338
0.00535865
0.00537281
0.00538579
0.00539734
0.00540811
0.00541845
0.00542804
0.00543648
0.00544412
0.00545122
0.00545766
0.00546321
0.00546846
0.00547369
0.00547854
0.00548259
0.00548618
0.00548953
0.00549253
0.00549494
0.00549733
0.00549991
0.00550229
0.00550409
0.00550563
0.00550707
0.00550827
0.00550906
0.00550994
0.00551109
0.00551212
0.00551274
0.00551325
0.00551375
0.00551408
0.00551413
0.00551431
0.00551475
0.00551513
0.0055152
0.00551522
0.00551527
0.00551523
0.00551499
0.00551488
0.00551497
0.00551501
0.00551484
0.00551463
0.00551447
0.00551426
0.00551393
0.00551365
0.00551351
0.00551335
0.00551309
0.00551279
0.00551251
0.00551222
0.00551188
0.0055115
0.00551113
0.00551081
0.00551047
0.00551016
0.0055097
0.00550966
0.00550873
0.00110977
0.00189236
0.00232619
0.00253744
0.00264362
0.00270952
0.00291279
0.00354562
0.0045064
0.00537303
0.00598543
0.00639485
0.00667349
0.00686882
0.00700891
0.00711104
0.00718617
0.00724177
0.00728349
0.00731586
0.00734183
0.00736368
0.00738339
0.00740263
0.00742242
0.00744348
0.0074667
0.00749277
0.00752168
0.00755327
0.00758768
0.007625
0.00766496
0.00770712
0.00775167
0.0077986
0.00784723
0.00789675
0.00794693
0.00799755
0.00804799
0.00809749
0.00814625
0.00819424
0.00824072
0.0082849
0.00832687
0.00836673
0.00840418
0.0084388
0.00847132
0.00850219
0.00853099
0.0085572
0.00858129
0.00860364
0.00862414
0.00864247
0.00865953
0.00867584
0.00869099
0.00870441
0.00871657
0.00872785
0.00873812
0.00874703
0.00875541
0.00876371
0.00877141
0.00877793
0.00878371
0.00878911
0.00879395
0.00879792
0.00880179
0.0088059
0.0088097
0.00881266
0.00881519
0.00881755
0.00881955
0.00882094
0.0088224
0.00882423
0.0088259
0.00882697
0.00882784
0.00882869
0.0088293
0.00882947
0.0088298
0.00883051
0.00883112
0.0088313
0.00883137
0.0088315
0.00883148
0.00883117
0.00883102
0.00883116
0.00883124
0.00883102
0.00883073
0.0088305
0.00883019
0.00882972
0.00882931
0.0088291
0.00882886
0.00882848
0.00882804
0.00882761
0.00882718
0.00882668
0.00882612
0.00882557
0.00882508
0.00882456
0.0088241
0.00882341
0.00882333
0.00882196
0.00129925
0.00216769
0.00280739
0.00316684
0.00336875
0.00350722
0.00386838
0.00490082
0.00639985
0.00772274
0.00865611
0.0092842
0.00971463
0.0100182
0.0102371
0.0103977
0.0105167
0.0106054
0.0106723
0.0107243
0.0107658
0.0108003
0.0108308
0.0108598
0.0108887
0.0109189
0.0109515
0.0109877
0.0110275
0.0110708
0.0111179
0.011169
0.0112236
0.0112814
0.0113425
0.011407
0.0114739
0.0115423
0.0116118
0.0116821
0.0117523
0.0118215
0.0118898
0.0119571
0.0120225
0.0120848
0.0121442
0.0122007
0.0122539
0.0123032
0.0123495
0.0123935
0.0124345
0.012472
0.0125066
0.0125386
0.012568
0.0125944
0.012619
0.0126424
0.0126641
0.0126835
0.0127011
0.0127174
0.0127323
0.0127453
0.0127575
0.0127694
0.0127806
0.0127901
0.0127986
0.0128065
0.0128136
0.0128196
0.0128253
0.0128312
0.0128368
0.0128412
0.012845
0.0128485
0.0128516
0.0128538
0.012856
0.0128587
0.0128611
0.0128628
0.0128642
0.0128655
0.0128665
0.0128669
0.0128674
0.0128685
0.0128694
0.0128697
0.0128699
0.0128702
0.0128702
0.0128699
0.0128697
0.0128699
0.01287
0.0128698
0.0128694
0.0128691
0.0128688
0.0128682
0.0128676
0.0128673
0.012867
0.0128665
0.0128659
0.0128653
0.0128648
0.0128641
0.0128633
0.0128626
0.0128619
0.0128612
0.0128606
0.0128597
0.0128595
0.0128577
0.00158934
0.00236984
0.00321627
0.00376059
0.00409555
0.00434143
0.00490713
0.00641087
0.00852943
0.0103892
0.0117158
0.0126213
0.0132492
0.0136961
0.014021
0.0142612
0.0144405
0.0145755
0.0146781
0.0147579
0.0148216
0.014874
0.0149194
0.0149613
0.015002
0.0150433
0.0150869
0.0151344
0.0151862
0.0152423
0.015303
0.0153686
0.0154389
0.0155134
0.0155921
0.0156753
0.015762
0.0158508
0.0159414
0.0160332
0.0161253
0.0162164
0.0163065
0.0163955
0.0164821
0.0165651
0.0166443
0.0167198
0.0167911
0.0168574
0.0169197
0.0169787
0.017034
0.0170847
0.0171314
0.0171747
0.0172146
0.0172506
0.0172839
0.0173156
0.017345
0.0173715
0.0173955
0.0174178
0.0174382
0.0174562
0.0174729
0.0174892
0.0175044
0.0175176
0.0175294
0.0175404
0.0175503
0.0175587
0.0175666
0.0175748
0.0175824
0.0175887
0.0175941
0.0175991
0.0176034
0.0176067
0.0176099
0.0176136
0.017617
0.0176195
0.0176215
0.0176234
0.0176249
0.0176257
0.0176266
0.017628
0.0176292
0.0176299
0.0176302
0.0176307
0.0176308
0.0176305
0.0176304
0.0176306
0.0176308
0.0176306
0.0176302
0.0176299
0.0176294
0.0176287
0.017628
0.0176277
0.0176273
0.0176267
0.0176259
0.0176252
0.0176245
0.0176236
0.0176227
0.0176217
0.0176209
0.01762
0.0176192
0.017618
0.0176177
0.0176155
0.00212966
0.0025188
0.00352625
0.00428066
0.0047864
0.00517787
0.00598763
0.00800807
0.0108084
0.0132863
0.015089
0.0163438
0.0172272
0.0178634
0.0183305
0.018679
0.0189416
0.0191411
0.019294
0.0194136
0.0195089
0.0195869
0.0196534
0.0197131
0.0197695
0.0198251
0.0198822
0.0199431
0.0200086
0.0200788
0.0201544
0.0202358
0.020323
0.0204152
0.0205129
0.0206162
0.0207241
0.0208351
0.0209486
0.021064
0.0211802
0.0212955
0.0214098
0.021523
0.0216335
0.0217398
0.0218415
0.0219386
0.0220304
0.0221162
0.0221969
0.0222732
0.0223448
0.0224108
0.0224715
0.022528
0.02258
0.0226272
0.0226707
0.022712
0.0227505
0.0227852
0.0228168
0.0228461
0.022873
0.0228969
0.0229189
0.0229403
0.0229603
0.022978
0.0229937
0.0230083
0.0230216
0.023033
0.0230436
0.0230544
0.0230645
0.0230731
0.0230804
0.0230872
0.0230932
0.0230979
0.0231023
0.0231072
0.0231118
0.0231153
0.0231181
0.0231209
0.023123
0.0231244
0.0231256
0.0231275
0.0231292
0.0231303
0.0231309
0.0231316
0.0231319
0.0231317
0.0231316
0.023132
0.0231323
0.0231321
0.0231317
0.0231313
0.0231309
0.02313
0.0231292
0.0231287
0.0231283
0.0231276
0.0231267
0.0231258
0.0231249
0.0231239
0.0231228
0.0231216
0.0231206
0.0231194
0.0231184
0.023117
0.0231166
0.0231139
0.00315383
0.0026839
0.00372443
0.00468791
0.00539641
0.00597158
0.00705475
0.00961088
0.0131384
0.0163169
0.0186893
0.0203793
0.0215905
0.0224746
0.0231311
0.0236259
0.0240025
0.0242916
0.0245153
0.0246912
0.0248318
0.0249466
0.0250431
0.0251282
0.0252064
0.0252811
0.0253558
0.0254335
0.0255153
0.0256021
0.0256946
0.0257937
0.0258994
0.0260113
0.0261296
0.0262547
0.0263857
0.0265209
0.0266594
0.0268007
0.0269433
0.0270855
0.0272267
0.0273667
0.0275039
0.0276364
0.0277633
0.0278849
0.0280001
0.0281081
0.0282096
0.0283057
0.0283959
0.0284792
0.0285562
0.0286277
0.0286937
0.0287538
0.0288092
0.0288616
0.0289104
0.0289548
0.0289952
0.0290327
0.0290671
0.0290979
0.0291263
0.0291536
0.0291791
0.029202
0.0292224
0.0292414
0.0292586
0.0292737
0.0292876
0.0293014
0.0293145
0.0293257
0.0293355
0.0293445
0.0293525
0.0293589
0.0293648
0.0293712
0.0293771
0.0293819
0.0293859
0.0293896
0.0293926
0.0293947
0.0293965
0.0293989
0.0294012
0.0294028
0.0294038
0.0294048
0.0294054
0.0294054
0.0294054
0.0294058
0.0294063
0.0294063
0.0294059
0.0294055
0.029405
0.0294042
0.0294032
0.0294026
0.0294021
0.0294013
0.0294003
0.0293993
0.0293982
0.029397
0.0293957
0.0293943
0.029393
0.0293917
0.0293905
0.0293888
0.0293883
0.0293851
0.00493129
0.0030261
0.00383424
0.00495066
0.00587627
0.0066674
0.00804086
0.0111262
0.0154093
0.01937
0.0224147
0.0246395
0.0262657
0.0274709
0.0283771
0.0290676
0.029599
0.0300112
0.0303334
0.0305886
0.0307935
0.0309609
0.0311008
0.0312221
0.0313311
0.0314328
0.0315313
0.031631
0.0317337
0.0318409
0.0319536
0.0320734
0.0322004
0.0323344
0.0324756
0.032625
0.0327814
0.0329432
0.0331093
0.0332791
0.033451
0.0336229
0.0337939
0.0339638
0.0341307
0.0342924
0.0344477
0.0345967
0.0347382
0.0348713
0.0349963
0.0351148
0.035226
0.0353292
0.0354245
0.0355132
0.0355952
0.0356701
0.035739
0.035804
0.0358646
0.0359201
0.0359706
0.0360175
0.0360606
0.0360996
0.0361352
0.0361694
0.0362014
0.0362303
0.0362562
0.0362803
0.0363022
0.0363216
0.0363393
0.0363568
0.0363732
0.0363877
0.0364004
0.0364121
0.0364224
0.0364311
0.0364388
0.0364469
0.0364545
0.0364609
0.0364662
0.0364711
0.0364752
0.0364782
0.0364808
0.0364839
0.0364869
0.036489
0.0364905
0.036492
0.036493
0.0364933
0.0364934
0.0364941
0.0364947
0.0364948
0.0364945
0.0364942
0.0364937
0.0364929
0.0364918
0.0364911
0.0364905
0.0364896
0.0364885
0.0364874
0.0364862
0.0364848
0.0364833
0.0364817
0.0364802
0.0364786
0.0364772
0.0364752
0.0364745
0.0364708
0.00765365
0.00384101
0.00396033
0.0050661
0.00618111
0.00720372
0.00886804
0.01245
0.0174971
0.0223163
0.0261425
0.0290144
0.0311582
0.0327733
0.0340044
0.0349538
0.0356926
0.0362722
0.03673
0.0370956
0.037391
0.0376331
0.0378351
0.0380084
0.0381616
0.0383014
0.0384333
0.0385631
0.0386936
0.0388272
0.0389654
0.0391104
0.0392628
0.0394228
0.0395906
0.0397675
0.0399525
0.0401441
0.0403409
0.0405425
0.0407468
0.0409518
0.0411559
0.0413589
0.0415588
0.041753
0.04194
0.0421196
0.0422906
0.0424518
0.0426033
0.0427468
0.0428816
0.0430071
0.0431231
0.0432311
0.0433311
0.0434228
0.0435071
0.0435864
0.0436603
0.0437283
0.0437904
0.043848
0.0439011
0.0439493
0.0439934
0.0440353
0.0440747
0.0441106
0.0441429
0.0441728
0.0442002
0.0442247
0.0442469
0.0442685
0.044289
0.0443073
0.0443234
0.0443382
0.0443514
0.0443627
0.0443727
0.0443828
0.0443923
0.0444007
0.0444076
0.044414
0.0444195
0.0444237
0.0444271
0.0444311
0.0444349
0.0444379
0.0444401
0.0444421
0.0444436
0.0444444
0.0444447
0.0444456
0.0444464
0.0444468
0.0444466
0.0444464
0.044446
0.0444452
0.0444441
0.0444433
0.0444426
0.0444417
0.0444404
0.0444391
0.0444378
0.0444363
0.0444345
0.0444327
0.044431
0.0444291
0.0444275
0.0444252
0.0444243
0.0444202
0.0113255
0.00551731
0.0043585
0.00510793
0.0062935
0.00752308
0.00945309
0.0134683
0.0192602
0.0250033
0.0297227
0.033365
0.0361441
0.0382748
0.0399228
0.0412098
0.0422233
0.0430274
0.0436696
0.0441872
0.0446085
0.0449555
0.0452454
0.045493
0.0457093
0.0459035
0.0460829
0.0462548
0.0464236
0.0465926
0.0467643
0.0469415
0.0471256
0.0473172
0.0475167
0.0477258
0.0479438
0.0481695
0.0484012
0.0486384
0.0488791
0.049121
0.049362
0.049602
0.0498384
0.0500689
0.0502911
0.0505048
0.0507085
0.0509011
0.0510821
0.0512533
0.0514144
0.0515647
0.0517038
0.0518334
0.0519535
0.052064
0.0521656
0.0522607
0.0523496
0.0524316
0.0525067
0.0525764
0.0526408
0.0526995
0.0527531
0.0528038
0.0528515
0.0528953
0.0529349
0.0529716
0.0530053
0.0530357
0.0530631
0.0530895
0.0531145
0.0531372
0.0531573
0.0531758
0.0531925
0.053207
0.0532196
0.0532321
0.0532439
0.0532545
0.0532634
0.0532716
0.0532788
0.0532845
0.0532891
0.0532941
0.0532989
0.0533029
0.0533059
0.0533086
0.0533108
0.0533122
0.0533128
0.053314
0.0533151
0.0533159
0.0533159
0.0533159
0.0533156
0.0533149
0.0533137
0.0533129
0.0533121
0.0533111
0.0533098
0.0533084
0.0533069
0.0533053
0.0533033
0.0533013
0.0532993
0.0532972
0.0532953
0.0532928
0.0532916
0.0532869
0.0157236
0.00834249
0.00547826
0.00531398
0.00627752
0.00759962
0.00972033
0.0140616
0.0205379
0.0272492
0.0329714
0.0375155
0.0410618
0.0438309
0.0460059
0.0477273
0.0490996
0.0502009
0.0510903
0.0518145
0.0524085
0.0529012
0.0533143
0.0536667
0.0539728
0.0542445
0.0544914
0.0547229
0.0549451
0.0551628
0.0553797
0.0555996
0.0558245
0.056056
0.0562947
0.0565429
0.0568002
0.0570657
0.0573377
0.0576158
0.0578979
0.0581815
0.0584641
0.0587453
0.0590226
0.0592933
0.0595547
0.0598062
0.0600462
0.0602735
0.0604872
0.0606892
0.0608792
0.0610567
0.0612214
0.0613748
0.0615171
0.0616484
0.061769
0.0618817
0.061987
0.0620846
0.0621742
0.0622573
0.0623341
0.0624046
0.0624689
0.0625296
0.0625865
0.0626392
0.0626871
0.0627315
0.0627723
0.0628094
0.0628428
0.0628747
0.0629048
0.0629326
0.0629573
0.0629801
0.0630007
0.063019
0.0630347
0.0630501
0.0630646
0.0630779
0.0630891
0.0630995
0.0631086
0.0631162
0.0631223
0.0631285
0.0631345
0.0631397
0.0631437
0.0631474
0.0631504
0.0631525
0.0631537
0.0631552
0.0631568
0.0631579
0.0631583
0.0631585
0.0631584
0.0631579
0.0631567
0.0631559
0.063155
0.0631541
0.0631527
0.0631512
0.0631496
0.0631478
0.0631457
0.0631435
0.0631413
0.0631389
0.0631367
0.0631339
0.0631324
0.0631272
0.0204353
0.0122971
0.00781665
0.00617561
0.0063866
0.00750534
0.0096351
0.0141188
0.0211528
0.0288379
0.0356616
0.0412436
0.0457013
0.0492485
0.0520795
0.0543516
0.0561859
0.0576757
0.0588924
0.0598932
0.0607217
0.0614138
0.0619974
0.062496
0.0629282
0.0633094
0.0636519
0.0639676
0.064265
0.0645507
0.0648297
0.0651074
0.0653867
0.0656701
0.0659589
0.0662559
0.0665614
0.0668749
0.0671949
0.0675209
0.0678508
0.0681823
0.0685123
0.0688402
0.0691634
0.0694791
0.0697841
0.0700776
0.0703579
0.0706235
0.0708732
0.0711089
0.0713305
0.0715379
0.0717305
0.0719098
0.0720763
0.0722302
0.0723716
0.0725036
0.0726267
0.0727413
0.0728466
0.0729445
0.0730351
0.0731185
0.0731947
0.0732663
0.0733334
0.073396
0.0734531
0.0735061
0.0735549
0.0735996
0.0736398
0.0736779
0.0737139
0.0737474
0.0737774
0.0738052
0.0738304
0.0738529
0.0738724
0.0738911
0.0739087
0.073925
0.0739391
0.073952
0.0739635
0.0739734
0.0739812
0.073989
0.0739964
0.0740031
0.0740084
0.0740132
0.0740172
0.0740203
0.0740221
0.0740242
0.0740262
0.0740279
0.0740287
0.0740293
0.0740295
0.0740292
0.0740282
0.0740273
0.0740265
0.0740256
0.0740241
0.0740226
0.0740209
0.074019
0.0740168
0.0740144
0.0740119
0.0740093
0.0740069
0.0740038
0.0740019
0.0739962
0.0249649
0.0170273
0.0115558
0.00833105
0.00718664
0.00754466
0.00928574
0.0135786
0.0209276
0.0295196
0.0375163
0.04427
0.0497926
0.0542727
0.0579078
0.0608677
0.0632887
0.0652789
0.0669229
0.0682895
0.0694319
0.0703934
0.0712097
0.0719098
0.0725172
0.0730515
0.0735282
0.0739626
0.0743656
0.0747465
0.0751118
0.0754687
0.0758217
0.0761744
0.0765289
0.0768889
0.0772553
0.0776284
0.0780069
0.0783906
0.0787774
0.0791651
0.0795501
0.0799318
0.0803073
0.0806739
0.0810279
0.0813684
0.0816932
0.0820012
0.0822905
0.0825631
0.0828192
0.0830589
0.0832815
0.0834889
0.0836813
0.0838596
0.0840234
0.084176
0.0843184
0.084451
0.0845734
0.0846872
0.0847926
0.0848902
0.0849793
0.0850628
0.0851411
0.0852144
0.0852817
0.0853441
0.0854019
0.085455
0.0855029
0.085548
0.0855906
0.0856305
0.0856665
0.0856998
0.0857302
0.0857577
0.0857816
0.0858041
0.0858254
0.0858452
0.0858625
0.0858785
0.0858927
0.0859053
0.0859153
0.0859249
0.085934
0.0859425
0.0859493
0.0859555
0.0859608
0.0859651
0.0859678
0.0859706
0.0859732
0.0859756
0.0859769
0.085978
0.0859786
0.0859787
0.0859779
0.0859772
0.0859764
0.0859755
0.0859742
0.0859727
0.0859709
0.0859689
0.0859666
0.085964
0.0859613
0.0859584
0.0859558
0.0859524
0.0859502
0.0859438
0.0288713
0.0219711
0.0163537
0.012097
0.00943608
0.00840286
0.00905191
0.0125294
0.0197334
0.0290271
0.0382056
0.0462476
0.0529917
0.0585721
0.063177
0.0669828
0.0701376
0.0727632
0.0749575
0.076801
0.0783574
0.0796787
0.0808084
0.0817826
0.0826303
0.083376
0.0840395
0.0846395
0.0851902
0.0857038
0.0861894
0.086656
0.08711
0.0875567
0.0879992
0.0884422
0.0888878
0.0893371
0.0897892
0.0902443
0.0907006
0.0911559
0.0916065
0.0920515
0.092488
0.0929132
0.0933232
0.0937167
0.0940916
0.0944466
0.0947797
0.0950928
0.0953862
0.0956607
0.0959156
0.0961528
0.0963729
0.0965769
0.0967645
0.096939
0.0971016
0.0972534
0.0973937
0.0975243
0.0976455
0.0977581
0.0978611
0.0979575
0.0980479
0.0981328
0.0982109
0.0982838
0.0983513
0.0984138
0.0984702
0.0985231
0.0985729
0.0986199
0.0986626
0.0987022
0.0987385
0.0987717
0.0988007
0.0988277
0.0988531
0.0988769
0.098898
0.0989175
0.098935
0.0989506
0.0989633
0.0989752
0.0989864
0.0989968
0.0990055
0.0990134
0.0990202
0.099026
0.0990299
0.0990336
0.0990371
0.0990402
0.0990423
0.099044
0.0990452
0.0990458
0.0990453
0.0990448
0.0990441
0.0990434
0.0990422
0.0990407
0.099039
0.099037
0.0990346
0.0990319
0.099029
0.0990259
0.099023
0.0990193
0.0990169
0.0990097
0.0318853
0.0265341
0.021513
0.0170809
0.0134758
0.0109513
0.00978929
0.0114197
0.0176139
0.0271316
0.0373617
0.0467569
0.0548678
0.0617219
0.067477
0.0723061
0.0763646
0.0797851
0.0826774
0.0851337
0.0872286
0.0890238
0.0905699
0.0919118
0.0930848
0.094119
0.095039
0.0958678
0.0966234
0.0973215
0.097974
0.0985926
0.0991859
0.0997612
0.100323
0.100878
0.101429
0.101978
0.102525
0.103071
0.103615
0.104154
0.104685
0.105207
0.105716
0.106211
0.106686
0.107141
0.107573
0.107981
0.108363
0.108721
0.109055
0.109367
0.109656
0.109925
0.110174
0.110405
0.110618
0.110815
0.110999
0.11117
0.111329
0.111477
0.111615
0.111743
0.111861
0.111971
0.112074
0.112171
0.112261
0.112345
0.112423
0.112496
0.112562
0.112623
0.112681
0.112736
0.112786
0.112833
0.112876
0.112915
0.11295
0.112982
0.113012
0.113041
0.113066
0.11309
0.113111
0.11313
0.113146
0.113161
0.113174
0.113187
0.113198
0.113208
0.113217
0.113224
0.11323
0.113235
0.113239
0.113243
0.113246
0.113249
0.113251
0.113252
0.113252
0.113252
0.113251
0.113251
0.11325
0.113248
0.113247
0.113245
0.113242
0.11324
0.113237
0.113233
0.11323
0.113226
0.113224
0.113216
0.0339564
0.0302564
0.0262938
0.0223963
0.0187331
0.0154326
0.0125549
0.0113308
0.0150534
0.0237951
0.0346438
0.0453217
0.0548973
0.0631889
0.0702813
0.0763269
0.0814796
0.0858784
0.0896424
0.0928743
0.0956591
0.0980683
0.100161
0.101989
0.103596
0.105019
0.106287
0.107428
0.108465
0.109417
0.1103
0.111129
0.111914
0.112666
0.113392
0.114099
0.114791
0.115474
0.116147
0.116812
0.117469
0.118115
0.118748
0.119366
0.119965
0.120544
0.121098
0.121626
0.122125
0.122594
0.123032
0.12344
0.12382
0.124173
0.124499
0.124802
0.125081
0.12534
0.125579
0.125799
0.126004
0.126196
0.126374
0.12654
0.126694
0.126839
0.126972
0.127096
0.127212
0.127322
0.127425
0.127521
0.12761
0.127693
0.12777
0.127841
0.127907
0.127971
0.128029
0.128083
0.128134
0.12818
0.128222
0.12826
0.128296
0.128329
0.12836
0.128388
0.128414
0.128437
0.128457
0.128475
0.128491
0.128507
0.128521
0.128533
0.128544
0.128554
0.128561
0.128567
0.128573
0.128579
0.128583
0.128586
0.128589
0.128591
0.128592
0.128592
0.128592
0.128592
0.128591
0.12859
0.128589
0.128587
0.128585
0.128582
0.128579
0.128576
0.128572
0.128568
0.128565
0.128556
0.0352154
0.0329258
0.030153
0.0271652
0.0240938
0.0209543
0.0174842
0.0137598
0.013385
0.0195253
0.029929
0.0414896
0.0524866
0.0623277
0.070932
0.0783923
0.0848447
0.0904259
0.0952601
0.0994573
0.103112
0.106304
0.109102
0.111565
0.113743
0.115681
0.117415
0.118977
0.120396
0.121694
0.122893
0.12401
0.125059
0.126054
0.127004
0.127918
0.128804
0.129667
0.130509
0.131333
0.132139
0.132927
0.133692
0.134433
0.135148
0.135833
0.136486
0.137103
0.137684
0.138227
0.138731
0.139198
0.139629
0.140028
0.140396
0.140734
0.141047
0.141335
0.1416
0.141844
0.142071
0.142283
0.14248
0.142664
0.142836
0.142996
0.143145
0.143284
0.143414
0.143538
0.143653
0.143761
0.143863
0.143958
0.144045
0.144127
0.144204
0.144276
0.144344
0.144407
0.144465
0.14452
0.144569
0.144614
0.144656
0.144696
0.144732
0.144766
0.144796
0.144825
0.144849
0.144871
0.144891
0.14491
0.144927
0.144942
0.144956
0.144968
0.144978
0.144986
0.144994
0.145001
0.145006
0.145011
0.145015
0.145019
0.14502
0.145022
0.145022
0.145022
0.145022
0.145021
0.14502
0.145019
0.145017
0.145014
0.145011
0.145008
0.145004
0.145
0.144997
0.144987
0.0358863
0.0345927
0.0328622
0.0308376
0.0286117
0.0261777
0.0232326
0.0190209
0.0147625
0.0159859
0.0237992
0.035089
0.0470836
0.058419
0.0686425
0.077694
0.0856514
0.0926313
0.0987533
0.10413
0.108861
0.113035
0.116727
0.120004
0.122922
0.125533
0.12788
0.130002
0.131931
0.133696
0.135322
0.136831
0.13824
0.139567
0.140823
0.142022
0.143172
0.14428
0.145352
0.146391
0.147398
0.148374
0.149315
0.15022
0.151086
0.151911
0.152691
0.153424
0.154108
0.154744
0.155329
0.155868
0.156362
0.156815
0.15723
0.15761
0.157958
0.158278
0.158572
0.158842
0.159092
0.159324
0.159541
0.159743
0.159932
0.160109
0.160274
0.160429
0.160574
0.160711
0.16084
0.160962
0.161077
0.161185
0.161284
0.161378
0.161465
0.161548
0.161626
0.161699
0.161767
0.161831
0.161888
0.161942
0.161991
0.162038
0.162081
0.162121
0.162157
0.162191
0.162221
0.162248
0.162273
0.162296
0.162317
0.162335
0.162352
0.162368
0.16238
0.162392
0.162401
0.16241
0.162418
0.162424
0.16243
0.162435
0.162438
0.16244
0.162441
0.162443
0.162443
0.162443
0.162442
0.162441
0.162439
0.162437
0.162434
0.162431
0.162427
0.162423
0.16242
0.162409
0.0361962
0.0354882
0.0345005
0.0332704
0.0318413
0.0302103
0.0281903
0.0251063
0.0201152
0.0161427
0.0184559
0.0269304
0.0385569
0.0508486
0.0625728
0.073291
0.0829174
0.0915004
0.0991329
0.105918
0.111954
0.117334
0.122137
0.126437
0.130298
0.133774
0.136915
0.139768
0.142369
0.144753
0.146949
0.148984
0.150879
0.152655
0.154328
0.155913
0.157423
0.158866
0.160251
0.161582
0.162862
0.164093
0.165272
0.166398
0.167468
0.168479
0.169429
0.170315
0.171137
0.171894
0.172586
0.173218
0.173792
0.174315
0.174788
0.175219
0.175611
0.175969
0.176295
0.176595
0.17687
0.177126
0.177364
0.177586
0.177794
0.17799
0.178172
0.178344
0.178505
0.178659
0.178803
0.17894
0.179069
0.179191
0.179305
0.179412
0.179512
0.179607
0.179697
0.179781
0.17986
0.179935
0.180003
0.180066
0.180125
0.18018
0.180231
0.180279
0.180323
0.180363
0.1804
0.180433
0.180464
0.180492
0.180517
0.18054
0.180561
0.180581
0.180597
0.180612
0.180624
0.180636
0.180646
0.180655
0.180662
0.180669
0.180674
0.180677
0.18068
0.180682
0.180684
0.180684
0.180684
0.180684
0.180683
0.180681
0.180678
0.180675
0.180672
0.180668
0.180664
0.180653
0.0363185
0.0358963
0.0353417
0.0346436
0.0338071
0.0328263
0.0316146
0.0298386
0.0266316
0.0215402
0.0179179
0.0201782
0.0282838
0.0397219
0.0521447
0.0642636
0.0755544
0.0858638
0.0951933
0.103605
0.11118
0.118004
0.124157
0.129716
0.134748
0.139313
0.143466
0.147255
0.150725
0.153916
0.15686
0.15959
0.162131
0.164507
0.166739
0.168846
0.170841
0.172739
0.174548
0.176276
0.177928
0.179506
0.181008
0.182435
0.183783
0.185049
0.186231
0.187327
0.188336
0.189259
0.190098
0.190857
0.191541
0.192158
0.192713
0.193213
0.193664
0.194073
0.194443
0.194781
0.195091
0.195378
0.195643
0.195891
0.196122
0.19634
0.196545
0.196737
0.196919
0.197092
0.197255
0.19741
0.197557
0.197697
0.197828
0.197952
0.198068
0.198179
0.198283
0.198382
0.198475
0.198562
0.198643
0.198719
0.198789
0.198856
0.198917
0.198974
0.199027
0.199077
0.199122
0.199163
0.199201
0.199236
0.199267
0.199296
0.199323
0.199347
0.199368
0.199387
0.199404
0.199419
0.199433
0.199444
0.199455
0.199464
0.199471
0.199477
0.199481
0.199485
0.199488
0.19949
0.199491
0.199491
0.199491
0.19949
0.199488
0.199486
0.199483
0.199479
0.199476
0.199464
0.0363591
0.0360514
0.0357022
0.0352934
0.034815
0.0342571
0.0335822
0.0326676
0.0311497
0.0282714
0.0237391
0.0200772
0.0211119
0.0276826
0.0381459
0.0503212
0.0626972
0.0745513
0.0856017
0.0957706
0.105074
0.113565
0.121307
0.128369
0.13482
0.140721
0.146127
0.151092
0.155663
0.159882
0.16379
0.167421
0.170805
0.17397
0.176941
0.17974
0.182385
0.184891
0.187271
0.189535
0.191689
0.193737
0.19568
0.197517
0.199245
0.200861
0.202363
0.20375
0.20502
0.206178
0.207224
0.208166
0.20901
0.209766
0.210441
0.211045
0.211586
0.212074
0.212513
0.212911
0.213274
0.213608
0.213917
0.214204
0.214472
0.214724
0.214961
0.215184
0.215396
0.215597
0.215787
0.215968
0.21614
0.216304
0.216459
0.216606
0.216745
0.216877
0.217001
0.217119
0.217231
0.217336
0.217435
0.217527
0.217613
0.217694
0.217769
0.21784
0.217905
0.217967
0.218023
0.218075
0.218123
0.218167
0.218207
0.218244
0.218278
0.218309
0.218337
0.218362
0.218384
0.218405
0.218423
0.218439
0.218453
0.218465
0.218476
0.218485
0.218492
0.218498
0.218503
0.218507
0.21851
0.218512
0.218513
0.218513
0.218512
0.218511
0.218509
0.218506
0.218503
0.21849
0.0363702
0.0360998
0.0358287
0.0355459
0.035242
0.034908
0.0345267
0.034058
0.0333975
0.0322728
0.0301559
0.0266588
0.0229589
0.0220413
0.0258224
0.033986
0.044981
0.0571321
0.0693289
0.0810443
0.0920693
0.102333
0.111835
0.120613
0.128717
0.136198
0.14311
0.149505
0.155431
0.160934
0.166051
0.170822
0.175282
0.179462
0.18339
0.187091
0.190586
0.193894
0.19703
0.200006
0.202832
0.205511
0.208047
0.210439
0.212684
0.21478
0.216724
0.218516
0.220156
0.221647
0.222995
0.224207
0.225293
0.226262
0.227128
0.2279
0.22859
0.229209
0.229766
0.23027
0.230728
0.231148
0.231534
0.231892
0.232226
0.232539
0.232832
0.233109
0.233371
0.233619
0.233854
0.234078
0.234291
0.234494
0.234686
0.234868
0.235041
0.235205
0.23536
0.235507
0.235646
0.235778
0.235902
0.236018
0.236127
0.236229
0.236325
0.236414
0.236498
0.236576
0.236649
0.236716
0.236778
0.236835
0.236888
0.236937
0.236981
0.237023
0.23706
0.237094
0.237124
0.237152
0.237177
0.237199
0.237219
0.237236
0.237252
0.237265
0.237277
0.237287
0.237295
0.237302
0.237307
0.237311
0.237315
0.237317
0.237318
0.237318
0.237317
0.237315
0.237313
0.237301
0.0363726
0.0361118
0.0358642
0.0356247
0.035388
0.0351487
0.0348991
0.0346262
0.0343046
0.0338722
0.0331795
0.0319316
0.0297546
0.0267389
0.0243149
0.0246686
0.0289557
0.036915
0.0474313
0.0591862
0.071175
0.0828532
0.0939959
0.10452
0.114399
0.123637
0.132264
0.14032
0.147848
0.154888