/*--------------------------------*- C++ -*----------------------------------*\
  =========                 |
  \\      /  F ield         | OpenFOAM: The Open Source CFD Toolbox
   \\    /   O peration     | Website:  https://openfoam.org
    \\  /    A nd           | Version:  8
     \\/     M anipulation  |
\*---------------------------------------------------------------------------*/
FoamFile
{
    version     2.0;
    format      ascii;
    class       surfaceScalarField;
    location    "250";
    object      phi;
}
// * * * * * * * * * * * * * * * * * * * * * * * * * * * * * * * * * * * * * //

dimensions      [0 3 -1 0 0 0 0];

internalField   nonuniform List<scalar> 
14458
(
0.00222124
0.00139968
0.00205679
0.000164933
0.00198936
6.8318e-05
0.00194716
4.29673e-05
0.00191794
2.99539e-05
0.00190181
1.66242e-05
0.00189677
5.93747e-06
0.00189079
6.46818e-06
0.00187652
1.4535e-05
0.00185855
1.7976e-05
0.00184266
1.66559e-05
0.00183073
1.24564e-05
0.0018224
8.61557e-06
0.0018169
5.5564e-06
0.00181353
3.83415e-06
0.0018118
1.94955e-06
0.00181132
4.67082e-07
0.00181182
-7.4198e-07
0.0018131
-7.25077e-07
0.00181498
-1.57895e-06
0.00181736
-2.28145e-06
0.00182012
-2.90099e-06
0.0018232
-2.719e-06
0.00182653
-3.21425e-06
0.00183008
-3.63038e-06
0.00183379
-4.0162e-06
0.00183763
-3.34374e-06
0.00184159
-3.68914e-06
0.00184564
-3.98403e-06
0.00184976
-4.28058e-06
0.00185392
-3.82564e-06
0.00185813
-4.09701e-06
0.00186234
-4.31471e-06
0.00186654
-4.52679e-06
0.00187071
-3.67615e-06
0.00187482
-3.86734e-06
0.00187888
-4.00862e-06
0.00188284
-4.16053e-06
0.0018867
-3.52953e-06
0.00189044
-3.65843e-06
0.00189404
-3.73239e-06
0.00189748
-3.81078e-06
0.00190074
-2.76587e-06
0.00190383
-2.84396e-06
0.00190674
-2.8853e-06
0.00190946
-2.96169e-06
0.00191201
-2.23331e-06
0.00191438
-2.32581e-06
0.00191659
-2.381e-06
0.00191862
-2.46461e-06
0.00192047
-1.37552e-06
0.00192217
-1.49211e-06
0.00192373
-1.58431e-06
0.00192517
-1.72841e-06
0.00192648
-1.02597e-06
0.00192768
-1.19833e-06
0.00192878
-1.33357e-06
0.00192978
-1.50159e-06
0.00193067
-4.38477e-07
0.00193148
-6.35474e-07
0.00193222
-8.04776e-07
0.0019329
-1.02512e-06
0.00193352
-3.84296e-07
0.00193409
-6.20734e-07
0.00193462
-8.13249e-07
0.00193508
-1.03464e-06
0.00193549
-3.4917e-08
0.00193586
-2.75931e-07
0.0019362
-4.84503e-07
0.00193652
-7.39122e-07
0.0019368
-1.35549e-07
0.00193707
-3.95162e-07
0.00193732
-6.06492e-07
0.00193753
-8.42941e-07
0.00193771
1.1369e-07
0.00193786
-1.37746e-07
0.00193802
-3.54434e-07
0.00193815
-6.13224e-07
0.00193828
-5.36545e-08
0.00193841
-3.14477e-07
0.00193852
-5.25775e-07
0.00193862
-7.58952e-07
0.00193869
1.28625e-07
0.00193875
-1.15858e-07
0.00193881
-3.23492e-07
0.00193887
-5.68967e-07
0.00193893
-4.4277e-08
0.00193898
-2.91461e-07
0.00193903
-4.89557e-07
0.00193907
-7.08304e-07
0.0019391
1.09535e-07
0.00193912
-1.18787e-07
0.00193914
-3.09483e-07
0.00193917
-5.35167e-07
0.00193919
-7.47897e-08
0.00193921
-2.99481e-07
0.00193924
-4.7677e-07
0.00193925
-6.73831e-07
0.00193926
-7.81825e-10
0.00193926
-2.02023e-07
0.00193927
-3.64189e-07
0.00193928
-5.5663e-07
0.00193929
-1.89758e-07
0.0019393
-3.7339e-07
0.00193932
-5.10917e-07
0.00193932
-6.65535e-07
0.00193932
-2.07525e-07
0.00193933
-3.51648e-07
0.00193933
-4.55463e-07
0.00193934
-5.81116e-07
0.00193934
-3.84841e-07
0.00193935
-4.86098e-07
0.00193936
-5.41292e-07
0.00193936
-6.10921e-07
0.00193937
-5.33257e-07
0.00193938
-5.65533e-07
0.00193938
-5.48331e-07
0.00193938
-5.47355e-07
0.00193939
-6.243e-07
0.00193938
-5.70429e-07
0.0019394
-8.87582e-08
-4.1006e-08
0.00311148
0.0025968
0.00288388
0.000392825
0.00278389
0.000168835
0.00272301
0.000104297
0.00268164
7.17505e-05
0.002658
4.05352e-05
0.00264521
1.92412e-05
0.00262378
2.81663e-05
0.00258751
5.0933e-05
0.00254889
5.65859e-05
0.0025176
4.83255e-05
0.00249503
3.5274e-05
0.00247947
2.43117e-05
0.00246907
1.59714e-05
0.00246246
1.06644e-05
0.00245868
5.82962e-06
0.00245703
2.10714e-06
0.00245701
-8.41275e-07
0.00245825
-1.7009e-06
0.00246045
-3.64233e-06
0.0024634
-5.19378e-06
0.00246693
-6.49681e-06
0.0024709
-6.51919e-06
0.00247521
-7.46717e-06
0.00247977
-8.23741e-06
0.00248451
-8.90603e-06
0.00248938
-7.97526e-06
0.00249434
-8.52422e-06
0.00249936
-8.98173e-06
0.00250442
-9.42049e-06
0.00250949
-8.73854e-06
0.00251456
-9.11421e-06
0.0025196
-9.40201e-06
0.00252457
-9.65403e-06
0.00252944
-8.32457e-06
0.00253422
-8.5261e-06
0.00253888
-8.65716e-06
0.00254342
-8.79131e-06
0.00254781
-7.766e-06
0.00255204
-7.85068e-06
0.0025561
-7.85513e-06
0.00255996
-7.84101e-06
0.00256358
-6.16343e-06
0.00256699
-6.14204e-06
0.0025702
-6.08484e-06
0.00257321
-6.07701e-06
0.00257601
-4.88807e-06
0.00257861
-4.90753e-06
0.00258103
-4.88653e-06
0.00258326
-4.89039e-06
0.00258527
-3.16719e-06
0.0025871
-3.2277e-06
0.00258879
-3.28165e-06
0.00259034
-3.41529e-06
0.00259175
-2.31008e-06
0.00259305
-2.49327e-06
0.00259425
-2.6393e-06
0.00259533
-2.81602e-06
0.00259628
-1.17921e-06
0.00259713
-1.40416e-06
0.00259792
-1.61828e-06
0.00259865
-1.90887e-06
0.00259931
-9.35995e-07
0.00259991
-1.25052e-06
0.00260048
-1.51344e-06
0.00260099
-1.79945e-06
0.00260141
-2.86644e-07
0.00260179
-6.05488e-07
0.00260214
-9.04324e-07
0.00260248
-1.26933e-06
0.00260279
-3.71835e-07
0.00260308
-7.38181e-07
0.00260335
-1.04332e-06
0.00260359
-1.36427e-06
0.00260377
7.14893e-08
0.00260392
-2.76936e-07
0.00260407
-5.99073e-07
0.00260423
-9.79479e-07
0.00260437
-1.56448e-07
0.0026045
-5.35629e-07
0.00260464
-8.49072e-07
0.00260475
-1.17288e-06
0.00260483
1.53259e-07
0.00260489
-1.93013e-07
0.00260495
-5.05731e-07
0.00260502
-8.67508e-07
0.00260508
-9.73522e-08
0.00260515
-4.60952e-07
0.00260522
-7.58327e-07
0.00260528
-1.06545e-06
0.0026053
1.52656e-07
0.00260532
-1.75608e-07
0.00260535
-4.64763e-07
0.00260538
-7.98159e-07
0.00260541
-1.22923e-07
0.00260544
-4.54291e-07
0.00260548
-7.20402e-07
0.00260551
-9.99483e-07
0.00260552
1.60189e-09
0.00260553
-2.90834e-07
0.00260554
-5.37256e-07
0.00260556
-8.22203e-07
0.00260558
-2.8385e-07
0.0026056
-5.54772e-07
0.00260563
-7.62234e-07
0.00260565
-9.83801e-07
0.00260566
-2.99696e-07
0.00260566
-5.09619e-07
0.00260568
-6.70726e-07
0.00260569
-8.57529e-07
0.00260571
-5.65524e-07
0.00260573
-7.14748e-07
0.00260574
-8.12009e-07
0.00260577
-9.15827e-07
0.00260579
-7.7298e-07
0.0026058
-8.17989e-07
0.00260582
-8.26137e-07
0.00260583
-8.24102e-07
0.00260585
-9.15121e-07
0.00260585
-8.20138e-07
0.00260589
-7.40843e-07
-6.82253e-07
0.00403422
0.00368968
0.00373885
0.000688421
0.0036009
0.000307173
0.00351824
0.000187266
0.00346286
0.000127437
0.00342908
7.45144e-05
0.00340193
4.67325e-05
0.00335461
7.56631e-05
0.00328711
0.00011852
0.00322268
0.000121021
0.00317359
9.76178e-05
0.00313923
6.97692e-05
0.0031158
4.78165e-05
0.00310012
3.16663e-05
0.00309
2.09027e-05
0.00308397
1.1916e-05
0.00308099
5.08762e-06
0.00308032
-2.22764e-07
0.00308139
-2.64287e-06
0.00308381
-5.98488e-06
0.00308724
-8.60183e-06
0.00309144
-1.07279e-05
0.00309621
-1.11992e-05
0.0031014
-1.26314e-05
0.0031069
-1.3753e-05
0.0031126
-1.46735e-05
0.00311841
-1.36663e-05
0.0031243
-1.435e-05
0.00313023
-1.48952e-05
0.00313617
-1.53977e-05
0.00314208
-1.45673e-05
0.00314795
-1.49586e-05
0.00315376
-1.52278e-05
0.00315946
-1.54272e-05
0.003165
-1.37559e-05
0.0031704
-1.38694e-05
0.00317566
-1.39004e-05
0.00318076
-1.3932e-05
0.00318566
-1.25931e-05
0.00319038
-1.25469e-05
0.0031949
-1.24001e-05
0.00319918
-1.2208e-05
0.00320318
-1.00537e-05
0.00320694
-9.84168e-06
0.00321047
-9.60754e-06
0.00321378
-9.4413e-06
0.00321685
-7.8884e-06
0.00321971
-7.75655e-06
0.00322238
-7.58843e-06
0.00322482
-7.43528e-06
0.00322702
-5.25353e-06
0.00322901
-5.17335e-06
0.00323084
-5.12004e-06
0.00323253
-5.17743e-06
0.00323407
-3.78361e-06
0.00323549
-3.90657e-06
0.0032368
-4.00107e-06
0.00323798
-4.11677e-06
0.00323901
-2.10082e-06
0.00323992
-2.27612e-06
0.00324076
-2.47481e-06
0.00324155
-2.77746e-06
0.00324226
-1.59507e-06
0.00324292
-1.9224e-06
0.00324354
-2.19909e-06
0.00324409
-2.48437e-06
0.00324455
-6.54705e-07
0.00324494
-9.80186e-07
0.00324532
-1.31598e-06
0.00324568
-1.73854e-06
0.00324602
-6.7235e-07
0.00324633
-1.08414e-06
0.00324664
-1.42932e-06
0.0032469
-1.77205e-06
0.00324709
-5.1498e-08
0.00324724
-4.30922e-07
0.0032474
-8.09143e-07
0.00324757
-1.26147e-06
0.00324773
-2.96138e-07
0.00324788
-7.37986e-07
0.00324804
-1.10419e-06
0.00324818
-1.45999e-06
0.00324825
1.19849e-07
0.00324831
-2.67916e-07
0.00324838
-6.39519e-07
0.00324846
-1.06962e-06
0.00324854
-1.68778e-07
0.00324861
-5.97762e-07
0.0032487
-9.48762e-07
0.00324877
-1.29036e-06
0.0032488
1.53143e-07
0.00324882
-2.21184e-07
0.00324885
-5.66459e-07
0.00324889
-9.62873e-07
0.00324893
-1.74758e-07
0.00324897
-5.6599e-07
0.00324903
-8.79677e-07
0.00324907
-1.19282e-06
0.00324908
-1.16904e-08
0.00324909
-3.49185e-07
0.00324911
-6.42946e-07
0.00324914
-9.81662e-07
0.00324916
-3.55608e-07
0.0032492
-6.74536e-07
0.00324924
-9.16257e-07
0.00324927
-1.16786e-06
0.00324928
-3.67669e-07
0.00324929
-6.09603e-07
0.00324931
-7.95646e-07
0.00324934
-1.01761e-06
0.00324936
-6.83702e-07
0.00324939
-8.57914e-07
0.00324942
-9.59354e-07
0.00324945
-1.08232e-06
0.00324949
-9.40713e-07
0.00324951
-9.88111e-07
0.00324954
-9.69038e-07
0.00324957
-9.63814e-07
0.0032496
-1.09826e-06
0.0032496
-9.57503e-07
0.00324966
-4.43685e-07
-3.53404e-07
0.00509516
0.00469573
0.00472966
0.00105416
0.00454498
0.000492241
0.00443455
0.000298011
0.00436113
0.000201157
0.00431264
0.000123192
0.00426272
9.69896e-05
0.00417858
0.000159951
0.00407158
0.000225597
0.00397693
0.000215659
0.00390773
0.000167021
0.00386019
0.000117427
0.00382799
8.00831e-05
0.00380642
5.32455e-05
0.00379236
3.50704e-05
0.00378378
2.05389e-05
0.00377927
9.59795e-06
0.00377781
1.17609e-06
0.00377865
-3.35477e-06
0.00378124
-8.50939e-06
0.00378515
-1.24913e-05
0.00379005
-1.56617e-05
0.00379567
-1.67348e-05
0.00380182
-1.8755e-05
0.00380834
-2.02923e-05
0.00381509
-2.14979e-05
0.00382196
-2.04201e-05
0.0038289
-2.12309e-05
0.00383587
-2.18492e-05
0.00384282
-2.23946e-05
0.00384972
-2.13892e-05
0.00385655
-2.1764e-05
0.00386328
-2.19835e-05
0.00386987
-2.20915e-05
0.00387626
-2.00314e-05
0.00388245
-2.00121e-05
0.00388847
-1.99082e-05
0.00389429
-1.98036e-05
0.00389989
-1.81168e-05
0.00390527
-1.79035e-05
0.00391041
-1.75755e-05
0.00391529
-1.71676e-05
0.00391984
-1.44893e-05
0.00392409
-1.40435e-05
0.00392809
-1.36026e-05
0.00393184
-1.32502e-05
0.00393533
-1.13031e-05
0.00393857
-1.09892e-05
0.0039416
-1.06514e-05
0.00394437
-1.0311e-05
0.00394686
-7.62925e-06
0.0039491
-7.3733e-06
0.00395117
-7.19389e-06
0.00395309
-7.1595e-06
0.00395483
-5.45819e-06
0.00395642
-5.50257e-06
0.00395791
-5.53637e-06
0.00395925
-5.57419e-06
0.0039604
-3.14941e-06
0.00396142
-3.25273e-06
0.00396236
-3.43037e-06
0.00396325
-3.74263e-06
0.00396405
-2.34321e-06
0.00396479
-2.67543e-06
0.0039655
-2.9647e-06
0.00396612
-3.24057e-06
0.00396663
-1.07287e-06
0.00396706
-1.39156e-06
0.00396748
-1.76655e-06
0.0039679
-2.25123e-06
0.00396828
-1.01413e-06
0.00396863
-1.46809e-06
0.00396898
-1.85539e-06
0.00396928
-2.21372e-06
0.00396949
-1.90181e-07
0.00396966
-5.91413e-07
0.00396984
-1.03101e-06
0.00397003
-1.56156e-06
0.00397021
-4.54019e-07
0.00397039
-9.58867e-07
0.00397058
-1.38218e-06
0.00397074
-1.76555e-06
0.00397082
8.39666e-08
0.00397089
-3.38953e-07
0.00397097
-7.75433e-07
0.00397106
-1.27888e-06
0.00397115
-2.46584e-07
0.00397124
-7.42545e-07
0.00397135
-1.15246e-06
0.00397144
-1.52525e-06
0.00397147
1.57873e-07
0.00397149
-2.58746e-07
0.00397153
-6.66256e-07
0.00397158
-1.13017e-06
0.00397163
-2.27761e-07
0.00397168
-6.80445e-07
0.00397175
-1.0459e-06
0.00397181
-1.39105e-06
0.00397182
-1.74733e-08
0.00397183
-3.98498e-07
0.00397186
-7.45148e-07
0.0039719
-1.14179e-06
0.00397193
-4.25613e-07
0.00397197
-7.94055e-07
0.00397202
-1.07511e-06
0.00397207
-1.35666e-06
0.00397209
-4.26234e-07
0.0039721
-6.99782e-07
0.00397213
-9.19842e-07
0.00397217
-1.18046e-06
0.0039722
-7.9669e-07
0.00397224
-9.97204e-07
0.00397228
-1.1241e-06
0.00397232
-1.26922e-06
0.00397237
-1.08709e-06
0.00397241
-1.13699e-06
0.00397244
-1.13694e-06
0.00397248
-1.13016e-06
0.00397252
-1.27247e-06
0.00397253
-1.08351e-06
0.00397261
-9.71799e-07
-9.19612e-07
0.00634381
0.0056123
0.00590971
0.00148848
0.0056689
0.000733405
0.00552304
0.000444154
0.00542604
0.000298415
0.00535687
0.00019252
0.00527508
0.000179057
0.00514383
0.000291324
0.00498961
0.000379887
0.00485987
0.000345404
0.00476734
0.000259685
0.00470445
0.000180407
0.00466197
0.000122621
0.00463342
8.17948e-05
0.00461467
5.39027e-05
0.00460301
3.22318e-05
0.0045966
1.60193e-05
0.00459411
3.63164e-06
0.00459456
-3.72178e-06
0.00459726
-1.11573e-05
0.00460163
-1.68469e-05
0.00460726
-2.13123e-05
0.0046138
-2.32153e-05
0.004621
-2.5941e-05
0.00462867
-2.79632e-05
0.00463662
-2.94909e-05
0.0046447
-2.84271e-05
0.00465286
-2.93547e-05
0.00466105
-3.00216e-05
0.00466921
-3.05833e-05
0.0046773
-2.94173e-05
0.00468528
-2.97351e-05
0.00469315
-2.98568e-05
0.00470083
-2.98239e-05
0.00470827
-2.73918e-05
0.00471547
-2.71818e-05
0.00472246
-2.68862e-05
0.00472923
-2.65974e-05
0.00473572
-2.45604e-05
0.00474196
-2.41275e-05
0.00474793
-2.35622e-05
0.00475359
-2.28816e-05
0.00475887
-1.96902e-05
0.0047638
-1.89458e-05
0.00476845
-1.82382e-05
0.00477281
-1.76494e-05
0.00477686
-1.5304e-05
0.00478063
-1.47539e-05
0.00478415
-1.41922e-05
0.00478738
-1.36101e-05
0.00479027
-1.04456e-05
0.00479288
-9.95432e-06
0.00479528
-9.59849e-06
0.00479751
-9.43365e-06
0.00479953
-7.43577e-06
0.00480138
-7.36096e-06
0.00480312
-7.29516e-06
0.00480468
-7.21632e-06
0.00480602
-4.41854e-06
0.00480719
-4.40588e-06
0.00480828
-4.52907e-06
0.00480931
-4.82842e-06
0.00481025
-3.23803e-06
0.0048111
-3.54794e-06
0.00481193
-3.82333e-06
0.00481266
-4.06188e-06
0.00481324
-1.60168e-06
0.00481374
-1.88108e-06
0.00481423
-2.27319e-06
0.00481471
-2.80677e-06
0.00481516
-1.43214e-06
0.00481557
-1.90772e-06
0.00481598
-2.31576e-06
0.00481633
-2.66602e-06
0.00481658
-3.88823e-07
0.00481677
-7.85259e-07
0.00481697
-1.2687e-06
0.0048172
-1.86753e-06
0.00481741
-6.53138e-07
0.00481763
-1.20544e-06
0.00481785
-1.66842e-06
0.00481804
-2.05883e-06
0.00481814
1.0666e-08
0.00481821
-4.24944e-07
0.00481831
-9.106e-07
0.00481843
-1.47723e-06
0.00481853
-3.47589e-07
0.00481864
-8.9722e-07
0.00481878
-1.35032e-06
0.00481888
-1.73596e-06
0.00481892
1.37104e-07
0.00481894
-3.02982e-07
0.00481899
-7.58509e-07
0.00481906
-1.28009e-06
0.00481911
-2.94394e-07
0.00481918
-7.96084e-07
0.00481927
-1.19892e-06
0.00481933
-1.56003e-06
0.00481935
-3.83382e-08
0.00481936
-4.47565e-07
0.0048194
-8.34371e-07
0.00481945
-1.28005e-06
0.00481949
-5.00608e-07
0.00481954
-9.07542e-07
0.00481961
-1.21372e-06
0.00481966
-1.51315e-06
0.00481969
-4.90578e-07
0.00481971
-7.8415e-07
0.00481975
-1.02282e-06
0.00481979
-1.31555e-06
0.00481984
-9.04077e-07
0.00481989
-1.12359e-06
0.00481994
-1.25066e-06
0.00482
-1.41336e-06
0.00482005
-1.2379e-06
0.0048201
-1.28491e-06
0.00482015
-1.25812e-06
0.00482019
-1.24678e-06
0.00482025
-1.43204e-06
0.00482026
-1.18169e-06
0.00482037
-7.17269e-07
-6.4105e-07
0.00782492
0.00642719
0.00732956
0.00198409
0.00702354
0.00103983
0.00683297
0.000635023
0.00670518
0.000426488
0.00660789
0.000289981
0.00648431
0.000302944
0.00629522
0.000480545
0.00608494
0.00059023
0.00591354
0.000516789
0.00579299
0.000380402
0.00571142
0.000262069
0.00565632
0.00017779
0.00561915
0.000118962
0.00559452
7.86309e-05
0.00557893
4.78508e-05
0.00557002
2.49351e-05
0.00556609
7.5069e-06
0.0055659
-3.42686e-06
0.00556855
-1.37537e-05
0.00557333
-2.16045e-05
0.00557969
-2.77118e-05
0.00558722
-3.06674e-05
0.00559557
-3.42848e-05
0.00560452
-3.69201e-05
0.00561382
-3.88579e-05
0.00562331
-3.7815e-05
0.00563289
-3.88895e-05
0.0056425
-3.96188e-05
0.00565208
-4.02033e-05
0.00566157
-3.88419e-05
0.00567094
-3.90916e-05
0.00568017
-3.9099e-05
0.00568918
-3.89017e-05
0.0056979
-3.6019e-05
0.00570635
-3.55845e-05
0.00571454
-3.50678e-05
0.00572247
-3.45691e-05
0.0057301
-3.21209e-05
0.00573741
-3.14368e-05
0.00574444
-3.06029e-05
0.00575109
-2.96119e-05
0.00575731
-2.58111e-05
0.00576312
-2.47205e-05
0.0057686
-2.37069e-05
0.00577375
-2.28479e-05
0.00577854
-2.00333e-05
0.005783
-1.92093e-05
0.00578717
-1.83895e-05
0.005791
-1.75277e-05
0.00579443
-1.37819e-05
0.00579752
-1.30122e-05
0.00580037
-1.24499e-05
0.00580301
-1.21342e-05
0.00580542
-9.78142e-06
0.00580762
-9.56662e-06
0.00580967
-9.38609e-06
0.00581153
-9.17295e-06
0.00581312
-5.92102e-06
0.00581451
-5.77009e-06
0.00581581
-5.83026e-06
0.00581703
-6.11784e-06
0.00581814
-4.29754e-06
0.00581916
-4.58256e-06
0.00582014
-4.84424e-06
0.00582101
-5.04275e-06
0.00582171
-2.22448e-06
0.00582229
-2.45712e-06
0.00582287
-2.87118e-06
0.00582345
-3.46679e-06
0.00582398
-1.92585e-06
0.00582447
-2.42888e-06
0.00582496
-2.86441e-06
0.00582539
-3.20916e-06
0.00582568
-6.19513e-07
0.0058259
-1.01016e-06
0.00582615
-1.54746e-06
0.00582643
-2.23111e-06
0.00582668
-8.86542e-07
0.00582693
-1.49704e-06
0.00582721
-2.01007e-06
0.00582744
-2.41275e-06
0.00582756
-7.05032e-08
0.00582765
-5.21296e-07
0.00582777
-1.06748e-06
0.0058279
-1.71261e-06
0.00582803
-4.63342e-07
0.00582816
-1.07848e-06
0.00582833
-1.58618e-06
0.00582846
-1.99088e-06
0.00582851
1.19792e-07
0.00582853
-3.48716e-07
0.0058286
-8.63757e-07
0.00582868
-1.45724e-06
0.00582875
-3.68178e-07
0.00582883
-9.29959e-07
0.00582894
-1.38003e-06
0.00582902
-1.76373e-06
0.00582904
-5.41574e-08
0.00582906
-4.98029e-07
0.0058291
-9.35376e-07
0.00582916
-1.44269e-06
0.00582922
-5.82787e-07
0.00582928
-1.0376e-06
0.00582936
-1.37843e-06
0.00582943
-1.70255e-06
0.00582947
-5.5502e-07
0.00582949
-8.74143e-07
0.00582954
-1.14358e-06
0.00582959
-1.47751e-06
0.00582965
-1.02221e-06
0.00582971
-1.2666e-06
0.00582977
-1.41677e-06
0.00582984
-1.60367e-06
0.00582991
-1.38904e-06
0.00582998
-1.43529e-06
0.00583004
-1.42696e-06
0.00583009
-1.41357e-06
0.00583016
-1.60767e-06
0.00583017
-1.29392e-06
0.00583031
-1.29499e-06
-1.30664e-06
0.00958308
0.0071254
0.00904292
0.00252451
0.00866504
0.00141811
0.00841935
0.000881011
0.00825175
0.000594356
0.0081173
0.000424596
0.00794111
0.000479414
0.00768248
0.000739288
0.0074054
0.00086738
0.00718353
0.000738659
0.00702837
0.000535691
0.00692344
0.00036708
0.00685238
0.000248908
0.0068042
0.000167144
0.00677197
0.000110942
0.00675121
6.86321e-05
0.00673891
3.72455e-05
0.00673292
1.34627e-05
0.00673167
-2.08894e-06
0.006734
-1.60495e-05
0.00673904
-2.66189e-05
0.00674609
-3.47882e-05
0.00675462
-3.91395e-05
0.00676422
-4.38724e-05
0.00677458
-4.72736e-05
0.0067854
-4.97242e-05
0.00679647
-4.8813e-05
0.00680768
-5.00647e-05
0.00681894
-5.08644e-05
0.00683018
-5.14717e-05
0.00684133
-4.99329e-05
0.00685234
-5.00917e-05
0.00686319
-4.99507e-05
0.00687379
-4.95502e-05
0.00688406
-4.62164e-05
0.006894
-4.55046e-05
0.00690367
-4.47137e-05
0.00691302
-4.39604e-05
0.00692204
-4.10819e-05
0.0069307
-4.00941e-05
0.00693902
-3.8933e-05
0.00694693
-3.757e-05
0.00695433
-3.31364e-05
0.00696125
-3.1624e-05
0.00696779
-3.0232e-05
0.00697395
-2.9041e-05
0.00697968
-2.57206e-05
0.00698503
-2.45548e-05
0.00699003
-2.34075e-05
0.00699464
-2.21964e-05
0.00699877
-1.78417e-05
0.00700249
-1.67169e-05
0.00700593
-1.58817e-05
0.00700911
-1.5364e-05
0.00701201
-1.26349e-05
0.00701466
-1.22291e-05
0.00701714
-1.18849e-05
0.00701938
-1.14901e-05
0.00702131
-7.78162e-06
0.00702299
-7.43974e-06
0.00702456
-7.39632e-06
0.00702603
-7.64659e-06
0.00702737
-5.59933e-06
0.0070286
-5.83103e-06
0.00702978
-6.0509e-06
0.00703083
-6.18092e-06
0.00703168
-3.01968e-06
0.0070324
-3.17154e-06
0.0070331
-3.58499e-06
0.0070338
-4.23255e-06
0.00703444
-2.54124e-06
0.00703504
-3.05465e-06
0.00703563
-3.49875e-06
0.00703615
-3.81726e-06
0.00703651
-9.37988e-07
0.00703678
-1.29767e-06
0.00703709
-1.87356e-06
0.00703742
-2.63747e-06
0.00703773
-1.18369e-06
0.00703804
-1.84223e-06
0.00703837
-2.39216e-06
0.00703865
-2.79101e-06
0.00703881
-2.02413e-07
0.00703892
-6.48619e-07
0.00703906
-1.24292e-06
0.00703923
-1.9622e-06
0.00703939
-6.14503e-07
0.00703955
-1.28745e-06
0.00703975
-1.83864e-06
0.00703991
-2.24877e-06
0.00703998
7.05326e-08
0.00704001
-4.10771e-07
0.00704009
-9.7474e-07
0.00704019
-1.63603e-06
0.00704028
-4.63611e-07
0.00704038
-1.07836e-06
0.0070405
-1.56568e-06
0.0070406
-1.96037e-06
0.00704064
-9.06312e-08
0.00704066
-5.57098e-07
0.00704071
-1.03572e-06
0.00704079
-1.60076e-06
0.00704086
-6.78892e-07
0.00704093
-1.17494e-06
0.00704103
-1.53965e-06
0.00704111
-1.87965e-06
0.00704116
-6.3511e-07
0.0070412
-9.70374e-07
0.00704125
-1.25727e-06
0.00704132
-1.62843e-06
0.00704138
-1.14861e-06
0.00704146
-1.41224e-06
0.00704153
-1.56113e-06
0.00704162
-1.76682e-06
0.00704171
-1.56535e-06
0.00704178
-1.60316e-06
0.00704186
-1.56573e-06
0.00704192
-1.54159e-06
0.00704201
-1.79302e-06
0.00704203
-1.3848e-06
0.00704219
-1.07015e-06
-9.06731e-07
0.0116649
0.00769521
0.0111082
0.00308151
0.0106578
0.00186892
0.0103466
0.00119261
0.0101285
0.000812758
0.00994627
0.000606991
0.00970572
0.000720284
0.0093646
0.00108053
0.00900757
0.00122448
0.00872369
0.00102253
0.00852504
0.000734508
0.0083903
0.000501912
0.00829867
0.000340603
0.00823616
0.00022965
0.00819391
0.00015329
0.00816622
9.6347e-05
0.00814925
5.42268e-05
0.00814027
2.2385e-05
0.0081373
9.91691e-07
0.00813888
-1.75866e-05
0.0081439
-3.16155e-05
0.0081515
-4.24239e-05
0.008161
-4.85633e-05
0.00817188
-5.47411e-05
0.00818374
-5.91442e-05
0.00819624
-6.22852e-05
0.00820909
-6.15666e-05
0.00822214
-6.30803e-05
0.0082353
-6.40016e-05
0.00824846
-6.46725e-05
0.00826153
-6.29373e-05
0.00827447
-6.3016e-05
0.00828723
-6.27224e-05
0.00829972
-6.21098e-05
0.00831184
-5.82409e-05
0.0083236
-5.7225e-05
0.00833503
-5.61301e-05
0.00834612
-5.51009e-05
0.00835683
-5.17222e-05
0.00836714
-5.04e-05
0.00837707
-4.88736e-05
0.00838652
-4.70976e-05
0.00839539
-4.19111e-05
0.00840372
-3.99181e-05
0.00841159
-3.8089e-05
0.00841901
-3.65178e-05
0.00842595
-3.25929e-05
0.00843242
-3.10297e-05
0.00843849
-2.94963e-05
0.00844409
-2.78788e-05
0.00844912
-2.27791e-05
0.00845366
-2.12336e-05
0.00845786
-2.00682e-05
0.00846174
-1.93093e-05
0.00846528
-1.61162e-05
0.00846852
-1.54824e-05
0.00847155
-1.49388e-05
0.00847429
-1.43321e-05
0.00847666
-1.00558e-05
0.00847872
-9.48722e-06
0.00848064
-9.31424e-06
0.00848244
-9.52047e-06
0.00848409
-7.18894e-06
0.00848559
-7.35912e-06
0.00848703
-7.52707e-06
0.00848832
-7.58293e-06
0.00848937
-3.99252e-06
0.00849026
-4.05136e-06
0.00849112
-4.46003e-06
0.00849198
-5.17249e-06
0.00849277
-3.29075e-06
0.0084935
-3.8208e-06
0.00849422
-4.27538e-06
0.00849486
-4.5718e-06
0.00849531
-1.32792e-06
0.00849566
-1.65469e-06
0.00849604
-2.27395e-06
0.00849645
-3.13753e-06
0.00849683
-1.54317e-06
0.00849721
-2.26346e-06
0.00849762
-2.85855e-06
0.00849796
-3.26244e-06
0.00849817
-3.61289e-07
0.00849831
-8.06257e-07
0.00849849
-1.4567e-06
0.0084987
-2.26928e-06
0.00849889
-7.94007e-07
0.00849909
-1.54016e-06
0.00849934
-2.14525e-06
0.00849953
-2.57127e-06
0.00849962
1.60113e-08
0.00849967
-4.84854e-07
0.00849977
-1.10712e-06
0.00849989
-1.85454e-06
0.0085
-5.72978e-07
0.00850012
-1.2554e-06
0.00850028
-1.78925e-06
0.0085004
-2.20563e-06
0.00850045
-1.26461e-07
0.00850047
-6.2421e-07
0.00850054
-1.15323e-06
0.00850063
-1.79244e-06
0.00850072
-7.86805e-07
0.00850081
-1.33678e-06
0.00850092
-1.73469e-06
0.00850102
-2.101e-06
0.00850108
-7.19157e-07
0.00850113
-1.07847e-06
0.00850119
-1.39449e-06
0.00850127
-1.81512e-06
0.00850136
-1.29042e-06
0.00850144
-1.58201e-06
0.00850154
-1.75338e-06
0.00850164
-1.98886e-06
0.00850174
-1.74543e-06
0.00850184
-1.78082e-06
0.00850192
-1.76132e-06
0.00850201
-1.73447e-06
0.00850211
-1.99707e-06
0.00850213
-1.5072e-06
0.00850232
-1.72682e-06
-1.72272e-06
0.0141221
0.00813223
0.0135875
0.0036165
0.0130755
0.00238139
0.0126909
0.00157756
0.0124107
0.00109328
0.0121687
0.000849142
0.0118513
0.00103802
0.0114135
0.00151849
0.0109606
0.00167737
0.0105999
0.00138323
0.010346
0.000988583
0.0101728
0.000675245
0.0100543
0.000459171
0.00997282
0.000311087
0.00991718
0.000209014
0.00988007
0.000133485
0.00985658
7.77356e-05
0.00984325
3.56715e-05
0.00983758
6.75634e-06
0.00983771
-1.76846e-05
0.00984225
-3.61242e-05
0.0098501
-5.03027e-05
0.00986041
-5.88144e-05
0.00987253
-6.68547e-05
0.00988596
-7.25646e-05
0.00990025
-7.66193e-05
0.00991505
-7.62931e-05
0.00993017
-7.81722e-05
0.00994547
-7.92791e-05
0.00996083
-8.00596e-05
0.00997613
-7.8178e-05
0.0099913
-7.81829e-05
0.0100063
-7.77241e-05
0.010021
-7.68786e-05
0.0100353
-7.24818e-05
0.0100493
-7.11176e-05
0.0100628
-6.96704e-05
0.010076
-6.83264e-05
0.0100888
-6.44282e-05
0.0101011
-6.27209e-05
0.010113
-6.0768e-05
0.0101243
-5.85136e-05
0.010135
-5.25368e-05
0.0101451
-4.99732e-05
0.0101547
-4.76158e-05
0.0101637
-4.55842e-05
0.0101721
-4.09931e-05
0.01018
-3.89413e-05
0.0101875
-3.69251e-05
0.0101943
-3.4805e-05
0.0102005
-2.88981e-05
0.0102061
-2.68233e-05
0.0102113
-2.52281e-05
0.0102161
-2.41491e-05
0.0102205
-2.04402e-05
0.0102245
-1.95028e-05
0.0102282
-1.86857e-05
0.0102316
-1.77986e-05
0.0102345
-1.29251e-05
0.0102371
-1.20551e-05
0.0102395
-1.16905e-05
0.0102417
-1.18121e-05
0.0102437
-9.18199e-06
0.0102456
-9.25074e-06
0.0102474
-9.32642e-06
0.010249
-9.27073e-06
0.0102503
-5.25086e-06
0.0102514
-5.17177e-06
0.0102525
-5.5422e-06
0.0102535
-6.30435e-06
0.0102545
-4.23986e-06
0.0102554
-4.76593e-06
0.0102563
-5.20688e-06
0.0102571
-5.4576e-06
0.0102577
-1.86213e-06
0.0102582
-2.12487e-06
0.0102586
-2.76613e-06
0.0102591
-3.72383e-06
0.0102596
-2.00541e-06
0.0102601
-2.77706e-06
0.0102606
-3.40235e-06
0.010261
-3.7952e-06
0.0102613
-6.01037e-07
0.0102615
-1.02153e-06
0.0102617
-1.71195e-06
0.010262
-2.6141e-06
0.0102622
-1.0294e-06
0.0102625
-1.84172e-06
0.0102627
-2.48904e-06
0.010263
-2.91836e-06
0.0102631
-8.68583e-08
0.0102632
-5.89556e-07
0.0102633
-1.25727e-06
0.0102635
-2.08809e-06
0.0102636
-7.15302e-07
0.0102637
-1.45936e-06
0.0102639
-2.02973e-06
0.0102641
-2.4575e-06
0.0102641
-1.92838e-07
0.0102642
-7.08726e-07
0.0102643
-1.27769e-06
0.0102644
-1.98864e-06
0.0102645
-9.16542e-07
0.0102646
-1.51492e-06
0.0102647
-1.93543e-06
0.0102648
-2.32009e-06
0.0102649
-8.2735e-07
0.010265
-1.20064e-06
0.0102651
-1.53172e-06
0.0102651
-1.99825e-06
0.0102652
-1.44865e-06
0.0102654
-1.76272e-06
0.0102655
-1.93185e-06
0.0102656
-2.19025e-06
0.0102657
-1.96257e-06
0.0102658
-1.98576e-06
0.0102659
-1.93517e-06
0.010266
-1.89218e-06
0.0102661
-2.22416e-06
0.0102662
-1.60803e-06
0.0102664
-1.56475e-06
-1.29943e-06
0.0170156
0.008442
0.0165446
0.00408784
0.0159995
0.00292703
0.0155415
0.00203599
0.0151887
0.00144646
0.0148744
0.00116365
0.0144672
0.00144556
0.0139175
0.00206838
0.0133503
0.00224463
0.0128942
0.00183933
0.0125695
0.00131343
0.012346
0.000898797
0.0121921
0.000613229
0.0120854
0.000417765
0.0120117
0.000282844
0.0119616
0.000183557
0.011929
0.000110395
0.0119093
5.52514e-05
0.0118995
1.67211e-05
0.0118971
-1.52514e-05
0.0119004
-3.9377e-05
0.011908
-5.79302e-05
0.0119188
-6.95382e-05
0.011932
-8.00416e-05
0.0119469
-8.75047e-05
0.011963
-9.28243e-05
0.0119799
-9.30785e-05
0.0119973
-9.55167e-05
0.012015
-9.69411e-05
0.0120328
-9.79419e-05
0.0120507
-9.59439e-05
0.0120684
-9.5932e-05
0.012086
-9.53356e-05
0.0121034
-9.42812e-05
0.0121203
-8.92882e-05
0.0121368
-8.7569e-05
0.0121529
-8.57491e-05
0.0121686
-8.40835e-05
0.0121838
-7.96006e-05
0.0121986
-7.74875e-05
0.0122129
-7.50703e-05
0.0122266
-7.23009e-05
0.0122395
-6.54017e-05
0.0122518
-6.22e-05
0.0122634
-5.92344e-05
0.0122745
-5.66771e-05
0.0122848
-5.12928e-05
0.0122946
-4.86725e-05
0.0123037
-4.60807e-05
0.0123122
-4.3373e-05
0.0123199
-3.64801e-05
0.0123268
-3.37748e-05
0.0123333
-3.16488e-05
0.0123392
-3.01767e-05
0.0123447
-2.58248e-05
0.0123497
-2.45164e-05
0.0123543
-2.3355e-05
0.0123585
-2.21328e-05
0.0123622
-1.65156e-05
0.0123655
-1.52833e-05
0.0123685
-1.467e-05
0.0123713
-1.46812e-05
0.0123738
-1.16715e-05
0.0123761
-1.16168e-05
0.0123784
-1.15709e-05
0.0123804
-1.13889e-05
0.012382
-6.83312e-06
0.0123834
-6.5927e-06
0.0123848
-6.90335e-06
0.0123861
-7.72172e-06
0.0123873
-5.42264e-06
0.0123885
-5.94745e-06
0.0123896
-6.367e-06
0.0123906
-6.57517e-06
0.0123913
-2.54009e-06
0.0123919
-2.73209e-06
0.0123925
-3.38913e-06
0.0123932
-4.45937e-06
0.0123938
-2.57868e-06
0.0123944
-3.41604e-06
0.012395
-4.07464e-06
0.0123955
-4.46793e-06
0.0123959
-9.05165e-07
0.0123961
-1.30276e-06
0.0123964
-2.03356e-06
0.0123967
-3.04574e-06
0.012397
-1.31747e-06
0.0123974
-2.21315e-06
0.0123977
-2.90979e-06
0.012398
-3.35672e-06
0.0123982
-2.14037e-07
0.0123983
-7.25103e-07
0.0123984
-1.44219e-06
0.0123986
-2.37706e-06
0.0123988
-8.83529e-07
0.012399
-1.70627e-06
0.0123992
-2.32015e-06
0.0123994
-2.77383e-06
0.0123995
-2.68329e-07
0.0123995
-8.1172e-07
0.0123996
-1.42609e-06
0.0123998
-2.22783e-06
0.0123999
-1.06461e-06
0.0124
-1.72656e-06
0.0124002
-2.17767e-06
0.0124003
-2.59444e-06
0.0124004
-9.45426e-07
0.0124005
-1.34206e-06
0.0124006
-1.69803e-06
0.0124007
-2.225e-06
0.0124008
-1.62691e-06
0.0124009
-1.97466e-06
0.0124011
-2.1657e-06
0.0124012
-2.46187e-06
0.0124014
-2.18642e-06
0.0124015
-2.20721e-06
0.0124016
-2.17433e-06
0.0124017
-2.12816e-06
0.0124019
-2.47154e-06
0.0124019
-1.75627e-06
0.0124022
-2.32965e-06
-2.34813e-06
0.020418
0.00864114
0.0200449
0.00446127
0.0195154
0.0034571
0.0189997
0.00255208
0.0185694
0.00187716
0.0181716
0.00156172
0.0176626
0.00195493
0.0169856
0.00274551
0.0162831
0.00294728
0.0157087
0.00241372
0.0152933
0.00172893
0.0150041
0.00118812
0.014803
0.000814446
0.0146623
0.000558407
0.014564
0.000381275
0.0144961
0.000251496
0.0144505
0.000155967
0.0144217
8.4025e-05
0.0144055
3.30073e-05
0.014399
-8.66986e-06
0.0143998
-4.01631e-05
0.0144063
-6.44061e-05
0.0144169
-8.01598e-05
0.0144308
-9.39177e-05
0.0144471
-0.000103736
0.014465
-0.000110785
0.014484
-0.000112014
0.0145038
-0.000115269
0.0145241
-0.000117195
0.0145446
-0.000118562
0.0145653
-0.00011658
0.014586
-0.000116624
0.0146066
-0.00011593
0.014627
-0.000114691
0.0146469
-0.000109151
0.0146665
-0.000107062
0.0146856
-0.000104842
0.0147043
-0.000102838
0.0147225
-9.77714e-05
0.0147403
-9.52181e-05