/*--------------------------------*- C++ -*----------------------------------*\
  =========                 |
  \\      /  F ield         | OpenFOAM: The Open Source CFD Toolbox
   \\    /   O peration     | Website:  https://openfoam.org
    \\  /    A nd           | Version:  8
     \\/     M anipulation  |
\*---------------------------------------------------------------------------*/
FoamFile
{
    version     2.0;
    format      ascii;
    class       volVectorField;
    location    "250";
    object      U;
}
// * * * * * * * * * * * * * * * * * * * * * * * * * * * * * * * * * * * * * //

dimensions      [0 1 -1 0 0 0 0];

internalField   nonuniform List<vector> 
7320
(
(22.6427 -0.848126 0)
(20.2988 -0.0156817 0)
(19.4724 0.000200899 0)
(18.9925 0.000311432 0)
(18.6565 0.000223909 0)
(18.4275 0.000124655 0)
(18.3452 1.95972e-05 0)
(18.3307 -1.53118e-05 0)
(18.2294 3.91383e-05 0)
(18.0541 9.63121e-05 0)
(17.8818 0.000113442 0)
(17.7471 9.21774e-05 0)
(17.651 6.64415e-05 0)
(17.5861 4.41285e-05 0)
(17.5445 3.23169e-05 0)
(17.521 1.77595e-05 0)
(17.511 6.09024e-06 0)
(17.5118 -3.59105e-06 0)
(17.5207 -2.05725e-06 0)
(17.5363 -9.00174e-06 0)
(17.5572 -1.48503e-05 0)
(17.5823 -2.00997e-05 0)
(17.6106 -1.78652e-05 0)
(17.6418 -2.21121e-05 0)
(17.6751 -2.57731e-05 0)
(17.7103 -2.92413e-05 0)
(17.7468 -2.2668e-05 0)
(17.7846 -2.57413e-05 0)
(17.8234 -2.84728e-05 0)
(17.8629 -3.12666e-05 0)
(17.9029 -2.69228e-05 0)
(17.9435 -2.9477e-05 0)
(17.9842 -3.16331e-05 0)
(18.025 -3.38101e-05 0)
(18.0654 -2.58674e-05 0)
(18.1055 -2.78042e-05 0)
(18.145 -2.93886e-05 0)
(18.1839 -3.11214e-05 0)
(18.2217 -2.54082e-05 0)
(18.2585 -2.6916e-05 0)
(18.294 -2.80008e-05 0)
(18.3282 -2.91952e-05 0)
(18.3605 -1.96615e-05 0)
(18.3912 -2.07522e-05 0)
(18.4201 -2.15746e-05 0)
(18.4475 -2.27405e-05 0)
(18.4729 -1.62077e-05 0)
(18.4967 -1.74316e-05 0)
(18.5188 -1.83527e-05 0)
(18.5394 -1.95753e-05 0)
(18.558 -9.55657e-06 0)
(18.5752 -1.0916e-05 0)
(18.5909 -1.20964e-05 0)
(18.6054 -1.3763e-05 0)
(18.6186 -7.31799e-06 0)
(18.6307 -9.13422e-06 0)
(18.6418 -1.06474e-05 0)
(18.6521 -1.25061e-05 0)
(18.6611 -2.56621e-06 0)
(18.6694 -4.52814e-06 0)
(18.6768 -6.28862e-06 0)
(18.6837 -8.53869e-06 0)
(18.6899 -2.54866e-06 0)
(18.6957 -4.85687e-06 0)
(18.7009 -6.80909e-06 0)
(18.7058 -9.07757e-06 0)
(18.7099 3.52713e-07 0)
(18.7137 -1.94216e-06 0)
(18.7171 -3.99671e-06 0)
(18.7203 -6.50362e-06 0)
(18.7232 -8.08083e-07 0)
(18.7259 -3.28331e-06 0)
(18.7283 -5.36765e-06 0)
(18.7307 -7.73528e-06 0)
(18.7324 1.32555e-06 0)
(18.734 -1.02743e-06 0)
(18.7355 -3.1234e-06 0)
(18.737 -5.6375e-06 0)
(18.7382 -3.33674e-07 0)
(18.7394 -2.78964e-06 0)
(18.7406 -4.84601e-06 0)
(18.7417 -7.15449e-06 0)
(18.7424 1.26286e-06 0)
(18.743 -1.00543e-06 0)
(18.7436 -2.9989e-06 0)
(18.7443 -5.37209e-06 0)
(18.7448 -3.95421e-07 0)
(18.7453 -2.70487e-06 0)
(18.7458 -4.61869e-06 0)
(18.7463 -6.76777e-06 0)
(18.7466 9.8656e-07 0)
(18.7468 -1.11691e-06 0)
(18.747 -2.93855e-06 0)
(18.7473 -5.10958e-06 0)
(18.7474 -7.50505e-07 0)
(18.7477 -2.84176e-06 0)
(18.7479 -4.54629e-06 0)
(18.7482 -6.46656e-06 0)
(18.7482 -1.01773e-07 0)
(18.7482 -1.94861e-06 0)
(18.7483 -3.49182e-06 0)
(18.7484 -5.33136e-06 0)
(18.7485 -1.87142e-06 0)
(18.7486 -3.57326e-06 0)
(18.7487 -4.89091e-06 0)
(18.7489 -6.38053e-06 0)
(18.7489 -2.06925e-06 0)
(18.7489 -3.38725e-06 0)
(18.7489 -4.37597e-06 0)
(18.749 -5.56384e-06 0)
(18.749 -3.72301e-06 0)
(18.7491 -4.65537e-06 0)
(18.7491 -5.19481e-06 0)
(18.7492 -5.8472e-06 0)
(18.7493 -5.11145e-06 0)
(18.7494 -5.41019e-06 0)
(18.7494 -5.28073e-06 0)
(18.7494 -5.26208e-06 0)
(18.7495 -5.9647e-06 0)
(18.7496 -5.49559e-06 0)
(18.7493 -1.49733e-06 0)
(18.75 -1.0011e-06 0)
(26.6035 0.167148 0)
(23.9488 0.0074375 0)
(22.9101 0.00133555 0)
(22.323 0.000772133 0)
(21.9209 0.000535657 0)
(21.6508 0.000297825 0)
(21.5372 9.31423e-05 0)
(21.4432 9.88895e-05 0)
(21.1888 0.000264611 0)
(20.8536 0.000353813 0)
(20.5613 0.000330029 0)
(20.3452 0.000249253 0)
(20.1945 0.000174389 0)
(20.0924 0.000115274 0)
(20.0256 7.82719e-05 0)
(19.985 4.29007e-05 0)
(19.9641 1.54049e-05 0)
(19.9582 -6.60167e-06 0)
(19.9638 -1.14613e-05 0)
(19.9783 -2.63229e-05 0)
(19.9996 -3.8342e-05 0)
(20.0263 -4.86008e-05 0)
(20.0569 -4.80797e-05 0)
(20.0907 -5.58188e-05 0)
(20.1269 -6.22151e-05 0)
(20.1649 -6.79068e-05 0)
(20.2039 -5.98228e-05 0)
(20.2439 -6.46638e-05 0)
(20.2845 -6.87578e-05 0)
(20.3256 -7.27421e-05 0)
(20.3667 -6.70093e-05 0)
(20.408 -7.05202e-05 0)
(20.449 -7.32878e-05 0)
(20.4898 -7.58275e-05 0)
(20.5298 -6.4621e-05 0)
(20.569 -6.676e-05 0)
(20.6074 -6.82531e-05 0)
(20.6449 -6.97927e-05 0)
(20.6811 -6.12233e-05 0)
(20.7162 -6.23546e-05 0)
(20.7498 -6.27648e-05 0)
(20.7821 -6.30854e-05 0)
(20.8125 -4.88925e-05 0)
(20.8411 -4.91329e-05 0)
(20.8679 -4.89742e-05 0)
(20.8932 -4.92378e-05 0)
(20.9167 -3.91688e-05 0)
(20.9387 -3.96492e-05 0)
(20.959 -3.97202e-05 0)
(20.9781 -4.0072e-05 0)
(20.9952 -2.53329e-05 0)
(21.0108 -2.61448e-05 0)
(21.0249 -2.67905e-05 0)
(21.0382 -2.81221e-05 0)
(21.0501 -1.8617e-05 0)
(21.0612 -2.03719e-05 0)
(21.0712 -2.17459e-05 0)
(21.0807 -2.34617e-05 0)
(21.0888 -9.33723e-06 0)
(21.0961 -1.14586e-05 0)
(21.1026 -1.3377e-05 0)
(21.1089 -1.59636e-05 0)
(21.1144 -7.51054e-06 0)
(21.1196 -1.03251e-05 0)
(21.1243 -1.26477e-05 0)
(21.1288 -1.525e-05 0)
(21.1325 -2.13792e-06 0)
(21.1357 -5.01017e-06 0)
(21.1386 -7.60581e-06 0)
(21.1415 -1.07896e-05 0)
(21.1441 -2.95404e-06 0)
(21.1465 -6.18564e-06 0)
(21.1488 -8.85158e-06 0)
(21.151 -1.1737e-05 0)
(21.1526 7.2628e-07 0)
(21.1539 -2.36979e-06 0)
(21.1551 -5.14618e-06 0)
(21.1564 -8.44771e-06 0)
(21.1575 -1.24713e-06 0)
(21.1587 -4.56107e-06 0)
(21.1598 -7.28107e-06 0)
(21.1609 -1.01735e-05 0)
(21.1616 1.33913e-06 0)
(21.1621 -1.71566e-06 0)
(21.1626 -4.4043e-06 0)
(21.1632 -7.5466e-06 0)
(21.1637 -8.18986e-07 0)
(21.1642 -3.98133e-06 0)
(21.1647 -6.55168e-06 0)
(21.1654 -9.28185e-06 0)
(21.1656 1.28494e-06 0)
(21.1658 -1.59157e-06 0)
(21.1659 -4.07147e-06 0)
(21.1663 -6.96177e-06 0)
(21.1665 -1.07854e-06 0)
(21.1667 -3.95372e-06 0)
(21.167 -6.25056e-06 0)
(21.1674 -8.71502e-06 0)
(21.1675 -5.34613e-08 0)
(21.1675 -2.59917e-06 0)
(21.1676 -4.70672e-06 0)
(21.1678 -7.16555e-06 0)
(21.1679 -2.49505e-06 0)
(21.1681 -4.8372e-06 0)
(21.1682 -6.61924e-06 0)
(21.1685 -8.55385e-06 0)
(21.1686 -2.67106e-06 0)
(21.1686 -4.48856e-06 0)
(21.1687 -5.85299e-06 0)
(21.1688 -7.44947e-06 0)
(21.1689 -4.94257e-06 0)
(21.1691 -6.22379e-06 0)
(21.1692 -7.01965e-06 0)
(21.1694 -7.89935e-06 0)
(21.1696 -6.75961e-06 0)
(21.1697 -7.15069e-06 0)
(21.1698 -7.1344e-06 0)
(21.17 -7.10737e-06 0)
(21.1701 -7.95472e-06 0)
(21.1703 -7.18375e-06 0)
(21.17 -4.9362e-06 0)
(21.171 -4.38568e-06 0)
(28.9495 0.0984904 0)
(26.1301 0.00640033 0)
(24.9207 0.00235497 0)
(24.2455 0.00143607 0)
(23.7921 0.000983835 0)
(23.4893 0.000556721 0)
(23.3312 0.000268463 0)
(23.1188 0.000414979 0)
(22.6848 0.000763772 0)
(22.197 0.000853888 0)
(21.8051 0.000720784 0)
(21.5268 0.000524324 0)
(21.3359 0.000361904 0)
(21.2069 0.000239981 0)
(21.1218 0.000159651 0)
(21.0687 9.0461e-05 0)
(21.0394 3.75718e-05 0)
(21.0281 -3.86982e-06 0)
(21.0302 -2.04362e-05 0)
(21.0428 -4.70302e-05 0)
(21.0632 -6.80432e-05 0)
(21.0897 -8.53521e-05 0)
(21.1205 -8.79581e-05 0)
(21.1548 -0.000100031 0)
(21.1914 -0.000109657 0)
(21.2299 -0.000117768 0)
(21.2692 -0.000108162 0)
(21.3092 -0.000114491 0)
(21.3496 -0.000119651 0)
(21.3902 -0.000124498 0)
(21.4307 -0.000116998 0)
(21.471 -0.000120972 0)
(21.5108 -0.000123879 0)
(21.5503 -0.000126264 0)
(21.5886 -0.000111255 0)
(21.626 -0.000112946 0)
(21.6623 -0.000113842 0)
(21.6978 -0.000114752 0)
(21.7319 -0.000102903 0)
(21.7648 -0.000103165 0)
(21.7963 -0.000102497 0)
(21.8265 -0.000101516 0)
(21.8547 -8.22447e-05 0)
(21.8812 -8.11081e-05 0)
(21.906 -7.96465e-05 0)
(21.9294 -7.87722e-05 0)
(21.9511 -6.49461e-05 0)
(21.9714 -6.43793e-05 0)
(21.9902 -6.34078e-05 0)
(22.0078 -6.26542e-05 0)
(22.0235 -4.2961e-05 0)
(22.0378 -4.28533e-05 0)
(22.0507 -4.2819e-05 0)
(22.0629 -4.37491e-05 0)
(22.0738 -3.11227e-05 0)
(22.0839 -3.26439e-05 0)
(22.0931 -3.38217e-05 0)
(22.1018 -3.52836e-05 0)
(22.1093 -1.68616e-05 0)
(22.1158 -1.88673e-05 0)
(22.1217 -2.09095e-05 0)
(22.1273 -2.38689e-05 0)
(22.1324 -1.29849e-05 0)
(22.1371 -1.62057e-05 0)
(22.1414 -1.89011e-05 0)
(22.1456 -2.17777e-05 0)
(22.1489 -4.93243e-06 0)
(22.1518 -8.17371e-06 0)
(22.1543 -1.13405e-05 0)
(22.1569 -1.52872e-05 0)
(22.1593 -5.38175e-06 0)
(22.1615 -9.29694e-06 0)
(22.1636 -1.25591e-05 0)
(22.1657 -1.59084e-05 0)
(22.1671 -1.44692e-08 0)
(22.1682 -3.67853e-06 0)
(22.1692 -7.18105e-06 0)
(22.1705 -1.13598e-05 0)
(22.1715 -2.34803e-06 0)
(22.1726 -6.47796e-06 0)
(22.1736 -9.88996e-06 0)
(22.1748 -1.33199e-05 0)
(22.1754 1.29648e-06 0)
(22.1759 -2.39661e-06 0)
(22.1762 -5.82063e-06 0)
(22.1769 -9.7954e-06 0)
(22.1773 -1.38963e-06 0)
(22.1778 -5.37121e-06 0)
(22.1784 -8.62356e-06 0)
(22.1791 -1.18923e-05 0)
(22.1793 1.47298e-06 0)
(22.1794 -2.05543e-06 0)
(22.1795 -5.22685e-06 0)
(22.1799 -8.88409e-06 0)
(22.1801 -1.54087e-06 0)
(22.1804 -5.16393e-06 0)
(22.1807 -8.06696e-06 0)
(22.1812 -1.10403e-05 0)
(22.1813 -1.13403e-07 0)
(22.1813 -3.26712e-06 0)
(22.1814 -5.96105e-06 0)
(22.1816 -9.07449e-06 0)
(22.1818 -3.25412e-06 0)
(22.182 -6.20075e-06 0)
(22.1822 -8.44056e-06 0)
(22.1825 -1.08004e-05 0)
(22.1826 -3.40542e-06 0)
(22.1827 -5.65666e-06 0)
(22.1828 -7.37722e-06 0)
(22.183 -9.40238e-06 0)
(22.1831 -6.29631e-06 0)
(22.1833 -7.90036e-06 0)
(22.1835 -8.87558e-06 0)
(22.1837 -9.99106e-06 0)
(22.184 -8.61901e-06 0)
(22.1842 -9.07216e-06 0)
(22.1843 -8.99183e-06 0)
(22.1845 -8.94148e-06 0)
(22.1847 -1.0093e-05 0)
(22.185 -8.91344e-06 0)
(22.1847 -5.62765e-06 0)
(22.1859 -4.85005e-06 0)
(30.6446 0.0459741 0)
(27.8128 0.00833051 0)
(26.4554 0.00394467 0)
(25.6929 0.00239723 0)
(25.1883 0.00162404 0)
(24.8504 0.000955266 0)
(24.6322 0.000631638 0)
(24.2778 0.00105184 0)
(23.6667 0.00163194 0)
(23.0499 0.00164766 0)
(22.5807 0.00131099 0)
(22.2559 0.000931518 0)
(22.0353 0.000637731 0)
(21.8865 0.000424015 0)
(21.7877 0.000279933 0)
(21.7252 0.000162769 0)
(21.6893 7.41946e-05 0)
(21.6734 5.71186e-06 0)
(21.6725 -2.89881e-05 0)
(21.6831 -7.1436e-05 0)
(21.7022 -0.000104434 0)
(21.728 -0.000130942 0)
(21.7584 -0.000138717 0)
(21.7924 -0.000156057 0)
(21.8289 -0.000169443 0)
(21.8673 -0.000180174 0)
(21.9064 -0.000169808 0)
(21.9461 -0.000177395 0)
(21.986 -0.000183319 0)
(22.0261 -0.000188659 0)
(22.0658 -0.000179525 0)
(22.1052 -0.00018346 0)
(22.1441 -0.000185998 0)
(22.1825 -0.000187635 0)
(22.2197 -0.000168974 0)
(22.2558 -0.00016954 0)
(22.2908 -0.000169248 0)
(22.3249 -0.000168951 0)
(22.3576 -0.000153805 0)
(22.3891 -0.000152573 0)
(22.4192 -0.000150249 0)
(22.4482 -0.000147307 0)
(22.4751 -0.000123071 0)
(22.5004 -0.000119831 0)
(22.5239 -0.000116478 0)
(22.5463 -0.000113906 0)
(22.567 -9.63373e-05 0)
(22.5863 -9.41322e-05 0)
(22.6042 -9.16116e-05 0)
(22.621 -8.91684e-05 0)
(22.636 -6.47425e-05 0)
(22.6495 -6.30842e-05 0)
(22.6618 -6.19181e-05 0)
(22.6733 -6.2035e-05 0)
(22.6837 -4.6475e-05 0)
(22.6933 -4.73244e-05 0)
(22.702 -4.79669e-05 0)
(22.7103 -4.87544e-05 0)
(22.7174 -2.64413e-05 0)
(22.7236 -2.78561e-05 0)
(22.729 -2.97355e-05 0)
(22.7344 -3.28143e-05 0)
(22.7392 -1.98297e-05 0)
(22.7436 -2.3146e-05 0)
(22.7477 -2.59844e-05 0)
(22.7517 -2.88168e-05 0)
(22.7549 -8.73411e-06 0)
(22.7575 -1.19798e-05 0)
(22.7598 -1.55353e-05 0)
(22.7624 -2.00807e-05 0)
(22.7646 -8.50026e-06 0)
(22.7667 -1.2852e-05 0)
(22.7687 -1.65286e-05 0)
(22.7708 -2.00647e-05 0)
(22.7721 -1.26281e-06 0)
(22.7731 -5.19024e-06 0)
(22.774 -9.28243e-06 0)
(22.7752 -1.42073e-05 0)
(22.7762 -3.79139e-06 0)
(22.7773 -8.54393e-06 0)
(22.7783 -1.25048e-05 0)
(22.7795 -1.62288e-05 0)
(22.7801 9.77138e-07 0)
(22.7805 -3.09543e-06 0)
(22.7808 -7.13799e-06 0)
(22.7814 -1.18144e-05 0)
(22.7819 -2.11465e-06 0)
(22.7824 -6.75059e-06 0)
(22.7829 -1.05635e-05 0)
(22.7837 -1.4155e-05 0)
(22.7839 1.50994e-06 0)
(22.784 -2.45461e-06 0)
(22.7841 -6.21596e-06 0)
(22.7845 -1.05179e-05 0)
(22.7847 -2.05411e-06 0)
(22.785 -6.27547e-06 0)
(22.7854 -9.67207e-06 0)
(22.7858 -1.29692e-05 0)
(22.786 -2.02386e-07 0)
(22.786 -3.79232e-06 0)
(22.7861 -6.98474e-06 0)
(22.7863 -1.06486e-05 0)
(22.7865 -3.95234e-06 0)
(22.7867 -7.37841e-06 0)
(22.787 -9.984e-06 0)
(22.7873 -1.26374e-05 0)
(22.7875 -4.02597e-06 0)
(22.7876 -6.5891e-06 0)
(22.7877 -8.60509e-06 0)
(22.7879 -1.0993e-05 0)
(22.7881 -7.43368e-06 0)
(22.7883 -9.28861e-06 0)
(22.7885 -1.04202e-05 0)
(22.7887 -1.17385e-05 0)
(22.789 -1.01557e-05 0)
(22.7893 -1.06313e-05 0)
(22.7894 -1.05336e-05 0)
(22.7897 -1.04599e-05 0)
(22.7898 -1.18469e-05 0)
(22.7902 -1.02036e-05 0)
(22.7899 -7.17692e-06 0)
(22.7912 -6.46216e-06 0)
(31.934 0.047013 0)
(29.2279 0.0125243 0)
(27.7537 0.00608671 0)
(26.905 0.00367828 0)
(26.3472 0.00247357 0)
(25.9698 0.00153153 0)
(25.6806 0.00127082 0)
(25.1813 0.00211499 0)
(24.4149 0.00293771 0)
(23.6942 0.0027694 0)
(23.164 0.00211952 0)
(22.8021 0.00148265 0)
(22.5575 0.00100999 0)
(22.3924 0.000673256 0)
(22.2823 0.000443782 0)
(22.2117 0.000263448 0)
(22.1699 0.000128146 0)
(22.1498 2.44371e-05 0)
(22.1459 -3.48839e-05 0)
(22.1542 -9.76883e-05 0)
(22.1718 -0.000145959 0)
(22.1964 -0.000184084 0)
(22.2261 -0.000199004 0)
(22.2595 -0.00022275 0)
(22.2955 -0.000240586 0)
(22.3334 -0.000254302 0)
(22.3721 -0.000243683 0)
(22.4114 -0.000252447 0)
(22.4508 -0.000258941 0)
(22.4903 -0.00026454 0)
(22.5295 -0.000253743 0)
(22.5683 -0.000257275 0)
(22.6065 -0.000259044 0)
(22.6441 -0.000259486 0)
(22.6806 -0.000237059 0)
(22.7159 -0.000235975 0)
(22.75 -0.000234023 0)
(22.7833 -0.000232095 0)
(22.8152 -0.000213481 0)
(22.8459 -0.000210288 0)
(22.8753 -0.00020585 0)
(22.9035 -0.000200443 0)
(22.9298 -0.000171072 0)
(22.9544 -0.000165152 0)
(22.9774 -0.000159421 0)
(22.9992 -0.000154724 0)
(23.0194 -0.000133232 0)
(23.0383 -0.000128926 0)
(23.0558 -0.000124433 0)
(23.0722 -0.000119836 0)
(23.0869 -9.0561e-05 0)
(23.1001 -8.68403e-05 0)
(23.1121 -8.41597e-05 0)
(23.1233 -8.31598e-05 0)
(23.1335 -6.46246e-05 0)
(23.1428 -6.44775e-05 0)
(23.1514 -6.4314e-05 0)
(23.1595 -6.41189e-05 0)
(23.1665 -3.7962e-05 0)
(23.1724 -3.84271e-05 0)
(23.1778 -3.99238e-05 0)
(23.183 -4.29763e-05 0)
(23.1877 -2.79929e-05 0)
(23.192 -3.12097e-05 0)
(23.1959 -3.40329e-05 0)
(23.1999 -3.66172e-05 0)
(23.203 -1.34428e-05 0)
(23.2056 -1.64448e-05 0)
(23.2078 -2.02737e-05 0)
(23.2103 -2.53611e-05 0)
(23.2125 -1.22765e-05 0)
(23.2145 -1.69322e-05 0)
(23.2165 -2.09119e-05 0)
(23.2185 -2.44692e-05 0)
(23.2199 -2.94259e-06 0)
(23.2208 -6.94063e-06 0)
(23.2217 -1.15494e-05 0)
(23.2229 -1.71924e-05 0)
(23.2239 -5.56694e-06 0)
(23.2249 -1.08563e-05 0)
(23.2259 -1.52891e-05 0)
(23.2271 -1.91691e-05 0)
(23.2277 4.29385e-07 0)
(23.2281 -3.86775e-06 0)
(23.2284 -8.47038e-06 0)
(23.229 -1.38143e-05 0)
(23.2295 -3.00502e-06 0)
(23.23 -8.22895e-06 0)
(23.2306 -1.25404e-05 0)
(23.2313 -1.63352e-05 0)
(23.2316 1.42356e-06 0)
(23.2317 -2.85532e-06 0)
(23.2318 -7.1575e-06 0)
(23.2322 -1.207e-05 0)
(23.2324 -2.65013e-06 0)
(23.2327 -7.40863e-06 0)
(23.2331 -1.12393e-05 0)
(23.2336 -1.47601e-05 0)
(23.2337 -3.38621e-07 0)
(23.2337 -4.27331e-06 0)
(23.2338 -7.92082e-06 0)
(23.2341 -1.2105e-05 0)
(23.2343 -4.66962e-06 0)
(23.2345 -8.52166e-06 0)
(23.2348 -1.14389e-05 0)
(23.2352 -1.43177e-05 0)
(23.2353 -4.63222e-06 0)
(23.2354 -7.44195e-06 0)
(23.2355 -9.71184e-06 0)
(23.2358 -1.24429e-05 0)
(23.236 -8.51418e-06 0)
(23.2362 -1.05864e-05 0)
(23.2364 -1.18359e-05 0)
(23.2367 -1.33468e-05 0)
(23.237 -1.1613e-05 0)
(23.2372 -1.20832e-05 0)
(23.2374 -1.19349e-05 0)
(23.2377 -1.18309e-05 0)
(23.2379 -1.34747e-05 0)
(23.2383 -1.12881e-05 0)
(23.2379 -8.32324e-06 0)
(23.2393 -7.73801e-06 0)
(32.9264 0.0603966 0)
(30.4691 0.0174666 0)
(28.9189 0.00883746 0)
(27.9884 0.00535866 0)
(27.3749 0.00359233 0)
(26.953 0.00235073 0)
(26.5868 0.00228155 0)
(25.9518 0.00370796 0)
(25.0545 0.00475993 0)
(24.2479 0.00427321 0)
(23.6658 0.00318364 0)
(23.2712 0.00220336 0)
(23.0049 0.00149654 0)
(22.8247 0.0010003 0)
(22.7038 0.000660343 0)
(22.6251 0.000399017 0)
(22.5774 0.000204028 0)
(22.5529 5.54363e-05 0)
(22.5456 -3.58264e-05 0)
(22.5514 -0.000124392 0)
(22.567 -0.000191926 0)
(22.5901 -0.000244662 0)
(22.6186 -0.000268962 0)
(22.6511 -0.000300637 0)
(22.6863 -0.000323915 0)
(22.7236 -0.000341246 0)
(22.7617 -0.000330798 0)
(22.8004 -0.000340842 0)
(22.8393 -0.00034786 0)
(22.8783 -0.000353622 0)
(22.917 -0.000341043 0)
(22.9552 -0.000343921 0)
(22.9929 -0.000344606 0)
(23.03 -0.000343494 0)
(23.0659 -0.000316961 0)
(23.1007 -0.000313777 0)
(23.1343 -0.000309742 0)
(23.167 -0.000305822 0)
(23.1985 -0.000283405 0)
(23.2288 -0.000277839 0)
(23.2578 -0.000270858 0)
(23.2857 -0.000262518 0)
(23.3118 -0.000227551 0)
(23.3361 -0.000218395 0)
(23.3589 -0.000209795 0)
(23.3805 -0.00020256 0)
(23.4006 -0.000176748 0)
(23.4193 -0.000169887 0)
(23.4367 -0.000162985 0)
(23.4531 -0.000155778 0)
(23.4677 -0.000121211 0)
(23.4809 -0.00011492 0)
(23.4928 -0.00011033 0)
(23.504 -0.000107924 0)
(23.5142 -8.61547e-05 0)
(23.5235 -8.47101e-05 0)
(23.532 -8.34783e-05 0)
(23.5401 -8.2024e-05 0)
(23.5471 -5.1761e-05 0)
(23.553 -5.09509e-05 0)
(23.5583 -5.18633e-05 0)
(23.5635 -5.47901e-05 0)
(23.5682 -3.77232e-05 0)
(23.5725 -4.06991e-05 0)
(23.5765 -4.3384e-05 0)
(23.5804 -4.55739e-05 0)
(23.5835 -1.91734e-05 0)
(23.5861 -2.17389e-05 0)
(23.5883 -2.57637e-05 0)
(23.5908 -3.14011e-05 0)
(23.593 -1.6816e-05 0)
(23.5951 -2.17101e-05 0)
(23.597 -2.59285e-05 0)
(23.599 -2.94084e-05 0)
(23.6004 -5.07667e-06 0)
(23.6014 -9.01464e-06 0)
(23.6022 -1.41115e-05 0)
(23.6034 -2.0514e-05 0)
(23.6045 -7.72094e-06 0)
(23.6055 -1.35312e-05 0)
(23.6065 -1.84095e-05 0)
(23.6077 -2.23757e-05 0)
(23.6084 -3.38325e-07 0)
(23.6087 -4.76741e-06 0)
(23.609 -9.91716e-06 0)
(23.6097 -1.59623e-05 0)
(23.6102 -4.08518e-06 0)
(23.6107 -9.89761e-06 0)
(23.6113 -1.46943e-05 0)
(23.612 -1.86382e-05 0)
(23.6123 1.23322e-06 0)
(23.6124 -3.2976e-06 0)
(23.6125 -8.13524e-06 0)
(23.6129 -1.36876e-05 0)
(23.6132 -3.35076e-06 0)
(23.6135 -8.64683e-06 0)
(23.6139 -1.28966e-05 0)
(23.6144 -1.65997e-05 0)
(23.6145 -5.21971e-07 0)
(23.6146 -4.76336e-06 0)
(23.6146 -8.86148e-06 0)
(23.6149 -1.35907e-05 0)
(23.6151 -5.45176e-06 0)
(23.6154 -9.72765e-06 0)
(23.6156 -1.29398e-05 0)
(23.616 -1.60225e-05 0)
(23.6162 -5.27085e-06 0)
(23.6163 -8.30149e-06 0)
(23.6164 -1.08157e-05 0)
(23.6167 -1.39066e-05 0)
(23.6169 -9.63028e-06 0)
(23.6171 -1.19159e-05 0)
(23.6173 -1.32803e-05 0)
(23.6176 -1.49954e-05 0)
(23.6179 -1.31048e-05 0)
(23.6182 -1.35529e-05 0)
(23.6184 -1.33653e-05 0)
(23.6187 -1.32265e-05 0)
(23.6189 -1.51282e-05 0)
(23.6193 -1.2314e-05 0)
(23.619 -9.97208e-06 0)
(23.6204 -9.67697e-06 0)
(33.6707 0.0695075 0)
(31.572 0.0227248 0)
(30.0001 0.0122806 0)
(28.9976 0.00754082 0)
(28.3272 0.00506328 0)
(27.8565 0.00349646 0)
(27.412 0.00376836 0)
(26.657 0.0059417 0)
(25.6509 0.00719511 0)
(24.7703 0.00623505 0)
(24.1402 0.00455897 0)
(23.7139 0.00313291 0)
(23.4258 0.00212506 0)
(23.23 0.00142483 0)
(23.0977 0.000943798 0)
(23.0106 0.000579637 0)
(22.9564 0.000309041 0)
(22.9268 0.000103679 0)
(22.9156 -2.84435e-05 0)
(22.9183 -0.000149503 0)
(22.9315 -0.000241328 0)
(22.9526 -0.00031249 0)
(22.9795 -0.000348971 0)
(23.0107 -0.000390613 0)
(23.0449 -0.000420728 0)
(23.0812 -0.000442619 0)
(23.1186 -0.000432908 0)
(23.1566 -0.000444531 0)
(23.1948 -0.000452178 0)
(23.2333 -0.000458134 0)
(23.2714 -0.000443674 0)
(23.3092 -0.000445729 0)
(23.3463 -0.000445076 0)
(23.383 -0.000442099 0)
(23.4185 -0.000411048 0)
(23.4529 -0.000405331 0)
(23.4863 -0.000398801 0)
(23.5187 -0.00039254 0)
(23.55 -0.000365907 0)
(23.5801 -0.00035755 0)
(23.609 -0.000347576 0)
(23.6368 -0.000335808 0)
(23.6628 -0.000294631 0)
(23.6871 -0.000281625 0)
(23.7099 -0.000269602 0)
(23.7317 -0.000259352 0)
(23.7519 -0.000228674 0)
(23.7707 -0.000218735 0)
(23.7882 -0.00020891 0)
(23.8048 -0.000198557 0)
(23.8196 -0.000158055 0)
(23.8329 -0.000148599 0)
(23.845 -0.000141622 0)
(23.8563 -0.000137457 0)
(23.8666 -0.000112048 0)
(23.8761 -0.000108953 0)
(23.8847 -0.000106336 0)
(23.8929 -0.000103303 0)
(23.9 -6.85016e-05 0)
(23.906 -6.60469e-05 0)
(23.9114 -6.61334e-05 0)
(23.9167 -6.88181e-05 0)
(23.9214 -4.94792e-05 0)
(23.9258 -5.20643e-05 0)
(23.9298 -5.44749e-05 0)
(23.9338 -5.61194e-05 0)
(23.937 -2.62258e-05 0)
(23.9396 -2.81522e-05 0)
(23.9419 -3.22882e-05 0)
(23.9444 -3.8496e-05 0)
(23.9466 -2.23374e-05 0)
(23.9488 -2.74182e-05 0)
(23.9507 -3.18176e-05 0)
(23.9528 -3.51337e-05 0)
(23.9542 -7.80266e-06 0)
(23.9552 -1.15544e-05 0)
(23.9561 -1.71164e-05 0)
(23.9573 -2.4343e-05 0)
(23.9584 -1.03622e-05 0)
(23.9594 -1.67008e-05 0)
(23.9605 -2.20134e-05 0)
(23.9617 -2.60156e-05 0)
(23.9624 -1.39391e-06 0)
(23.9628 -5.87295e-06 0)
(23.9631 -1.15675e-05 0)
(23.9638 -1.83728e-05 0)
(23.9643 -5.41461e-06 0)
(23.9648 -1.18403e-05 0)
(23.9654 -1.71266e-05 0)
(23.9662 -2.1186e-05 0)
(23.9665 9.04171e-07 0)
(23.9666 -3.82933e-06 0)
(23.9667 -9.20972e-06 0)
(23.9671 -1.54563e-05 0)
(23.9674 -4.19509e-06 0)
(23.9677 -1.00522e-05 0)
(23.9681 -1.47227e-05 0)
(23.9686 -1.85866e-05 0)
(23.9688 -7.81755e-07 0)
(23.9688 -5.30542e-06 0)
(23.9689 -9.86209e-06 0)
(23.9692 -1.5183e-05 0)
(23.9694 -6.34108e-06 0)
(23.9697 -1.10576e-05 0)
(23.9699 -1.45603e-05 0)
(23.9703 -1.78394e-05 0)
(23.9705 -5.98964e-06 0)
(23.9706 -9.22453e-06 0)
(23.9708 -1.19789e-05 0)
(23.971 -1.54574e-05 0)
(23.9712 -1.08456e-05 0)
(23.9715 -1.33478e-05 0)
(23.9717 -1.48209e-05 0)
(23.972 -1.67484e-05 0)
(23.9723 -1.47291e-05 0)
(23.9726 -1.51294e-05 0)
(23.9728 -1.4891e-05 0)
(23.9731 -1.46886e-05 0)
(23.9733 -1.69166e-05 0)
(23.9737 -1.33147e-05 0)
(23.9734 -1.17842e-05 0)
(23.9748 -1.11056e-05 0)
(34.1945 0.0755636 0)
(32.5408 0.0282576 0)
(31.0175 0.0164648 0)
(29.9621 0.0103345 0)
(29.2366 0.00698733 0)
(28.7143 0.00506869 0)
(28.1944 0.00584552 0)
(27.3382 0.0089391 0)
(26.2424 0.010362 0)
(25.2952 0.00875598 0)
(24.6181 0.00632214 0)
(24.1587 0.00432636 0)
(23.8471 0.00293479 0)
(23.6344 0.00197498 0)
(23.4895 0.00131453 0)
(23.3927 0.000820091 0)
(23.331 0.000453866 0)
(23.2956 0.000176742 0)
(23.2797 -7.47391e-06 0)
(23.2786 -0.000169599 0)
(23.2887 -0.000292161 0)
(23.3073 -0.000386696 0)
(23.3322 -0.000439005 0)
(23.3617 -0.000493354 0)
(23.3944 -0.000532229 0)
(23.4295 -0.000560062 0)
(23.4659 -0.000551932 0)
(23.5031 -0.000565696 0)
(23.5406 -0.000574259 0)
(23.5784 -0.000580604 0)
(23.6159 -0.000564251 0)
(23.6532 -0.000565416 0)
(23.6899 -0.000563228 0)
(23.7262 -0.00055814 0)
(23.7614 -0.000522143 0)
(23.7955 -0.000513491 0)
(23.8286 -0.000504047 0)
(23.8609 -0.000495109 0)
(23.8921 -0.000463811 0)
(23.9222 -0.000452241 0)
(23.9511 -0.000438788 0)
(23.979 -0.000423073 0)
(24.0052 -0.000374964 0)
(24.0298 -0.000357432 0)
(24.0528 -0.000341327 0)
(24.0748 -0.000327512 0)
(24.0953 -0.00029129 0)
(24.1145 -0.000277653 0)
(24.1323 -0.000264266 0)
(24.1492 -0.000250134 0)
(24.1644 -0.000202878 0)
(24.178 -0.000189546 0)
(24.1903 -0.000179565 0)
(24.202 -0.000173192 0)
(24.2126 -0.000143598 0)
(24.2223 -0.000138414 0)
(24.2311 -0.000133991 0)
(24.2396 -0.000128992 0)
(24.2468 -8.90857e-05 0)
(24.2531 -8.45445e-05 0)
(24.2586 -8.34751e-05 0)
(24.2641 -8.57574e-05 0)
(24.269 -6.38762e-05 0)
(24.2735 -6.58877e-05 0)
(24.2776 -6.7835e-05 0)
(24.2817 -6.87626e-05 0)
(24.285 -3.50217e-05 0)
(24.2877 -3.60774e-05 0)
(24.29 -4.01931e-05 0)
(24.2926 -4.69859e-05 0)
(24.2949 -2.91338e-05 0)
(24.2971 -3.43473e-05 0)
(24.2991 -3.88441e-05 0)
(24.3013 -4.1912e-05 0)
(24.3028 -1.1322e-05 0)
(24.3039 -1.47512e-05 0)
(24.3048 -2.07278e-05 0)
(24.306 -2.88528e-05 0)
(24.3071 -1.36328e-05 0)
(24.3082 -2.05171e-05 0)
(24.3093 -2.62408e-05 0)
(24.3105 -3.02413e-05 0)
(24.3113 -2.83739e-06 0)
(24.3117 -7.2836e-06 0)
(24.3121 -1.35025e-05 0)
(24.3127 -2.11419e-05 0)
(24.3133 -7.06328e-06 0)
(24.3138 -1.41405e-05 0)
(24.3144 -1.99136e-05 0)
(24.3152 -2.40713e-05 0)
(24.3156 3.88246e-07 0)
(24.3157 -4.50296e-06 0)
(24.3159 -1.04212e-05 0)
(24.3163 -1.74327e-05 0)
(24.3166 -5.21884e-06 0)
(24.3169 -1.16746e-05 0)
(24.3173 -1.67629e-05 0)
(24.3178 -2.07818e-05 0)
(24.318 -1.1436e-06 0)
(24.318 -5.93211e-06 0)
(24.3181 -1.09474e-05 0)
(24.3184 -1.6922e-05 0)
(24.3186 -7.36159e-06 0)
(24.3189 -1.25484e-05 0)
(24.3192 -1.63345e-05 0)
(24.3196 -1.98166e-05 0)
(24.3198 -6.8102e-06 0)
(24.3199 -1.02409e-05 0)
(24.32 -1.32264e-05 0)
(24.3203 -1.71328e-05 0)
(24.3205 -1.21834e-05 0)
(24.3207 -1.49164e-05 0)
(24.321 -1.64909e-05 0)
(24.3213 -1.8656e-05 0)
(24.3216 -1.6508e-05 0)
(24.3219 -1.68492e-05 0)
(24.3221 -1.65472e-05 0)
(24.3224 -1.62729e-05 0)
(24.3226 -1.88558e-05 0)
(24.323 -1.43607e-05 0)
(24.3227 -1.38067e-05 0)
(24.3241 -1.29257e-05 0)
(34.5333 0.0801763 0)
(33.3599 0.0338114 0)
(31.9717 0.021347 0)
(30.8958 0.0138384 0)
(30.1225 0.00948 0)
(29.5486 0.00718321 0)
(28.9595 0.00863694 0)
(28.0226 0.0128368 0)
(26.854 0.0144054 0)
(25.8453 0.0119671 0)
(25.1197 0.00857578 0)
(24.6244 0.00585874 0)
(24.2867 0.00397972 0)
(24.0546 0.00268985 0)
(23.8951 0.00180113 0)
(23.7871 0.00114138 0)
(23.7167 0.00065392 0)
(23.6742 0.000285833 0)
(23.6526 3.51328e-05 0)
(23.6469 -0.000179125 0)
(23.6532 -0.000340817 0)
(23.6687 -0.000465214 0)
(23.691 -0.000538175 0)
(23.7183 -0.000608933 0)
(23.7493 -0.000659245 0)
(23.7829 -0.000695002 0)
(23.8179 -0.000689715 0)
(23.854 -0.000706547 0)
(23.8906 -0.000716589 0)
(23.9276 -0.000723749 0)
(23.9645 -0.000705636 0)
(24.0012 -0.000705991 0)
(24.0374 -0.000702179 0)
(24.0733 -0.000694829 0)
(24.1082 -0.000653475 0)
(24.1421 -0.00064153 0)
(24.1751 -0.000628779 0)
(24.2073 -0.000616861 0)
(24.2385 -0.000580434 0)
(24.2687 -0.000565243 0)
(24.2978 -0.000547811 0)
(24.3259 -0.000527617 0)
(24.3524 -0.000471762 0)
(24.3773 -0.000448961 0)
(24.4008 -0.000428026 0)
(24.4232 -0.000410005 0)
(24.4442 -0.000367423 0)
(24.4639 -0.00034936 0)
(24.4822 -0.000331637 0)
(24.4996 -0.000312967 0)
(24.5152 -0.000257944 0)
(24.5293 -0.000239874 0)
(24.5421 -0.000226111 0)
(24.5542 -0.000216948 0)
(24.5652 -0.000182462 0)
(24.5752 -0.000174633 0)
(24.5844 -0.000167864 0)
(24.5932 -0.000160413 0)
(24.6007 -0.000114677 0)
(24.6073 -0.000107506 0)
(24.6131 -0.000104848 0)
(24.6187 -0.0001065 0)
(24.6238 -8.17074e-05 0)
(24.6285 -8.29126e-05 0)
(24.6328 -8.41503e-05 0)
(24.6371 -8.41533e-05 0)
(24.6405 -4.61106e-05 0)
(24.6434 -4.60174e-05 0)
(24.6459 -4.99309e-05 0)
(24.6485 -5.73052e-05 0)
(24.651 -3.75861e-05 0)
(24.6532 -4.28671e-05 0)
(24.6553 -4.73554e-05 0)
(24.6575 -5.00845e-05 0)
(24.6591 -1.59033e-05 0)
(24.6603 -1.88518e-05 0)
(24.6613 -2.51655e-05 0)
(24.6626 -3.42654e-05 0)
(24.6638 -1.77204e-05 0)
(24.6649 -2.51734e-05 0)
(24.666 -3.12794e-05 0)
(24.6673 -3.52482e-05 0)
(24.6681 -4.80716e-06 0)
(24.6686 -9.1277e-06 0)
(24.669 -1.58356e-05 0)
(24.6697 -2.43923e-05 0)
(24.6703 -9.12699e-06 0)
(24.6708 -1.69035e-05 0)
(24.6715 -2.31617e-05 0)
(24.6723 -2.74126e-05 0)
(24.6726 -3.85195e-07 0)
(24.6728 -5.38567e-06 0)
(24.673 -1.18292e-05 0)
(24.6734 -1.96892e-05 0)
(24.6737 -6.47285e-06 0)
(24.6741 -1.35761e-05 0)
(24.6744 -1.90826e-05 0)
(24.675 -2.32634e-05 0)
(24.6752 -1.6474e-06 0)
(24.6753 -6.68427e-06 0)
(24.6754 -1.21558e-05 0)
(24.6756 -1.88591e-05 0)
(24.6759 -8.54832e-06 0)
(24.6762 -1.4246e-05 0)
(24.6764 -1.8313e-05 0)
(24.6768 -2.20152e-05 0)
(24.677 -7.76666e-06 0)
(24.6772 -1.13873e-05 0)
(24.6773 -1.4597e-05 0)
(24.6775 -1.8979e-05 0)
(24.6778 -1.36803e-05 0)
(24.678 -1.66645e-05 0)
(24.6782 -1.83444e-05 0)
(24.6785 -2.0774e-05 0)
(24.6788 -1.84838e-05 0)
(24.6791 -1.8753e-05 0)
(24.6794 -1.83944e-05 0)
(24.6796 -1.80305e-05 0)
(24.6798 -2.09998e-05 0)
(24.6802 -1.54765e-05 0)
(24.68 -1.64468e-05 0)
(24.6813 -1.52739e-05 0)
(34.7383 0.0835514 0)
(34.0042 0.0389473 0)
(32.845 0.0267361 0)
(31.799 0.0181023 0)
(30.9943 0.0126593 0)
(30.3735 0.00996806 0)
(29.7249 0.0122739 0)
(28.7286 0.0177843 0)
(27.5032 0.0194978 0)
(26.4368 0.0160349 0)
(25.6603 0.0114552 0)
(25.1251 0.0078311 0)
(24.7574 0.00533362 0)
(24.503 0.00362337 0)
(24.3264 0.0024434 0)
(24.2051 0.00157309 0)
(24.1242 0.000931264 0)
(24.0732 0.000447325 0)
(24.0448 0.000111413 0)
(24.0335 -0.000169416 0)
(24.0351 -0.000381269 0)
(24.0467 -0.000544117 0)
(24.0658 -0.000644213 0)
(24.0904 -0.000736409 0)
(24.1191 -0.000801862 0)
(24.1507 -0.00084837 0)
(24.1842 -0.000847848 0)
(24.219 -0.0008692 0)
(24.2545 -0.000881674 0)
(24.2905 -0.000890407 0)
(24.3265 -0.000870925 0)
(24.3625 -0.000870765 0)
(24.3983 -0.000865388 0)
(24.4337 -0.000855773 0)
(24.4683 -0.000808763 0)
(24.502 -0.000793253 0)
(24.5349 -0.000776839 0)
(24.5671 -0.000761699 0)
(24.5983 -0.00071972 0)
(24.6287 -0.000700536 0)
(24.658 -0.000678618 0)
(24.6864 -0.00065342 0)
(24.7133 -0.000588981 0)
(24.7388 -0.000560111 0)
(24.7629 -0.00053348 0)
(24.7858 -0.000510519 0)
(24.8075 -0.00046064 0)
(24.8278 -0.000437288 0)
(24.8467 -0.000414279 0)
(24.8647 -0.000390156 0)
(24.881 -0.000326182 0)
(24.8957 -0.000302319 0)
(24.9091 -0.000283771 0)
(24.9217 -0.000271058 0)
(24.9332 -0.0002308 0)
(24.9438 -0.00021961 0)
(24.9534 -0.000209769 0)
(24.9625 -0.000199246 0)
(24.9705 -0.000146824 0)
(24.9774 -0.000136341 0)
(24.9836 -0.000131498 0)
(24.9895 -0.000132186 0)
(24.9949 -0.00010402 0)
(24.9998 -0.000104105 0)
(25.0043 -0.000104284 0)
(25.0087 -0.000103096 0)
(25.0124 -6.02386e-05 0)
(25.0155 -5.86494e-05 0)
(25.0181 -6.20841e-05 0)
(25.0209 -6.99935e-05 0)
(25.0235 -4.81986e-05 0)
(25.0259 -5.34532e-05 0)
(25.0281 -5.77708e-05 0)
(25.0304 -6.00525e-05 0)
(25.0321 -2.19243e-05 0)
(25.0334 -2.41968e-05 0)
(25.0345 -3.07077e-05 0)
(25.0358 -4.0843e-05 0)
(25.0371 -2.28757e-05 0)
(25.0383 -3.09128e-05 0)
(25.0394 -3.73386e-05 0)
(25.0408 -4.12462e-05 0)
(25.0416 -7.50621e-06 0)
(25.0422 -1.1587e-05 0)
(25.0427 -1.87026e-05 0)
(25.0434 -2.82561e-05 0)
(25.044 -1.17346e-05 0)
(25.0446 -2.02569e-05 0)
(25.0452 -2.69741e-05 0)
(25.046 -3.13202e-05 0)
(25.0465 -1.52683e-06 0)
(25.0467 -6.57517e-06 0)
(25.0469 -1.34967e-05 0)
(25.0473 -2.22907e-05 0)
(25.0476 -8.02333e-06 0)
(25.048 -1.58249e-05 0)
(25.0484 -2.17317e-05 0)
(25.0489 -2.60895e-05 0)