/*--------------------------------*- C++ -*----------------------------------*\
  =========                 |
  \\      /  F ield         | OpenFOAM: The Open Source CFD Toolbox
   \\    /   O peration     | Website:  https://openfoam.org
    \\  /    A nd           | Version:  8
     \\/     M anipulation  |
\*---------------------------------------------------------------------------*/
FoamFile
{
    version     2.0;
    format      ascii;
    class       volScalarField;
    location    "50";
    object      k;
}
// * * * * * * * * * * * * * * * * * * * * * * * * * * * * * * * * * * * * * //

dimensions      [0 2 -2 0 0 0 0];

internalField   nonuniform List<scalar> 
7320
(
5.81004
7.87595
9.57362
9.80328
9.68267
9.59048
9.53548
9.50565
9.49014
9.48512
9.4884
9.4952
9.50297
9.50961
9.51518
9.51811
9.51894
9.51747
9.51705
9.51461
9.51161
9.50811
9.50606
9.50329
9.50053
9.49683
9.49694
9.49517
9.49327
9.49106
9.4909
9.48968
9.48831
9.48434
9.48701
9.48664
9.4856
9.48305
9.48424
9.48369
9.48263
9.4773
9.48182
9.48258
9.48202
9.47851
9.48093
9.48107
9.4799
9.4733
9.47914
9.48071
9.48035
9.47559
9.4792
9.47994
9.47883
9.47179
9.47904
9.48156
9.48149
9.47578
9.48001
9.48025
9.47924
9.4728
9.48164
9.48484
9.48483
9.47845
9.48349
9.48315
9.48208
9.47668
9.48695
9.49011
9.4898
9.48427
9.49038
9.48954
9.48827
9.48384
9.49441
9.4966
9.49601
9.49151
9.49821
9.49724
9.49626
9.49312
9.50342
9.50487
9.50415
9.50065
9.50642
9.50574
9.50527
9.50318
9.51171
9.51263
9.5125
9.51049
9.51496
9.51498
9.51516
9.5143
9.51973
9.52082
9.52144
9.52113
9.5236
9.52431
9.52515
9.5258
9.52662
9.52777
9.52925
9.53062
9.5297
9.53067
9.53109
9.53254
4.40759
13.8436
18.9583
19.6938
19.5026
19.3247
19.2224
19.1682
19.14
19.1301
19.1365
19.1477
19.1603
19.1702
19.179
19.1821
19.1814
19.1761
19.1751
19.169
19.1619
19.1537
19.1498
19.1437
19.1378
19.1293
19.1314
19.1277
19.1237
19.1184
19.119
19.1162
19.1133
19.1036
19.1116
19.1109
19.1086
19.1021
19.1059
19.1046
19.1021
19.089
19.1015
19.1031
19.1017
19.0927
19.0994
19.0995
19.0965
19.0804
19.0961
19.0994
19.0983
19.0863
19.0958
19.0971
19.094
19.0767
19.0956
19.101
19.1003
19.0861
19.0971
19.0971
19.0942
19.0782
19.1005
19.1072
19.1065
19.0908
19.1036
19.1021
19.099
19.0853
19.1107
19.117
19.1156
19.1019
19.1169
19.1141
19.1105
19.0992
19.1249
19.129
19.1269
19.1157
19.1319
19.1287
19.1258
19.1176
19.1423
19.1448
19.1425
19.1338
19.1476
19.1452
19.1435
19.1378
19.1581
19.1594
19.1585
19.1532
19.1637
19.163
19.1628
19.1601
19.1728
19.1746
19.1755
19.1741
19.1797
19.1807
19.1822
19.1831
19.1845
19.1867
19.1898
19.1924
19.1898
19.192
19.1936
19.1967
3.94274
17.5059
23.9843
24.8818
24.628
24.3972
24.2653
24.1953
24.1588
24.1456
24.1534
24.1673
24.1832
24.1957
24.2071
24.2112
24.2106
24.2041
24.2031
24.1955
24.1867
24.1765
24.1717
24.1641
24.1568
24.1462
24.1488
24.1442
24.1392
24.1325
24.1333
24.1299
24.1263
24.1141
24.1242
24.1233
24.1205
24.1123
24.1171
24.1155
24.1124
24.0959
24.1116
24.1136
24.1119
24.1005
24.1091
24.1093
24.1056
24.0851
24.1049
24.1091
24.1077
24.0925
24.1046
24.1062
24.1024
24.0804
24.1043
24.1111
24.1103
24.0923
24.1062
24.1062
24.1025
24.0821
24.1103
24.1188
24.118
24.0979
24.1142
24.1123
24.1083
24.0908
24.1228
24.1309
24.1291
24.1116
24.1307
24.1271
24.1225
24.1079
24.1405
24.1456
24.143
24.1287
24.1492
24.1451
24.1413
24.1307
24.1621
24.1651
24.1623
24.151
24.1686
24.1655
24.1632
24.1559
24.1816
24.1831
24.1819
24.1751
24.1884
24.1875
24.1872
24.1836
24.1997
24.2019
24.2029
24.2011
24.2081
24.2094
24.2111
24.2122
24.214
24.2167
24.2205
24.2238
24.2205
24.2232
24.2253
24.2292
4.13012
20.2833
27.7108
28.7185
28.421
28.1565
28.0082
27.9317
27.8937
27.8825
27.8954
27.9152
27.937
27.9548
27.9708
27.9779
27.9791
27.9732
27.9735
27.9656
27.9563
27.9449
27.94
27.9316
27.9234
27.9113
27.9146
27.9093
27.9036
27.896
27.8971
27.8932
27.8891
27.8751
27.887
27.8858
27.8826
27.8732
27.8789
27.8771
27.8736
27.8545
27.8727
27.8751
27.8731
27.86
27.87
27.8702
27.866
27.8424
27.8652
27.8701
27.8685
27.8509
27.8649
27.8668
27.8625
27.837
27.8646
27.8724
27.8715
27.8507
27.8668
27.8668
27.8625
27.8388
27.8713
27.881
27.8801
27.857
27.8757
27.8735
27.8687
27.8484
27.8852
27.8944
27.8923
27.8721
27.8941
27.8899
27.8845
27.8675
27.905
27.9108
27.9078
27.8912
27.9148
27.91
27.9055
27.8931
27.9291
27.9326
27.9293
27.9163
27.9365
27.9327
27.93
27.9214
27.951
27.9526
27.9512
27.9432
27.9585
27.9573
27.9568
27.9525
27.971
27.9734
27.9745
27.9723
27.9803
27.9816
27.9836
27.9847
27.9867
27.9897
27.9939
27.9977
27.9938
27.997
27.9994
28.0041
4.52486
22.7125
31.0081
32.1286
31.8045
31.521
31.3681
31.2943
31.2625
31.2598
31.2836
31.3144
31.3466
31.3734
31.3975
31.4104
31.4159
31.4125
31.4156
31.4086
31.3996
31.388
31.3834
31.3745
31.3659
31.3526
31.3569
31.351
31.3448
31.3364
31.3378
31.3336
31.3292
31.3135
31.3271
31.3258
31.3222
31.3118
31.3184
31.3164
31.3126
31.2913
31.3119
31.3143
31.3122
31.2975
31.3089
31.3092
31.3046
31.2782
31.3039
31.3091
31.3074
31.2877
31.3035
31.3056
31.3008
31.2723
31.3032
31.3117
31.3107
31.2875
31.3056
31.3055
31.3006
31.274
31.3103
31.3209
31.3199
31.2942
31.3152
31.3125
31.3071
31.2841
31.3251
31.3352
31.3329
31.3103
31.3348
31.3301
31.3239
31.3047
31.3462
31.3527
31.3492
31.3306
31.3569
31.3514
31.3462
31.3322
31.3721
31.3759
31.3722
31.3576
31.38
31.3757
31.3725
31.3626
31.3954
31.3971
31.3954
31.3864
31.4033
31.4018
31.4011
31.3961
31.4165
31.419
31.4202
31.4176
31.4263
31.4276
31.4297
31.4307
31.4328
31.436
31.4405
31.4446
31.4402
31.4437
31.4464
31.4521
4.95286
25.0102
34.2183
35.4765
35.1432
34.8548
34.7092
34.6482
34.6315
34.6451
34.6871
34.7353
34.7839
34.825
34.8616
34.8841
34.8969
34.8983
34.906
34.9013
34.8937
34.8825
34.879
34.87
34.8612
34.847
34.8524
34.8462
34.8395
34.8303
34.8324
34.8278
34.823
34.8057
34.8213
34.8198
34.8159
34.8043
34.8121
34.8098
34.8058
34.7823
34.8054
34.8079
34.8056
34.7894
34.8024
34.8026
34.7976
34.7686
34.7972
34.8027
34.8007
34.7791
34.7968
34.799
34.7936
34.7624
34.7965
34.8055
34.8044
34.779
34.7991
34.7988
34.7933
34.764
34.8038
34.8152
34.8141
34.7859
34.809
34.806
34.7998
34.7743
34.8192
34.83
34.8274
34.8027
34.8295
34.8243
34.8171
34.7958
34.8411
34.848
34.8442
34.8238
34.8524
34.8463
34.8403
34.8246
34.8681
34.8722
34.868
34.852
34.8764
34.8715
34.8677
34.8566
34.8922
34.894
34.892
34.882
34.9003
34.8985
34.8974
34.8917
34.9138
34.9164
34.9174
34.9144
34.9238
34.925
34.927
34.9279
34.9301
34.9333
34.9381
34.9423
34.9375
34.9413
34.9442
34.951
5.35637
27.2822
37.519
38.9553
38.6323
38.3536
38.2287
38.192
38.2006
38.24
38.309
38.3828
38.4553
38.5171
38.572
38.6086
38.6323
38.6415
38.6562
38.6556
38.6506
38.6406
38.6389
38.6304
38.6217
38.6067
38.6138
38.6072
38.6002
38.5901
38.593
38.5881
38.583
38.5642
38.5819
38.5801
38.576
38.5632
38.5723
38.5698
38.5654
38.5399
38.5656
38.5682
38.5656
38.5479
38.5626
38.5627
38.5573
38.5258
38.5574
38.5631
38.5609
38.5374
38.557
38.5592
38.5533
38.5193
38.5568
38.5663
38.565
38.5374
38.5595
38.559
38.5529
38.5208
38.5642
38.5763
38.5749
38.5445
38.5696
38.5662
38.5592
38.5312
38.5798
38.5913
38.5883
38.5616
38.5906
38.5849
38.5768
38.5533
38.6022
38.6095
38.6052
38.5831
38.6139
38.6072
38.6003
38.583
38.6297
38.6342
38.6295
38.6121
38.6383
38.6329
38.6284
38.616
38.6542
38.656
38.6537
38.6427
38.6623
38.6601
38.6586
38.6521
38.6757
38.6783
38.6792
38.6757
38.6856
38.6866
38.6886
38.6893
38.6914
38.6945
38.6994
38.7038
38.6986
38.7026
38.7056
38.7138
5.71044
29.5801
41.0156
42.6852
42.3952
42.1426
42.0531
42.054
42.1001
42.1766
42.2833
42.3928
42.4982
42.5889
42.669
42.7257
42.7651
42.7856
42.8105
42.8159
42.8151
42.8076
42.8087
42.8011
42.793
42.7775
42.7866
42.7798
42.7725
42.7616
42.7656
42.7602
42.7548
42.7344
42.7545
42.7526
42.7481
42.7341
42.7447
42.742
42.7372
42.7095
42.7382
42.7408
42.738
42.7186
42.7352
42.7352
42.7293
42.6954
42.7302
42.7361
42.7335
42.708
42.7297
42.7318
42.7254
42.6887
42.7296
42.7395
42.7379
42.7083
42.7324
42.7316
42.7248
42.6901
42.7371
42.7497
42.7481
42.7155
42.7426
42.7388
42.7309
42.7004
42.7526
42.7647
42.7614
42.7328
42.7638
42.7576
42.7485
42.7229
42.7751
42.7829
42.7781
42.7542
42.7871
42.7798
42.7721
42.753
42.8029
42.8076
42.8025
42.7837
42.8115
42.8056
42.8003
42.7866
42.8273
42.8291
42.8264
42.8144
42.8351
42.8326
42.8306
42.8232
42.8482
42.8507
42.8514
42.8474
42.8578
42.8586
42.8604
42.8608
42.8628
42.8657
42.8707
42.8752
42.8695
42.8737
42.8768
42.8866
5.99523
31.9171
44.7676
46.7424
46.5131
46.3051
46.268
46.322
46.4198
46.5468
46.7041
46.8612
47.0105
47.14
47.2542
47.338
47.399
47.4355
47.4742
47.4885
47.494
47.4903
47.4953
47.4895
47.4825
47.4668
47.4784
47.4716
47.4642
47.4524
47.4576
47.4519
47.4463
47.4241
47.4469
47.4448
47.44
47.4247
47.4369
47.4339
47.4288
47.399
47.4308
47.4334
47.4303
47.4092
47.4279
47.4277
47.4213
47.3849
47.4231
47.4291
47.4262
47.3987
47.4225
47.4246
47.4175
47.3782
47.4227
47.4329
47.4309
47.3992
47.4254
47.4244
47.4169
47.3796
47.4301
47.4432
47.4413
47.4065
47.4357
47.4315
47.4226
47.3897
47.4454
47.4581
47.4544
47.4238
47.4568
47.4502
47.4401
47.4123
47.4678
47.476
47.4706
47.4452
47.48
47.4722
47.4634
47.4427
47.4954
47.5005
47.4948
47.4747
47.5041
47.4976
47.4915
47.4765
47.5195
47.5213
47.5181
47.5051
47.5269
47.524
47.5214
47.5131
47.5394
47.5418
47.5423
47.5376
47.5484
47.549
47.5506
47.5506
47.5525
47.5551
47.5602
47.5646
47.5584
47.5628
47.5659
47.5775
6.18858
34.2704
48.7932
51.166
51.0321
50.8901
50.9247
51.0494
51.2155
51.4084
51.6312
51.85
52.0564
52.2365
52.395
52.5149
52.6046
52.6627
52.7199
52.7466
52.761
52.7629
52.7734
52.7704
52.7653
52.7497
52.7643
52.7579
52.7505
52.7379
52.7445
52.7384
52.7325
52.7086
52.7342
52.7319
52.7269
52.7101
52.7242
52.7208
52.7153
52.6834
52.7185
52.7211
52.7177
52.6948
52.7156
52.7153
52.7084
52.6695
52.7112
52.7174
52.7141
52.6846
52.7106
52.7125
52.7048
52.6628
52.711
52.7215
52.7191
52.6854
52.7137
52.7125
52.7042
52.6643
52.7183
52.7319
52.7296
52.6928
52.7239
52.7195
52.7096
52.6742
52.7334
52.7466
52.7424
52.7101
52.745
52.738
52.7268
52.697
52.7555
52.7641
52.7582
52.7312
52.7678
52.7595
52.7497
52.7275
52.7829
52.7883
52.782
52.7607
52.7915
52.7846
52.7776
52.7613
52.8064
52.8082
52.8045
52.7906
52.8133
52.81
52.8069
52.7977
52.8251
52.8274
52.8276
52.8223
52.8334
52.8337
52.8351
52.8347
52.8363
52.8387
52.8437
52.848
52.8413
52.8458
52.8489
52.8623
6.26557
36.5773
53.0651
55.9545
55.9607
55.9098
56.0376
56.253
56.5059
56.7824
57.0876
57.3841
57.6626
57.9069
58.122
58.2881
58.4152
58.5019
58.583
58.6264
58.6529
58.6629
58.6807
58.6817
58.6794
58.6647
58.6829
58.6771
58.67
58.6566
58.6647
58.6584
58.6522
58.6266
58.6551
58.6528
58.6474
58.6292
58.645
58.6414
58.6354
58.6014
58.6398
58.6425
58.6387
58.6141
58.637
58.6365
58.6289
58.5878
58.6329
58.6393
58.6356
58.6041
58.6322
58.634
58.6257
58.5813
58.6329
58.6439
58.641
58.6053
58.6356
58.6342
58.6252
58.5829
58.6403
58.6544
58.6516
58.6129
58.6458
58.6412
58.6303
58.5928
58.6552
58.6689
58.6643
58.6304
58.6669
58.6597
58.6474
58.6158
58.6771
58.6862
58.6796
58.6513
58.6895
58.6809
58.6701
58.6464
58.7042
58.71
58.7031
58.6807
58.7128
58.7055
58.6977
58.6802
58.7272
58.7291
58.7249
58.7101
58.7336
58.73
58.7263
58.7163
58.7447
58.7469
58.7468
58.741
58.7523
58.7522
58.7534
58.7526
58.754
58.756
58.761
58.7652
58.758
58.7625
58.7655
58.7805
6.20149
38.7297
57.5005
61.0588
61.264
61.3341
61.5793
61.9073
62.2677
62.6472
63.0533
63.4453
63.8126
64.1364
64.4216
64.646
64.8203
64.9437
65.0551
65.1205
65.163
65.1841
65.2113
65.2181
65.2197
65.2067
65.229
65.2244
65.218
65.2041
65.2137
65.2072
65.2008
65.1736
65.2048
65.2025
65.1969
65.1771
65.1946
65.1907
65.1842
65.1483
65.1898
65.1927
65.1886
65.1622
65.187
65.1864
65.1782
65.135
65.1833
65.1901
65.1858
65.1525
65.1825
65.1843
65.1753
65.1287
65.1836
65.1951
65.1916
65.1542
65.1862
65.1848
65.175
65.1306
65.1912
65.2058
65.2025
65.1621
65.1965
65.1919
65.1802
65.1407
65.206
65.2203
65.2152
65.1799
65.2178
65.2106
65.1974
65.1642
65.228
65.2375
65.2304
65.2009
65.2405
65.2317
65.22
65.1952
65.2551
65.2613
65.2539
65.2305
65.2637
65.2562
65.2476
65.2292
65.2778
65.2798
65.2751
65.2596
65.2838
65.2801
65.2758
65.2651
65.2943
65.2965
65.2961
65.2898
65.3013
65.301
65.302
65.3008
65.3019
65.3037
65.3086
65.3126
65.3049
65.3094
65.3124
65.3286
5.97713
40.57
61.9525
66.3751
66.8578
67.086
67.4757
67.9405
68.4306
68.9341
69.4608
69.9672
70.4412
70.8612
71.2315
71.5272
71.7599
71.9292
72.0784
72.1716
72.2349
72.2706
72.3098
72.3245
72.3316
72.3214
72.3482
72.3457
72.3403
72.3262
72.3373
72.3309
72.3243
72.2956
72.3292
72.3271
72.3213
72.3001
72.3188
72.3148
72.3078
72.2702
72.3142
72.3176
72.3132
72.2852
72.3114
72.3108
72.3019
72.2569
72.308
72.3153
72.3106
72.2756
72.3072
72.3089
72.2993
72.2508
72.3086
72.3208
72.3167
72.2777
72.3112
72.3098
72.2995
72.2534
72.3165
72.3318
72.328
72.2862
72.3218
72.3173
72.305
72.2641
72.3318
72.3467
72.3413
72.3048
72.3437
72.3367
72.3227
72.2884
72.3543
72.3644
72.3568
72.3264
72.3671
72.3583
72.3459
72.3203
72.3818
72.3885
72.3806
72.3566
72.3907
72.3832
72.3739
72.3549
72.4047
72.407
72.4019
72.3859
72.4106
72.4069
72.4022
72.391
72.4208
72.4232
72.4225
72.4159
72.4274
72.4271
72.4279
72.4264
72.4272
72.4288
72.4337
72.4375
72.4293
72.4338
72.4367
72.4534
5.58555
41.8932
66.2016
71.7378
72.6047
73.0382
73.6038
74.2318
74.8755
75.5251
76.193
76.8335
77.4328
77.9664
78.4374
78.8186
79.1217
79.3474
79.5422
79.6702
79.7596
79.8142
79.8683
79.8933
79.9077
79.9019
79.9338
79.9341
79.9304
79.9165
79.929
79.9229
79.9162
79.8864
79.9217
79.9202
79.9141
79.8917
79.9113
79.9071
79.8995
79.8606
79.9066
79.9105
79.9059
79.8765
79.9037
79.9031
79.8935
79.8472
79.9003
79.9084
79.9033
79.8669
79.8995
79.9012
79.8911
79.8413
79.9012
79.9142
79.9097
79.8694
79.9039
79.9027
79.892
79.8447
79.9098
79.9258
79.9216
79.8787
79.915
79.911
79.8983
79.8565
79.926
79.9417
79.9359
79.8987
79.9382
79.9315
79.9172
79.8823
79.9495
79.9604
79.9524
79.9215
79.9629
79.9544
79.9416
79.9156
79.9783
79.9856
79.9774
79.953
79.9876
79.9804
79.9708
79.9515
80.0021
80.0049
79.9995
79.9832
80.0083
80.0047
79.9998
79.9884
80.0187
80.0213
80.0205
80.0137
80.0253
80.025
80.0258
80.0242
80.0246
80.0262
80.031
80.0348
80.0261
80.0304
80.0334
80.0497
5.03879
42.457
69.952
76.9153
78.3114
79.0132
79.7923
80.6127
81.4358
82.2545
83.0845
83.8789
84.6221
85.287
85.8746
86.3558
86.7421
87.0349
87.284
87.4543
87.5758
87.6541
87.7264
87.7647
87.7885
87.789
87.8264
87.8307
87.8293
87.8164
87.8301
87.8247
87.818
87.7874
87.8237
87.8229
87.8169
87.7934
87.8132
87.809
87.8009
87.7611
87.808
87.8128
87.808
87.7775
87.805
87.8045
87.7944
87.7472
87.8013
87.8104
87.8051
87.7678
87.8006
87.8026
87.7921
87.7416
87.8024
87.8166
87.8118
87.7707
87.8054
87.8046
87.7938
87.746
87.812
87.8291
87.8246
87.781
87.8175
87.814
87.8013
87.7594
87.8298
87.8465
87.8406
87.803
87.8425
87.8365
87.8221
87.7873
87.8552
87.867
87.8589
87.8278
87.8694
87.8616
87.8486
87.8229
87.886
87.8942
87.8858
87.8613
87.8962
87.8895
87.8798
87.8607
87.9117
87.9152
87.9097
87.8934
87.9186
87.9155
87.9106
87.8994
87.9297
87.9329
87.9321
87.9254
87.9369
87.9369
87.9377
87.9362
87.9363
87.9381
87.943
87.9466
87.9377
87.9416
87.9448
87.9594
4.37203
42.0053
72.8329
81.6065
83.7282
84.7844
85.8237
86.8705
87.9006
88.9125
89.9255
90.8932
91.7984
92.6115
93.3312
93.9268
94.409
94.7802
95.0923
95.3128
95.4727
95.5801
95.6743
95.7292
95.7648
95.7736
95.8173
95.8267
95.8286
95.8174
95.8323
95.8278
95.8214
95.7907
95.827
95.8271
95.8212
95.7971
95.8164
95.8124
95.8038
95.7636
95.8103
95.8161
95.8114
95.7803
95.8072
95.8069
95.7962
95.7488
95.8027
95.8131
95.8077
95.7701
95.8022
95.8045
95.7939
95.7434
95.804
95.8195
95.8146
95.7733
95.8074
95.8072
95.7965
95.7491
95.815
95.8332
95.8286
95.7849
95.8207
95.8182
95.8059
95.7647
95.8349
95.8528
95.847
95.8096
95.8484
95.8433
95.8293
95.7953
95.863
95.8759
95.868
95.8373
95.8784
95.8716
95.859
95.8341
95.8969
95.906
95.8977
95.8737
95.9082
95.9025
95.8931
95.8747
95.9254
95.9299
95.9245
95.9086
95.9336
95.9313
95.9266
95.9159
95.9462
95.95
95.9495
95.943
95.9544
95.9549
95.956
95.9547
95.9546
95.9567
95.9617
95.9654
95.9562
95.9598
95.9632
95.9752
3.64255
40.3078
74.4089
85.4391
88.5481
90.0778
91.4388
92.7522
94.0204
95.2508
96.4674
97.627
98.711
99.688
100.554
101.277
101.867
102.328
102.712
102.99
103.195
103.337
103.457
103.532
103.582
103.602
103.652
103.668
103.674
103.666
103.682
103.679
103.673
103.643
103.678
103.68
103.674
103.65
103.668
103.664
103.655
103.615
103.66
103.667
103.663
103.632
103.657
103.657
103.646
103.599
103.651
103.663
103.658
103.621
103.651
103.654
103.643
103.594
103.653
103.67
103.665
103.624
103.657
103.657
103.647
103.601
103.665
103.685
103.68
103.637
103.672
103.67
103.659
103.619
103.688
103.707
103.702
103.665
103.703
103.699
103.685
103.653
103.719
103.734
103.726
103.697
103.737
103.731
103.719
103.696
103.757
103.768
103.76
103.737
103.77
103.766
103.757
103.74
103.79
103.796
103.791
103.775
103.8
103.799
103.795
103.785
103.815
103.819
103.819
103.813
103.825
103.826
103.827
103.826
103.826
103.829
103.834
103.838
103.829
103.832
103.835
103.844
2.9211
37.2168
74.2042
87.9693
92.4051
94.5738
96.3398
97.9706
99.5128
100.989
102.43
103.799
105.077
106.231
107.255
108.118
108.826
109.386
109.849
110.193
110.449
110.631
110.781
110.88
110.947
110.98
111.039
111.063
111.074
111.07
111.087
111.086
111.081
111.052
111.085
111.088
111.083
111.059
111.075
111.071
111.062
111.023
111.065
111.073
111.069
111.039
111.062
111.062
111.051
111.006
111.055
111.068
111.063
111.027
111.055
111.058
111.048
111
111.056
111.074
111.07
111.031
111.061
111.062
111.053
111.009
111.07
111.091
111.087
111.046
111.078
111.077
111.067
111.03
111.096
111.117
111.113
111.078
111.113
111.11
111.098
111.068
111.132
111.148
111.141
111.113
111.151
111.147
111.137
111.116
111.175
111.187
111.18
111.158
111.19
111.187
111.18
111.164
111.212
111.219
111.215
111.201
111.225
111.225
111.222
111.213
111.242
111.248
111.249
111.244
111.255
111.257
111.259
111.259
111.258
111.261
111.267
111.271
111.262
111.265
111.268
111.272
2.27632
32.7366
71.7501
88.6881
94.8723
97.9066
100.193
102.209
104.069
105.822
107.51
109.105
110.589
111.931
113.122
114.132
114.967
115.633
116.182
116.597
116.91
117.138
117.321
117.447
117.535
117.584
117.651
117.684
117.703
117.703
117.722
117.723
117.719
117.693
117.723
117.727
117.723
117.7
117.713
117.71
117.701
117.664
117.701
117.711
117.707
117.678
117.698
117.698
117.687
117.644
117.689
117.703
117.699
117.665
117.69
117.693
117.683
117.638
117.689
117.709
117.706
117.669
117.695
117.698
117.689
117.649
117.706
117.727
117.725
117.686
117.714
117.715
117.707
117.673
117.735
117.757
117.754
117.722
117.754
117.753
117.742
117.716
117.776
117.793
117.788
117.762
117.798
117.796
117.787
117.768
117.824
117.838
117.832
117.812
117.842
117.841
117.835
117.822
117.867
117.876
117.873
117.861
117.883
117.885
117.883
117.876
117.904
117.911
117.913
117.909
117.919
117.922
117.925
117.926
117.926
117.93
117.935
117.94
117.932
117.933
117.937
117.936
1.75708
27.0928
66.6672
87.0404
95.4604
99.6622
102.631
105.122
107.359
109.427
111.387
113.225
114.926
116.464
117.826
118.988
119.953
120.73
121.368
121.859
122.234
122.51
122.73
122.886
122.997
123.065
123.142
123.186
123.212
123.219
123.239
123.243
123.242
123.218
123.245
123.25
123.247
123.226
123.236
123.233
123.223
123.189
123.222
123.231
123.229
123.202
123.218
123.218
123.208
123.168
123.206
123.221
123.219
123.187
123.208
123.211
123.202
123.162
123.206
123.227
123.225
123.191
123.214
123.216
123.209
123.173
123.224
123.247
123.246
123.21
123.234
123.237
123.23
123.201
123.257
123.281
123.28
123.251
123.278
123.279
123.271
123.248
123.303
123.322
123.319
123.296
123.328
123.328
123.321
123.306
123.358
123.373
123.369
123.351
123.378
123.379
123.375
123.365
123.407
123.418
123.416
123.406
123.427
123.43
123.429
123.425
123.451
123.459
123.462
123.46
123.47
123.474
123.477
123.479
123.48
123.484
123.49
123.495
123.488
123.489
123.493
123.487
1.38127
20.772
58.7948
82.4737
93.6223
99.3743
103.247
106.343
109.034
111.467
113.732
115.831
117.761
119.497
121.033
122.346
123.441
124.329
125.058
125.625
126.063
126.392
126.651
126.839
126.975
127.064
127.152
127.207
127.242
127.257
127.279
127.287
127.288
127.269
127.291
127.297
127.295
127.277
127.284
127.28
127.271
127.241
127.266
127.276
127.275
127.251
127.263
127.263
127.253
127.217
127.248
127.263
127.262
127.235
127.251
127.254
127.246
127.21
127.247
127.268
127.268
127.238
127.256
127.259
127.254
127.223
127.267
127.289
127.29
127.259
127.279
127.282
127.277
127.254
127.303
127.328
127.329
127.304
127.327
127.329
127.323
127.305
127.354
127.374
127.374
127.355
127.382
127.385
127.38
127.369
127.415
127.431
127.43
127.415
127.439
127.442
127.44
127.433
127.471
127.483
127.484
127.476
127.494
127.499
127.5
127.498
127.522
127.532
127.536
127.535
127.545
127.55
127.555
127.557
127.559
127.564
127.57
127.576
127.57
127.57
127.573
127.563
1.13724
14.4885
48.3669
74.5426
88.7787
96.5233
101.594
105.473
108.73
111.599
114.211
116.598
118.768
120.707
122.414
123.873
125.093
126.088
126.904
127.547
128.047
128.428
128.727
128.949
129.112
129.224
129.324
129.391
129.436
129.459
129.485
129.496
129.5
129.486
129.504
129.51
129.51
129.495
129.499
129.495
129.486
129.46
129.479
129.488
129.488
129.468
129.475
129.474
129.465
129.434
129.458
129.472
129.472
129.449
129.461
129.463
129.456
129.426
129.456
129.475
129.477
129.452
129.465
129.468
129.465
129.44
129.476
129.498
129.501
129.476
129.49
129.493
129.491
129.473
129.515
129.54
129.544
129.524
129.543
129.545
129.542
129.529
129.571
129.592
129.595
129.58
129.603
129.607
129.605
129.597
129.638
129.655
129.656
129.645
129.665
129.67
129.67
129.666
129.7
129.714
129.717
129.711
129.728
129.734
129.737
129.737
129.758
129.77
129.775
129.776
129.786
129.792
129.797
129.801
129.803
129.809
129.816
129.822
129.818
129.817
129.82
129.807
0.995591
9.03699
36.2012
63.1034
80.3929
90.5504
97.1784
102.082
106.06
109.468
112.492
115.204
117.633
119.781
121.655
123.253
124.589
125.684
126.58
127.293
127.853
128.285
128.624
128.88
129.071
129.206
129.32
129.399
129.455
129.488
129.517
129.533
129.54
129.532
129.546
129.553
129.554
129.542
129.543
129.539
129.531
129.509
129.522
129.529
129.53
129.514
129.518
129.516
129.507
129.482
129.498
129.51
129.512
129.494
129.501
129.502
129.497
129.473
129.494
129.511
129.515
129.496
129.505
129.507
129.505
129.486
129.514
129.535
129.54
129.521
129.531
129.534
129.533
129.521
129.556
129.579
129.586
129.572
129.586
129.59
129.589
129.58
129.616
129.637
129.642
129.632
129.651
129.656
129.657
129.653
129.687
129.706
129.709
129.702
129.719
129.725
129.727
129.726
129.755
129.77
129.775
129.773
129.787
129.795
129.799
129.802
129.821
129.833
129.84
129.843
129.852
129.859
129.866
129.871
129.874
129.88
129.887
129.893
129.891
129.891
129.892
129.877
0.922895
5.02666
23.7951
48.6275
68.1486
80.9186
89.4731
95.6995
100.61
104.702
108.233
111.33
114.051
116.422
118.465
120.196
121.64
122.825
123.795
124.573
125.189
125.671
126.05
126.34
126.559
126.719
126.847
126.94
127.007
127.05
127.084
127.105
127.116
127.114
127.126
127.132
127.135
127.126
127.126
127.122
127.114
127.097
127.103
127.109
127.11
127.098
127.098
127.096
127.088
127.068
127.077
127.086
127.089
127.076
127.079
127.08
127.075
127.057
127.072
127.086
127.091
127.078
127.082
127.084
127.083
127.07
127.091
127.109
127.116
127.103
127.109
127.112
127.113
127.106
127.133
127.155
127.165
127.156
127.167
127.171
127.172
127.168
127.196
127.217
127.225
127.22
127.235
127.241
127.244
127.244
127.272
127.29
127.297
127.293
127.307
127.314
127.318
127.32
127.344
127.36
127.367
127.368
127.38
127.388
127.395
127.399
127.416
127.429
127.437
127.442
127.451
127.459
127.466
127.472
127.476
127.482
127.49
127.497
127.497
127.497
127.497
127.48
0.890679
2.60854
13.1178
32.5889
52.3092
67.2901
77.9797
85.8332
91.9325
96.9033
101.079
104.653
107.724
110.349
112.577
114.446
115.998
117.274
118.318
119.16
119.835
120.368
120.789
121.116
121.366
121.553
121.699
121.806
121.886
121.94
121.981
122.008
122.024
122.029
122.039
122.045
122.049
122.044
122.043
122.038
122.032
122.019
122.02
122.023
122.024
122.016
122.014
122.011
122.004
121.989
121.993
121.998
122.001
121.993
121.993
121.993
121.989
121.977
121.985
121.996
122.001
121.993
121.996
121.997
121.996
121.989
122.003
122.018
122.026
122.019
122.023
122.025
122.027
122.025
122.045
122.065
122.075
122.073
122.081
122.085
122.088
122.088
122.11
122.128
122.139
122.139
122.15
122.157
122.162
122.166
122.188
122.205
122.214
122.214
122.225
122.233
122.239
122.243
122.263
122.278
122.287
122.291
122.302
122.31
122.318
122.324
122.339
122.351
122.361
122.368
122.377
122.385
122.392
122.399
122.405
122.411
122.419
122.426
122.428
122.429
122.428
122.411
0.878666
1.44488
5.85984
17.6689
34.303
49.9408
62.4392
72.0545
79.579
85.65
90.6533
94.8348
98.348
101.293
103.752
105.795
107.485
108.876
110.016
110.944
111.694
112.294
112.771
113.145
113.435
113.656
113.826
113.953
114.049
114.117
114.167
114.201
114.224
114.235
114.246
114.254
114.258
114.257
114.255
114.251
114.246
114.236
114.235
114.235
114.235
114.23
114.227
114.223
114.217
114.207
114.207
114.209
114.211
114.206
114.206
114.204
114.201
114.194
114.198
114.204
114.209
114.206
114.207
114.207
114.208
114.204
114.214
114.225
114.233
114.231
114.234
114.236
114.238
114.24
114.254
114.27
114.282
114.284
114.291
114.295
114.3
114.303
114.319
114.335
114.346
114.35
114.36
114.367
114.374
114.379
114.397
114.412
114.422
114.427
114.436
114.443
114.45
114.457
114.473
114.487
114.497
114.503
114.513
114.522
114.53
114.538
114.55
114.562
114.573
114.581
114.59
114.598
114.606
114.613
114.62
114.627
114.634
114.641
114.645
114.647
114.646
114.631
0.87476
1.0069
2.29982
7.09088
17.3318
30.5494
43.3677
54.2961
63.2461
70.5639
76.5775
81.5278
85.6194
89.0033
91.8048
94.126
96.0508
97.6444
98.9601
100.04
100.92
101.632
102.201
102.652
103.005
103.277
103.486
103.644
103.763
103.851
103.916
103.961
103.992
104.012
104.026
104.035
104.041
104.043
104.043
104.04
104.036
104.029
104.026
104.024
104.023
104.02
104.017
104.013
104.008
104.001
103.999
103.998
103.999
103.997
103.996
103.994
103.992
103.988
103.989
103.992
103.996
103.996
103.996
103.996
103.997
103.997
104.002
104.01
104.017
104.019
104.022
104.024
104.027
104.03
104.041
104.053
104.064
104.07
104.076
104.081
104.086
104.091
104.103
104.116
104.127
104.135
104.143
104.15
104.158
104.165
104.178
104.192
104.202
104.209
104.218
104.225
104.233
104.241
104.253
104.265
104.276
104.284
104.293
104.302
104.31
104.319
104.33
104.341
104.351
104.36
104.369
104.377
104.385
104.393
104.4
104.407
104.414
104.421
104.426
104.429
104.429
104.416
0.873309
0.880836
1.12401
2.23764
5.87613
13.1978
23.1588
33.6327
43.2522
51.5859
58.6269
64.4716
69.3251
73.3728
76.7652
79.6162
82.0122
84.0187
85.6889
87.0679
88.1977
89.1143
89.8504
90.4346
90.8939
91.2509
91.5254
91.7338
91.8915
92.0093
92.0958
92.1579
92.2023
92.2329
92.2538
92.2671
92.2762
92.2811
92.2827
92.2813
92.2788
92.2752
92.2719
92.2687
92.267
92.2648
92.2619
92.258
92.2542
92.2499
92.2467
92.2445
92.244
92.243
92.2416
92.2396
92.2381
92.2365
92.2363
92.2374
92.2399
92.2412
92.2418
92.2419
92.2428
92.2443
92.2479
92.2529
92.2587
92.2625
92.2654
92.2675
92.2708
92.2753
92.2827
92.2917
92.3012
92.3087
92.3151
92.3202
92.3258
92.3322
92.3413
92.3514
92.3618
92.3703
92.3784
92.3855
92.3931
92.4012
92.4117
92.4225
92.4329
92.4414
92.4494
92.4566
92.4643
92.4725
92.4826
92.4931
92.5033
92.5122
92.5208
92.529
92.5374
92.5459
92.5555
92.5653
92.575
92.584
92.5926
92.6008
92.6088
92.6164
92.6235
92.6306
92.6375
92.6441
92.6497
92.6539
92.6549
92.6459
0.872399
0.853132
0.867407
0.993378
1.57485
3.42888
7.519
13.9602
21.8072
29.8581
37.3654
44.053
49.9456
55.1188
59.6266
63.5096
66.8122
69.5869
71.8914
73.7856
75.3281
76.5726
77.5671
78.3541
78.9714
79.451
79.8198
80.1005
80.3128
80.4719
80.5895
80.675
80.7368
80.7807
80.8109
80.8309
80.8444
80.8528
80.8571
80.8581
80.8575
80.8557
80.8531
80.8499
80.8477
80.8456
80.8432
80.84
80.8369
80.8341
80.8311
80.8283
80.827
80.8262
80.825
80.8234
80.8223
80.8217
80.8213
80.8213
80.8226
80.8242
80.8252
80.8256
80.8267
80.8287
80.8312
80.8344
80.8388
80.843
80.8463
80.8489
80.8523
80.8567
80.8622
80.8687
80.8764
80.8838
80.8903
80.8958
80.9015
80.908
80.9152
80.9231
80.932
80.9404
80.9482
80.9553
80.9626
80.9706
80.9792
80.9881
80.9974
81.0061
81.0139
81.0211
81.0286
81.0365
81.0449
81.0537
81.0628
81.0715
81.0797
81.0875
81.0954
81.1036
81.112
81.1205
81.1293
81.1378
81.1459
81.1537
81.1613
81.1687
81.1756
81.1823
81.1889
81.195
81.2007
81.2054
81.2076
81.2033
0.871888
0.848561
0.830577
0.818119
0.840807
0.993458
1.55543
3.06934
6.12735
10.975
17.3304
24.5706
31.9333
38.8565
45.0309
50.3469
54.8178
58.5184
61.5466
64.0023
65.9786
67.5576
68.8098
69.7952
70.5648
71.161
71.6189
71.9676
72.231
72.4284
72.5747
72.6819
72.7596
72.8151
72.8539
72.8803
72.8981
72.9096
72.9164
72.9196
72.9205
72.9198
72.9179
72.9154
72.9131
72.911
72.9088
72.9063
72.9039
72.9015
72.899
72.8965
72.895
72.8939
72.8929
72.8918
72.891
72.8905
72.8902
72.8901
72.8909
72.8922
72.8933
72.8943
72.8956
72.8973
72.8993
72.9018
72.9053
72.909
72.9124
72.9156
72.9189
72.9229
72.9273
72.9324
72.9387
72.9452
72.9513
72.957
72.9627
72.9686
72.9748
72.9815
72.9889
72.9966
73.0039
73.0109
73.0179
73.0252
73.0327
73.0405
73.0487
73.0569
73.0645
73.0717
73.0788
73.0862
73.0936
73.1013
73.1093
73.1174
73.1251
73.1326
73.14
73.1475
73.155
73.1627
73.1705
73.1783
73.186
73.1933
73.2005
73.2074
73.2141
73.2204
73.2266
73.2323
73.2378
73.2423
73.2453
73.2441
0.871933
0.848658
0.830765
0.818635
0.84283
1.00117
1.57963
3.1241
6.21376
11.0714
17.4139
24.6123
31.923
38.7988
44.9369
50.2279
54.6828
58.3741
61.3976
63.8516
65.828
67.408
68.6616
69.6488
70.42
71.0176
71.4769
71.8268
72.0914
72.2895
72.4366
72.5444
72.6226
72.6784
72.7175
72.7443
72.7624
72.774
72.781
72.7845
72.7856
72.7849
72.7832
72.781
72.7789
72.7768
72.7747
72.7725
72.7702
72.7677
72.7655
72.7635
72.7621