/*--------------------------------*- C++ -*----------------------------------*\
  =========                 |
  \\      /  F ield         | OpenFOAM: The Open Source CFD Toolbox
   \\    /   O peration     | Website:  https://openfoam.org
    \\  /    A nd           | Version:  8
     \\/     M anipulation  |
\*---------------------------------------------------------------------------*/
FoamFile
{
    version     2.0;
    format      ascii;
    class       volScalarField;
    location    "50";
    object      nut;
}
// * * * * * * * * * * * * * * * * * * * * * * * * * * * * * * * * * * * * * //

dimensions      [0 2 -1 0 0 0 0];

internalField   nonuniform List<scalar> 
7320
(
0.00028164
0.000329864
0.000368778
0.000374787
0.000373365
0.000372256
0.000371742
0.000371609
0.000371687
0.00037192
0.000372293
0.00037269
0.000373074
0.0003734
0.000373693
0.000373884
0.000374008
0.00037406
0.000374145
0.000374142
0.000374115
0.000374066
0.000374063
0.000374014
0.000373965
0.000373894
0.000373929
0.000373891
0.000373851
0.000373802
0.000373822
0.000373789
0.000373758
0.000373679
0.000373758
0.000373741
0.000373716
0.000373662
0.000373704
0.000373684
0.00037366
0.000373558
0.000373666
0.000373671
0.000373656
0.000373586
0.000373646
0.000373641
0.000373617
0.000373493
0.000373618
0.00037364
0.000373629
0.000373539
0.000373616
0.000373624
0.000373603
0.000373471
0.000373615
0.000373656
0.000373653
0.000373548
0.000373631
0.000373633
0.000373613
0.000373492
0.00037366
0.000373715
0.000373715
0.000373598
0.000373692
0.000373686
0.000373665
0.000373563
0.000373751
0.000373809
0.000373804
0.000373703
0.000373813
0.0003738
0.000373775
0.000373692
0.000373882
0.000373924
0.000373913
0.000373831
0.000373951
0.000373935
0.000373914
0.000373856
0.00037404
0.000374068
0.000374054
0.000373991
0.000374093
0.000374082
0.000374071
0.000374031
0.000374183
0.000374201
0.000374198
0.000374161
0.000374239
0.00037424
0.000374241
0.000374224
0.00037432
0.00037434
0.00037435
0.000374343
0.000374386
0.000374399
0.000374413
0.000374424
0.000374439
0.000374459
0.000374484
0.000374509
0.000374496
0.000374511
0.000374508
0.000374542
0.000579651
0.00308548
0.00422857
0.00442674
0.00444469
0.0044453
0.00445003
0.00445646
0.00446324
0.00447006
0.00447781
0.0044846
0.00449059
0.00449533
0.00449965
0.00450229
0.00450398
0.00450454
0.00450609
0.00450607
0.00450574
0.00450494
0.00450517
0.00450451
0.00450388
0.00450267
0.00450379
0.0045033
0.00450279
0.00450188
0.00450246
0.00450197
0.00450152
0.00449994
0.00450188
0.00450167
0.00450131
0.00450013
0.00450118
0.00450083
0.00450037
0.00449837
0.00450091
0.00450099
0.0045007
0.00449914
0.00450059
0.00450041
0.00449983
0.00449744
0.00450038
0.00450066
0.00450035
0.00449844
0.0045002
0.00450016
0.00449957
0.00449702
0.00450033
0.00450086
0.00450056
0.00449842
0.0045003
0.00450012
0.00449957
0.0044972
0.0045008
0.00450146
0.00450115
0.00449885
0.00450086
0.00450054
0.00449995
0.00449793
0.00450178
0.0045024
0.004502
0.00450002
0.0045022
0.00450171
0.00450106
0.0044994
0.00450312
0.00450348
0.00450301
0.0045014
0.00450368
0.00450312
0.00450255
0.00450135
0.0045048
0.00450496
0.00450448
0.00450323
0.00450515
0.00450469
0.00450431
0.00450344
0.00450622
0.00450623
0.00450596
0.00450515
0.00450656
0.00450634
0.00450618
0.0045057
0.00450739
0.00450748
0.00450748
0.00450719
0.00450786
0.00450788
0.00450798
0.00450798
0.00450807
0.00450826
0.00450858
0.00450881
0.0045084
0.00450864
0.00450881
0.00450935
0.00120367
0.00841351
0.0115367
0.0121404
0.0122358
0.0122717
0.0123092
0.0123454
0.0123793
0.0124113
0.012444
0.0124729
0.0124983
0.0125189
0.0125368
0.0125491
0.0125578
0.0125624
0.0125687
0.0125704
0.0125708
0.0125696
0.0125707
0.0125693
0.0125679
0.0125649
0.0125678
0.0125665
0.0125653
0.0125629
0.0125643
0.012563
0.0125618
0.0125578
0.0125626
0.0125621
0.0125612
0.0125581
0.0125607
0.0125598
0.0125585
0.0125537
0.01256
0.0125602
0.0125594
0.0125556
0.0125592
0.0125586
0.012557
0.0125514
0.0125587
0.0125594
0.0125585
0.0125539
0.0125582
0.012558
0.0125565
0.0125506
0.0125588
0.01256
0.0125591
0.0125541
0.0125586
0.0125582
0.0125569
0.0125515
0.0125603
0.0125619
0.012561
0.0125556
0.0125604
0.0125597
0.0125584
0.012554
0.0125633
0.0125648
0.0125638
0.0125593
0.0125644
0.0125634
0.0125619
0.0125584
0.0125673
0.0125683
0.0125671
0.0125635
0.0125689
0.0125677
0.0125664
0.0125639
0.0125721
0.0125726
0.0125714
0.0125687
0.0125732
0.0125723
0.0125714
0.0125697
0.0125763
0.0125764
0.0125758
0.0125741
0.0125774
0.012577
0.0125767
0.0125758
0.0125798
0.0125802
0.0125802
0.0125797
0.0125813
0.0125814
0.0125818
0.0125818
0.012582
0.0125825
0.0125834
0.012584
0.012583
0.0125835
0.0125837
0.0125854
0.00252671
0.0158908
0.0219515
0.0232618
0.0235452
0.0236831
0.0238037
0.0239099
0.0240048
0.0240915
0.0241764
0.0242511
0.0243165
0.0243701
0.024416
0.0244489
0.0244727
0.0244871
0.024503
0.0245094
0.0245126
0.024512
0.024515
0.0245131
0.0245109
0.0245055
0.0245107
0.0245085
0.0245064
0.024502
0.0245044
0.0245018
0.0244993
0.0244922
0.0245007
0.0244996
0.024498
0.0244924
0.0244969
0.024495
0.0244924
0.0244844
0.0244955
0.0244958
0.0244943
0.0244876
0.0244938
0.0244925
0.0244894
0.0244802
0.0244929
0.024494
0.0244923
0.0244847
0.024492
0.0244914
0.0244888
0.0244794
0.0244934
0.0244955
0.0244936
0.0244855
0.024493
0.0244923
0.0244902
0.024482
0.024497
0.0244996
0.0244978
0.0244893
0.024497
0.0244962
0.0244943
0.024488
0.0245037
0.0245064
0.0245047
0.0244978
0.0245058
0.0245046
0.0245024
0.0244976
0.0245124
0.0245143
0.0245123
0.024507
0.0245157
0.0245143
0.0245124
0.0245093
0.0245227
0.0245238
0.0245218
0.0245177
0.0245251
0.024524
0.0245228
0.0245208
0.0245317
0.0245323
0.0245313
0.0245289
0.0245344
0.0245342
0.024534
0.024533
0.0245398
0.0245407
0.0245409
0.0245403
0.0245431
0.0245436
0.0245444
0.0245448
0.0245452
0.0245462
0.024548
0.0245489
0.0245473
0.0245481
0.024548
0.0245513
0.00463341
0.0255086
0.0356825
0.0381023
0.0387324
0.0390658
0.0393369
0.0395653
0.0397646
0.0399434
0.0401135
0.0402631
0.0403934
0.0405006
0.0405911
0.0406577
0.0407065
0.0407378
0.0407687
0.0407836
0.0407921
0.0407934
0.0407992
0.0407972
0.0407942
0.0407861
0.0407937
0.0407904
0.0407871
0.0407801
0.0407833
0.0407789
0.0407747
0.0407638
0.040776
0.0407745
0.0407719
0.0407631
0.0407694
0.040766
0.0407617
0.0407502
0.0407664
0.040767
0.0407647
0.0407547
0.0407634
0.040761
0.0407559
0.0407432
0.0407617
0.0407636
0.0407608
0.04075
0.0407603
0.0407591
0.0407551
0.0407425
0.040763
0.0407664
0.040763
0.0407519
0.0407624
0.0407615
0.0407588
0.0407485
0.0407704
0.0407743
0.0407713
0.0407598
0.0407702
0.0407698
0.0407677
0.0407606
0.0407836
0.0407878
0.0407854
0.0407764
0.0407872
0.0407864
0.0407839
0.0407791
0.0408004
0.0408037
0.0408009
0.0407945
0.0408065
0.0408054
0.0408034
0.040801
0.0408201
0.0408222
0.0408193
0.0408144
0.0408248
0.0408242
0.0408232
0.0408219
0.0408375
0.0408391
0.0408379
0.0408354
0.0408434
0.0408439
0.0408442
0.0408442
0.040854
0.040856
0.0408568
0.0408567
0.0408609
0.0408623
0.040864
0.0408652
0.040866
0.040868
0.0408711
0.0408727
0.0408704
0.0408713
0.0408705
0.0408754
0.00738626
0.0372334
0.0528154
0.056828
0.0580058
0.0586493
0.0591494
0.0595596
0.0599112
0.0602229
0.0605135
0.0607684
0.0609891
0.0611709
0.061323
0.0614365
0.0615203
0.0615756
0.0616268
0.0616542
0.0616705
0.0616751
0.0616845
0.0616828
0.0616789
0.0616677
0.0616773
0.0616729
0.061668
0.061658
0.0616613
0.0616546
0.061648
0.0616326
0.0616479
0.0616459
0.0616421
0.0616297
0.061637
0.0616319
0.0616251
0.0616098
0.061631
0.0616323
0.0616291
0.0616153
0.061626
0.0616224
0.0616146
0.0615983
0.0616226
0.0616259
0.0616218
0.0616078
0.0616207
0.0616189
0.0616133
0.0615978
0.061625
0.0616304
0.0616254
0.0616111
0.0616244
0.0616237
0.0616207
0.0616092
0.0616385
0.0616445
0.06164
0.0616256
0.0616386
0.0616392
0.0616377
0.0616315
0.0616625
0.0616691
0.0616659
0.0616554
0.0616688
0.0616689
0.061667
0.0616641
0.0616926
0.061698
0.0616947
0.0616877
0.0617035
0.0617035
0.0617021
0.0617021
0.0617276
0.0617313
0.0617275
0.0617226
0.0617363
0.061737
0.061737
0.061738
0.061759
0.0617624
0.0617613
0.0617595
0.0617705
0.0617726
0.0617743
0.0617764
0.06179
0.0617939
0.0617959
0.0617971
0.0618033
0.0618063
0.0618097
0.0618125
0.0618141
0.0618179
0.061823
0.0618258
0.0618227
0.061824
0.061822
0.0618275
0.0105857
0.0508714
0.0731392
0.0792749
0.0812354
0.0823191
0.0831335
0.0837878
0.0843412
0.084826
0.0852707
0.0856593
0.085994
0.0862694
0.086498
0.0866702
0.0867978
0.0868837
0.0869594
0.0870028
0.0870294
0.087039
0.0870523
0.0870513
0.0870465
0.0870319
0.0870423
0.0870368
0.0870302
0.0870168
0.0870189
0.0870094
0.0869997
0.0869793
0.0869963
0.0869939
0.0869887
0.0869721
0.0869792
0.0869719
0.0869622
0.0869429
0.0869681
0.0869707
0.0869664
0.0869488
0.0869602
0.0869552
0.0869442
0.0869242
0.0869537
0.0869593
0.086954
0.0869365
0.0869513
0.0869492
0.0869421
0.0869238
0.0869575
0.0869661
0.0869593
0.0869417
0.0869572
0.0869573
0.0869545
0.0869428
0.08698
0.0869892
0.0869833
0.0869656
0.086981
0.0869834
0.0869836
0.0869798
0.08702
0.0870301
0.0870265
0.0870145
0.0870308
0.0870326
0.0870323
0.087033
0.0870701
0.0870787
0.0870751
0.0870682
0.0870883
0.0870902
0.0870908
0.0870949
0.0871282
0.0871341
0.0871297
0.0871253
0.0871431
0.0871461
0.0871483
0.0871533
0.087181
0.0871871
0.0871867
0.0871864
0.0872013
0.0872061
0.0872103
0.0872159
0.0872344
0.0872414
0.0872454
0.087249
0.0872578
0.0872636
0.0872697
0.0872751
0.087278
0.0872848
0.087293
0.0872976
0.0872938
0.0872954
0.0872921
0.0872961
0.0140279
0.0660398
0.0961331
0.104938
0.107946
0.109615
0.110836
0.1118
0.112605
0.113303
0.113934
0.114483
0.114952
0.115338
0.115656
0.115897
0.116077
0.116199
0.116302
0.116365
0.116405
0.116421
0.116438
0.116439
0.116433
0.116416
0.116425
0.116419
0.11641
0.116393
0.116392
0.11638
0.116367
0.116341
0.116357
0.116355
0.116348
0.116327
0.116332
0.116322
0.116309
0.116286
0.116313
0.116318
0.116313
0.116291
0.116302
0.116295
0.116281
0.116257
0.11629
0.116299
0.116293
0.116272
0.116288
0.116286
0.116277
0.116256
0.116296
0.116309
0.116301
0.116279
0.116296
0.116298
0.116296
0.116284
0.11633
0.116344
0.116337
0.116315
0.116333
0.116338
0.116341
0.116341
0.116392
0.116407
0.116403
0.11639
0.116409
0.116413
0.116416
0.116421
0.116469
0.116482
0.116479
0.116472
0.116498
0.116502
0.116506
0.116515
0.116559
0.116568
0.116563
0.116559
0.116583
0.116589
0.116594
0.116605
0.116641
0.116651
0.116652
0.116654
0.116674
0.116682
0.11669
0.116701
0.116726
0.116737
0.116744
0.116751
0.116763
0.116773
0.116783
0.116792
0.116797
0.116808
0.11682
0.116828
0.116823
0.116825
0.116821
0.11682
0.0175108
0.0821975
0.121059
0.133084
0.137435
0.139858
0.14159
0.14294
0.144055
0.145011
0.145862
0.146599
0.147226
0.14774
0.14816
0.148482
0.148722
0.148887
0.149023
0.14911
0.149165
0.14919
0.149212
0.149215
0.149209
0.149189
0.149196
0.149189
0.149178
0.149158
0.149153
0.149138
0.14912
0.149088
0.149103
0.1491
0.149092
0.149066
0.149067
0.149056
0.149039
0.14901
0.149039
0.149046
0.14904
0.149014
0.149023
0.149016
0.148997
0.148968
0.149005
0.149018
0.149011
0.148986
0.149002
0.149001
0.148991
0.148966
0.149012
0.149031
0.149022
0.148996
0.149014
0.149018
0.149017
0.149006
0.149061
0.149081
0.149073
0.149047
0.149067
0.149075
0.149082
0.149086
0.149149
0.14917
0.149168
0.149151
0.149176
0.149182
0.149189
0.1492
0.14926
0.149278
0.149276
0.149269
0.149302
0.149309
0.149317
0.149333
0.149389
0.149401
0.149397
0.149394
0.149424
0.149434
0.149444
0.149461
0.149508
0.149522
0.149525
0.14953
0.149556
0.149569
0.149582
0.149599
0.149632
0.149648
0.149659
0.14967
0.149687
0.149702
0.149716
0.149731
0.149738
0.149755
0.149772
0.149783
0.149778
0.149781
0.149775
0.149768
0.0208351
0.0987084
0.147102
0.162916
0.168951
0.172333
0.174712
0.176544
0.178041
0.179313
0.180431
0.181393
0.182207
0.182874
0.183415
0.183833
0.184145
0.184365
0.184538
0.184655
0.18473
0.184769
0.184798
0.184806
0.184801
0.184779
0.184783
0.184776
0.184763
0.184741
0.18473
0.184712
0.18469
0.184652
0.184662
0.18466
0.184649
0.18462
0.184616
0.184602
0.184582
0.184547
0.184575
0.184586
0.18458
0.18455
0.184555
0.184547
0.184525
0.18449
0.184529
0.184547
0.184541
0.184511
0.184526
0.184527
0.184516
0.184486
0.184537
0.184563
0.184554
0.184523
0.184543
0.184548
0.18455
0.184538
0.184602
0.18463
0.184623
0.18459
0.184614
0.184625
0.184636
0.184644
0.18472
0.18475
0.184748
0.184729
0.184759
0.184768
0.184779
0.184795
0.18487
0.184895
0.184894
0.184886
0.184927
0.184938
0.184951
0.184974
0.185043
0.185061
0.185057
0.185054
0.185092
0.185106
0.185122
0.185145
0.185204
0.185224
0.185231
0.185237
0.185271
0.185289
0.185308
0.185331
0.185373
0.185396
0.185412
0.185427
0.18545
0.18547
0.18549
0.18551
0.18552
0.185544
0.185567
0.185582
0.185576
0.18558
0.185574
0.185556
0.0238084
0.114906
0.173499
0.193719
0.201844
0.206444
0.209643
0.212087
0.214068
0.215737
0.217186
0.218427
0.219472
0.220328
0.22102
0.221558
0.221963
0.222251
0.222475
0.222632
0.222735
0.222793
0.222831
0.222848
0.222847
0.222825
0.222826
0.222819
0.222806
0.222782
0.222766
0.222745
0.222719
0.222675
0.22268
0.222677
0.222665
0.222632
0.222622
0.222607
0.222583
0.222542
0.222568
0.222582
0.222576
0.222542
0.222543
0.222535
0.222511
0.222468
0.222508
0.222532
0.222526
0.222493
0.222507
0.222509
0.222497
0.222462
0.222518
0.222551
0.222543
0.222507
0.222527
0.222536
0.22254
0.222526
0.2226
0.222636
0.22263
0.222592
0.222618
0.222632
0.222648
0.222659
0.222749
0.222788
0.222789
0.222766
0.222801
0.222813
0.222829
0.22285
0.22294
0.222972
0.222974
0.222965
0.223015
0.22303
0.223048
0.223076
0.223161
0.223184
0.223182
0.223179
0.223225
0.223243
0.223265
0.223294
0.223367
0.223393
0.223403
0.223412
0.223454
0.223477
0.223502
0.223531
0.223584
0.223613
0.223634
0.223655
0.223683
0.22371
0.223735
0.223761
0.223774
0.223804
0.223833
0.223854
0.223847
0.223852
0.223846
0.223817
0.0262518
0.130136
0.199586
0.224921
0.235626
0.24177
0.246021
0.249249
0.251849
0.254025
0.255895
0.257491
0.258831
0.259928
0.260815
0.261509
0.262035
0.262416
0.262708
0.262918
0.263061
0.263147
0.263202
0.263232
0.263238
0.26322
0.26322
0.263215
0.263202
0.263177
0.263156
0.263132
0.263104
0.263054
0.263052
0.26305
0.263037
0.263
0.262984
0.262967
0.26294
0.262893
0.262916
0.262933
0.262928
0.262891
0.262888
0.262879
0.262852
0.262803
0.262843
0.262872
0.262868
0.26283
0.262843
0.262846
0.262834
0.262794
0.262853
0.262894
0.262889
0.262846
0.262868
0.262879
0.262885
0.26287
0.262952
0.262997
0.262994
0.262949
0.262978
0.262996
0.263017
0.26303
0.263134
0.263182
0.263186
0.263159
0.263201
0.263215
0.263235
0.263261
0.263366
0.263406
0.263411
0.263401
0.263459
0.263477
0.263501
0.263534
0.263635
0.263664
0.263664
0.26366
0.263715
0.263737
0.263765
0.2638
0.263887
0.263919
0.263932
0.263944
0.263994
0.264023
0.264053
0.264089
0.264152
0.264188
0.264214
0.264239
0.264274
0.264306
0.264337
0.264369
0.264386
0.264423
0.264458
0.264483
0.264476
0.264482
0.264477
0.264436
0.0280109
0.143758
0.224781
0.256067
0.269945
0.278038
0.283634
0.287869
0.291265
0.294092
0.296505
0.298556
0.300275
0.301686
0.302826
0.303726
0.304414
0.30492
0.305305
0.305589
0.305787
0.305913
0.305994
0.306044
0.306064
0.306053
0.306054
0.306053
0.306042
0.306018
0.305992
0.305968
0.305936
0.305881
0.305874
0.305871
0.305857
0.305818
0.305796
0.305776
0.305747
0.305694
0.305714
0.305734
0.30573
0.30569
0.305682
0.305674
0.305644
0.305588
0.305627
0.305661
0.305659
0.305618
0.305629
0.305635
0.305623
0.305577
0.305639
0.305687
0.305684
0.305637
0.305658
0.305672
0.305681
0.305664
0.305754
0.305808
0.305808
0.305757
0.305789
0.305809
0.305835
0.30585
0.305966
0.306025
0.306032
0.306003
0.306049
0.306066
0.306091
0.30612
0.306239
0.306288
0.306296
0.306285
0.306352
0.306374
0.306403
0.30644
0.306556
0.306591
0.306594
0.30659
0.306652
0.306679
0.306712
0.306752
0.306852
0.30689
0.306908
0.306922
0.306979
0.307013
0.30705
0.307091
0.307164
0.307207
0.307239
0.307269
0.307309
0.307347
0.307383
0.307421
0.307442
0.307484
0.307525
0.307555
0.307548
0.307555
0.30755
0.307498
0.0289708
0.15513
0.2485
0.28673
0.304494
0.315036
0.322341
0.327861
0.332274
0.335934
0.339042
0.341677
0.343884
0.3457
0.347171
0.348339
0.34924
0.349913
0.350426
0.35081
0.351083
0.351265
0.351386
0.351466
0.351506
0.351508
0.351514
0.35152
0.351513
0.351491
0.351463
0.351438
0.351405
0.351345
0.351332
0.351328
0.351314
0.351272
0.351245
0.351224
0.351192
0.351133
0.35115
0.351172
0.351169
0.351127
0.351116
0.351107
0.351075
0.351013
0.35105
0.351089
0.351089
0.351045
0.351055
0.351062
0.35105
0.351
0.351063
0.351118
0.351118
0.351067
0.351089
0.351104
0.351116
0.351097
0.351194
0.351256
0.35126
0.351205
0.351238
0.351261
0.351291
0.351308
0.351435
0.351503
0.351516
0.351484
0.351535
0.351554
0.351584
0.351616
0.351747
0.351805
0.351818
0.351806
0.35188
0.351905
0.351939
0.351981
0.35211
0.352152
0.352158
0.352154
0.352223
0.352254
0.352292
0.352337
0.352448
0.352494
0.352517
0.352532
0.352596
0.352636
0.352678
0.352725
0.352806
0.352857
0.352894
0.352928
0.352974
0.353017
0.353058
0.353101
0.353125
0.353174
0.353219
0.353254
0.353247
0.353255
0.353251
0.353188
0.0290781
0.163581
0.270066
0.316407
0.338911
0.352504
0.361963
0.369109
0.374812
0.37953
0.38352
0.386896
0.389725
0.392058
0.393954
0.395469
0.396648
0.397541
0.398223
0.398741
0.399116
0.399375
0.399551
0.399672
0.399743
0.399765
0.399782
0.399798
0.399799
0.39978
0.399752
0.399727
0.399694
0.399631
0.399612
0.399608
0.399594
0.39955
0.399518
0.399494
0.399461
0.399397
0.39941
0.399433
0.399432
0.399388
0.399373
0.399364
0.399331
0.399263
0.399298
0.39934
0.399343
0.399297
0.399305
0.399313
0.399303
0.399248
0.399311
0.399372
0.399376
0.399323
0.399343
0.399361
0.399375
0.399356
0.399456
0.399526
0.399535
0.399477
0.399511
0.399536
0.39957
0.399589
0.399725
0.399803
0.399822
0.399789
0.399843
0.399865
0.399899
0.399934
0.400076
0.400142
0.40016
0.400148
0.400228
0.400258
0.400296
0.400343
0.400481
0.400532
0.400542
0.400538
0.400612
0.400647
0.400691
0.40074
0.400861
0.400915
0.400942
0.40096
0.401029
0.401074
0.401122
0.401174
0.401263
0.40132
0.401363
0.401401
0.401452
0.4015
0.401546
0.401594
0.401622
0.401675
0.401725
0.401765
0.401759
0.401766
0.401764
0.401691
0.0283682
0.168397
0.288624
0.344414
0.372673
0.390044
0.402196
0.411383
0.418708
0.424756
0.429854
0.434162
0.437774
0.440759
0.443194
0.445151
0.446687
0.447864
0.448768
0.44946
0.449971
0.450333
0.450585
0.450763
0.450876
0.450928
0.450963
0.450993
0.451005
0.450994
0.450968
0.450945
0.450912
0.450847
0.450824
0.450818
0.450804
0.450759
0.450723
0.450697
0.450663
0.450595
0.450603
0.450626
0.450627
0.450582
0.450565
0.450554
0.450521
0.450448
0.450479
0.450523
0.45053
0.450483
0.450489
0.450498
0.450488
0.450431
0.450493
0.450557
0.450567
0.450512
0.450532
0.450551
0.450568
0.450548
0.450651
0.450728
0.450742
0.450683
0.450717
0.450744
0.450782
0.450803
0.450946
0.451033
0.451058
0.451026
0.451082
0.451107
0.451145
0.451183
0.451332
0.451407
0.451432
0.451422
0.451505
0.451539
0.451583
0.451633
0.45178
0.451838
0.451854
0.451851
0.451928
0.451969
0.452017
0.452071
0.452199
0.45226
0.452293
0.452314
0.452388
0.452438
0.452491
0.452547
0.452643
0.452707
0.452755
0.452798
0.452853
0.452906
0.452956
0.453009
0.453041
0.453098
0.453153
0.453196
0.453192
0.453199
0.453198
0.453116
0.0269965
0.168848
0.30307
0.369802
0.405012
0.427031
0.442531
0.454265
0.463615
0.471322
0.477803
0.483272
0.487858
0.491659
0.494769
0.497281
0.499268
0.500808
0.501997
0.502914
0.503601
0.5041
0.504453
0.504708
0.504878
0.504972
0.505034
0.505084
0.505112
0.505112
0.505092
0.505072
0.505042
0.504977
0.504949
0.504942
0.504929
0.504884
0.504844
0.504816
0.50478
0.504709
0.504711
0.504734
0.504737
0.504692
0.504672
0.504659
0.504627
0.504551
0.504576
0.504621
0.504631
0.504585
0.504589
0.504598
0.50459
0.504531
0.50459
0.504657
0.504672
0.504618
0.504636
0.504656
0.504676
0.504656
0.50476
0.504842
0.504863
0.504806
0.504838
0.504866
0.504908
0.504932
0.505079
0.505174
0.505207
0.505178
0.505235
0.505263
0.505305
0.505345
0.5055
0.505584
0.505616
0.505608
0.505694
0.505733
0.505781
0.505835
0.505988
0.506055
0.506076
0.506076
0.506155
0.5062
0.506253
0.506311
0.506446
0.506514
0.506553
0.506578
0.506655
0.50671
0.506768
0.506829
0.50693
0.507
0.507054
0.507101
0.507161
0.507218
0.507273
0.50733
0.507365
0.507425
0.507485
0.507532
0.507531
0.507538
0.507538
0.507447
0.0252635
0.164255
0.312022
0.391277
0.434834
0.462542
0.482183
0.49708
0.508947
0.518715
0.52691
0.533818
0.539611
0.544421
0.548368
0.551571
0.554123
0.556119
0.557672
0.558877
0.559791
0.560466
0.560953
0.561311
0.561558
0.561708
0.561809
0.561888
0.561938
0.561955
0.561944
0.56193
0.561904
0.561841
0.56181
0.561801
0.561789
0.561744
0.561702
0.561671
0.561634
0.561561
0.561557
0.561578
0.561583
0.56154
0.561517
0.561503
0.56147
0.561392
0.561412
0.561455
0.561469
0.561425
0.561427
0.561435
0.561429
0.561369
0.561424
0.561493
0.561513
0.561462
0.561477
0.561497
0.56152
0.561502
0.561604
0.561691
0.56172
0.561665
0.561695
0.561725
0.56177
0.561797
0.561945
0.562049
0.56209
0.562065
0.562122
0.562153
0.562199
0.562243
0.562399
0.562492
0.562532
0.562529
0.562615
0.56266
0.562713
0.56277
0.562926
0.563002
0.563031
0.563033
0.563114
0.563163
0.563221
0.563283
0.563421
0.563498
0.563543
0.563572
0.563651
0.563711
0.563774
0.563839
0.563945
0.564021
0.564081
0.564133
0.564196
0.564258
0.564317
0.564377
0.564417
0.56448
0.564543
0.564594
0.564597
0.564603
0.564605
0.564508
0.0236225
0.154126
0.313831
0.40713
0.460627
0.495265
0.520007
0.538824
0.553812
0.566135
0.576452
0.585135
0.592417
0.598471
0.603452
0.60751
0.610764
0.613332
0.615343
0.616915
0.618119
0.619022
0.619684
0.620176
0.620526
0.620753
0.620907
0.621026
0.621107
0.621145
0.621149
0.621145
0.621127
0.621068
0.621035
0.621025
0.621013
0.62097
0.620926
0.620893
0.620855
0.620781
0.62077
0.620788
0.620795
0.620754
0.620728
0.620712
0.62068
0.620602
0.620614
0.620655
0.620673
0.620632
0.620631
0.620638
0.620634
0.620576
0.620624
0.620693
0.620719
0.620672
0.620685
0.620705
0.62073
0.620714
0.620812
0.620903
0.620939
0.62089
0.620918
0.620948
0.620996
0.621026
0.621173
0.621283
0.621334
0.621316
0.621372
0.621407
0.621455
0.621502
0.621659
0.62176
0.621809
0.621811
0.621898
0.621947
0.622005
0.622066
0.622223
0.622308
0.622344
0.622351
0.622432
0.622486
0.622548
0.622613
0.622753
0.622838
0.622891
0.622924
0.623006
0.62307
0.623138
0.623207
0.623315
0.623398
0.623464
0.62352
0.623587
0.623653
0.623716
0.62378
0.623824
0.623889
0.623955
0.624011
0.624018
0.624023
0.624028
0.623926
0.0226512
0.138362
0.306656
0.415179
0.480378
0.523399
0.554401
0.578064
0.596924
0.612412
0.625356
0.636233
0.64535
0.652936
0.659192
0.664306
0.668433
0.671716
0.674305
0.676341
0.677918
0.679114
0.680006
0.680673
0.681159
0.681489
0.681717
0.68189
0.682012
0.682082
0.682107
0.682117
0.682109
0.682059
0.682026
0.682014
0.682004
0.681964
0.681919
0.681884
0.681846
0.681771
0.681754
0.681767
0.681774
0.681737
0.681709
0.681691
0.68166
0.681582
0.681586
0.681624
0.681644
0.681607
0.681604
0.68161
0.681607
0.681552
0.681592
0.681659
0.681691
0.68165
0.68166
0.681679
0.681706
0.681694
0.681787
0.681879
0.681923
0.681882
0.681907
0.681937
0.681988
0.682021
0.682164
0.68228
0.682341
0.682331
0.682387
0.682424
0.682476
0.682526
0.68268
0.682788
0.682847
0.682857
0.682942
0.682997
0.683059
0.683123
0.683279
0.683372
0.683418
0.683431
0.683511
0.683569
0.683635
0.683704
0.683844
0.683936
0.683997
0.684036
0.684118
0.684187
0.684259
0.684332
0.684443
0.684531
0.684603
0.684665
0.684735
0.684804
0.684871
0.684939
0.684987
0.685054
0.685123
0.685182
0.685195
0.685201
0.685207
0.685103
0.0229614
0.117523
0.288687
0.412749
0.49146
0.544534
0.583179
0.61282
0.63648
0.655897
0.672099
0.685692
0.697078
0.706559
0.714393
0.720819
0.726034
0.730215
0.733538
0.736168
0.738222
0.7398
0.740992
0.741892
0.742557
0.743026
0.743356
0.743603
0.743781
0.743893
0.743949
0.74398
0.743988
0.743949
0.743919
0.743908
0.7439
0.743863
0.743819
0.743781
0.743743
0.74367
0.743645
0.743653
0.74366
0.743626
0.743598
0.743577
0.743547
0.743472
0.743467
0.743498
0.74352
0.743489
0.743484
0.743487
0.743487
0.743435
0.743468
0.743531
0.743566
0.743534
0.743542
0.743559
0.743588
0.74358
0.743666
0.743757
0.743808
0.743778
0.743801
0.74383
0.743882
0.743919
0.744056
0.744176
0.744247
0.744248
0.744303
0.744343
0.744398
0.744451
0.7446
0.744714
0.744783
0.744802
0.744886
0.744944
0.745011
0.745079
0.745232
0.745332
0.745388
0.745408
0.745487
0.745549
0.745619
0.745691
0.745829
0.745928
0.745997
0.746043
0.746126
0.746198
0.746274
0.746352
0.746463
0.746557
0.746635
0.746701
0.746775
0.746847
0.746918
0.74699
0.747042
0.747111
0.747182
0.747244
0.747264
0.747271
0.747279
0.747176
0.0249748
0.0931546
0.258572
0.396752
0.49055
0.555508
0.603405
0.640391
0.669996
0.694298
0.714554
0.731527
0.745736
0.757574
0.767379
0.77545
0.78204
0.787365
0.79163
0.795029
0.797708
0.799788
0.801379
0.80259
0.803498
0.804155
0.804625
0.804975
0.80523
0.805401
0.805501
0.805561
0.805591
0.805571
0.805548
0.805539
0.805534
0.805502
0.80546
0.805421
0.805383
0.805313
0.805281
0.805282
0.805288
0.805258
0.805229
0.805205
0.805176
0.805105
0.805092
0.805116
0.805137
0.805112
0.805106
0.805107
0.805107
0.805061
0.805086
0.805142
0.805181
0.805157
0.805164
0.805179
0.805208
0.805205
0.805283
0.805372
0.80543
0.805411
0.805433
0.805462
0.805514
0.805554
0.805683
0.805804
0.805885
0.805898
0.805954
0.805996
0.806054
0.80611
0.806252
0.80637
0.806449
0.806478
0.806561
0.806624
0.806695
0.806766
0.806913
0.80702
0.807086
0.807116
0.807193
0.807258
0.807332
0.807407
0.807541
0.807646
0.807723
0.807776
0.80786
0.807936
0.808016
0.808097
0.808208
0.808306
0.80839
0.808463
0.808539
0.808615
0.808689
0.808764
0.808822
0.808892
0.808965
0.80903
0.809057
0.809066
0.809076
0.808978
0.0284517
0.0680364
0.216217
0.364016
0.473609
0.552271
0.611217
0.657152
0.694094
0.724471
0.749784
0.770984
0.78873
0.803536
0.815836
0.82601
0.834371
0.841185
0.846692
0.851113
0.854628
0.857386
0.859519
0.861157
0.862399
0.863316
0.863983
0.864478
0.864842
0.865096
0.865258
0.865362
0.865424
0.86543
0.865421
0.865417
0.865416
0.865391
0.865352
0.865313
0.865275
0.865209
0.865172
0.865164
0.865167
0.865141
0.865113
0.865087
0.865058
0.864993
0.864972
0.864986
0.865006
0.864987
0.86498
0.864978
0.864979
0.86494
0.864956
0.865004
0.865044
0.86503
0.865037
0.86505
0.865079
0.865081
0.86515
0.865234
0.865297
0.865291
0.865314
0.865341
0.865393
0.865436
0.865555
0.865675
0.865764
0.865791
0.865848
0.865894
0.865954
0.866012
0.866146
0.866265
0.866353
0.866395
0.866477
0.866544
0.866619
0.866693
0.866833
0.866945
0.867021
0.867061
0.867138
0.867206
0.867283
0.867361
0.86749
0.867599
0.867684
0.867745
0.86783
0.867909
0.867993
0.868076
0.868187
0.868288
0.868378
0.868456
0.868536
0.868615
0.868692
0.86877
0.868833
0.868904
0.868979
0.869047
0.869082
0.869095
0.869107
0.869017
0.0321743
0.0460498
0.164037
0.312143
0.436097
0.529816
0.601648
0.658328
0.704243
0.742146
0.773769
0.800271
0.822488
0.841081
0.856606
0.869533
0.880248
0.889067
0.896264
0.902092
0.906768
0.910473
0.913369
0.915611
0.917327
0.918614
0.919565
0.92027
0.920792
0.921166
0.921418
0.921586
0.921695
0.921739
0.921753
0.92176
0.921767
0.92175
0.921718
0.92168
0.921644
0.921583
0.921542
0.921525
0.921524
0.9215
0.921474
0.921445
0.921417
0.921358
0.921332
0.921335
0.921351
0.921337
0.92133
0.921325
0.921327
0.921294
0.921304
0.921342
0.921381
0.921376
0.921384
0.921395
0.921423
0.92143
0.92149
0.921567
0.921633
0.921641
0.921666
0.921692
0.921743
0.921787
0.921896
0.922012
0.922107
0.922149
0.922209
0.922258
0.92232
0.922381
0.922505
0.922623
0.922719
0.922774
0.922856
0.922927
0.923005
0.923083
0.923214
0.923329
0.923415
0.923467
0.923544
0.923614
0.923694
0.923774
0.923897
0.924009
0.924102
0.924171
0.924257
0.92434
0.924426
0.924513
0.924621
0.924725
0.92482
0.924903
0.924987
0.925069
0.925149
0.92523
0.925298
0.925371
0.925447
0.925517
0.92556
0.925579
0.925593
0.925516
0.0348132
0.0310549
0.108539
0.241419
0.373808
0.48236
0.568543
0.637785
0.694483
0.741611
0.781063
0.814221
0.84213
0.865635
0.885435
0.902095
0.916064
0.927697
0.937299
0.945152
0.951509
0.956592
0.960602
0.963731
0.966146
0.96798
0.96935
0.970371
0.971131
0.971682
0.972069
0.972334
0.972514
0.972614
0.972665
0.972693
0.972712
0.972707
0.972685
0.972651
0.972618
0.972564
0.97252
0.972495
0.972487
0.972465
0.97244
0.97241
0.972383
0.972331
0.9723
0.972293
0.972303
0.972292
0.972286
0.972279
0.97228
0.972255
0.972258
0.972286
0.972322
0.972326
0.972336
0.972346
0.972372
0.972383
0.972434
0.972503
0.972569
0.97259
0.972618
0.972646
0.972695
0.972741
0.972838
0.972946
0.973045
0.973101
0.973165
0.973218
0.973284
0.973347
0.97346
0.973575
0.973677
0.973744
0.973828
0.973902
0.973984
0.974064
0.974187
0.974302
0.974397
0.974461
0.974539
0.974614
0.974696
0.974778
0.974894
0.975006
0.975105
0.975183
0.975271
0.975356
0.975446
0.975535
0.975641
0.975746
0.975845
0.975933
0.976021
0.976106
0.97619
0.976273
0.976346
0.976421
0.976498
0.976571
0.976622
0.976648
0.976665
0.976603
0.0361041
0.0251937
0.0610404
0.158499
0.285276
0.404314
0.504824
0.58799
0.657224
0.715403
0.764448
0.80592
0.841129
0.871144
0.896806
0.918744
0.937424
0.953204
0.966392
0.977286
0.986181
0.99335
0.999051
1.00353
1.00701
1.00967
1.01168
1.01319
1.01431
1.01513
1.01573
1.01614
1.01643
1.01661
1.01672
1.01679
1.01683
1.01684
1.01683
1.01681
1.01678
1.01673
1.01669
1.01666
1.01664
1.01662
1.0166
1.01657
1.01654
1.01649
1.01646
1.01645
1.01645
1.01644
1.01643
1.01642
1.01642
1.01641
1.01641
1.01642
1.01645
1.01646
1.01648
1.01649
1.01651
1.01653
1.01657
1.01663
1.01669
1.01672
1.01676
1.01679
1.01684
1.01688
1.01697
1.01707
1.01717
1.01723
1.0173
1.01736
1.01743
1.0175
1.0176
1.01771
1.01781
1.01789
1.01798
1.01806
1.01814
1.01822
1.01834
1.01845
1.01855
1.01863
1.01871
1.01879
1.01887
1.01896
1.01907
1.01918
1.01928
1.01937
1.01946
1.01955
1.01964
1.01973
1.01983
1.01994
1.02004
1.02013
1.02022
1.02031
1.0204
1.02048
1.02056
1.02064
1.02072
1.02079