/*--------------------------------*- C++ -*----------------------------------*\
  =========                 |
  \\      /  F ield         | OpenFOAM: The Open Source CFD Toolbox
   \\    /   O peration     | Website:  https://openfoam.org
    \\  /    A nd           | Version:  8
     \\/     M anipulation  |
\*---------------------------------------------------------------------------*/
FoamFile
{
    version     2.0;
    format      ascii;
    class       volScalarField;
    location    "50";
    object      p;
}
// * * * * * * * * * * * * * * * * * * * * * * * * * * * * * * * * * * * * * //

dimensions      [0 2 -2 0 0 0 0];

internalField   nonuniform List<scalar> 
7320
(
7582.49
7522.61
7409.65
7311.4
7241.66
7179.54
7121.27
7065.34
7011.4
6958.95
6907.49
6856.78
6806.21
6755.28
6703.39
6650.51
6596.32
6540.83
6483.71
6425.47
6366.1
6305.98
6245.2
6184.41
6123.52
6062.61
6001.26
5939.95
5878.43
5816.81
5754.78
5692.87
5630.82
5568.81
5506.4
5444.23
5382.05
5319.93
5257.49
5195.22
5132.86
5070.54
5007.84
4945.34
4882.83
4820.4
4757.66
4695.05
4632.35
4569.71
4506.75
4443.92
4381.09
4318.32
4255.31
4192.36
4129.35
4066.39
4003.21
3940.06
3876.95
3813.89
3750.67
3687.44
3624.19
3560.98
3497.66
3434.31
3371.03
3307.78
3244.46
3181.09
3117.73
3054.41
2991.05
2927.62
2864.28
2800.97
2737.64
2674.23
2610.88
2547.55
2484.24
2420.86
2357.58
2294.32
2231.06
2167.74
2104.49
2041.26
1978.07
1914.82
1851.66
1788.52
1725.39
1662.2
1599.08
1535.98
1472.95
1409.85
1346.84
1283.83
1220.88
1157.86
1094.89
1031.95
969.114
906.204
843.367
780.53
717.808
655.021
592.31
529.626
467.089
404.558
342.121
279.756
217.474
155.401
93.3087
31.3393
7581.7
7522.64
7409.67
7311.41
7241.66
7179.54
7121.27
7065.34
7011.4
6958.95
6907.49
6856.78
6806.21
6755.28
6703.39
6650.51
6596.32
6540.83
6483.71
6425.47
6366.1
6305.98
6245.2
6184.41
6123.52
6062.61
6001.26
5939.95
5878.43
5816.81
5754.78
5692.87
5630.82
5568.81
5506.4
5444.23
5382.05
5319.93
5257.49
5195.22
5132.86
5070.54
5007.84
4945.34
4882.83
4820.4
4757.66
4695.05
4632.35
4569.71
4506.75
4443.92
4381.09
4318.32
4255.31
4192.36
4129.35
4066.39
4003.21
3940.06
3876.95
3813.89
3750.67
3687.44
3624.19
3560.98
3497.66
3434.31
3371.03
3307.78
3244.46
3181.09
3117.73
3054.41
2991.05
2927.62
2864.28
2800.97
2737.64
2674.23
2610.88
2547.55
2484.24
2420.86
2357.58
2294.32
2231.06
2167.74
2104.49
2041.26
1978.07
1914.82
1851.66
1788.52
1725.39
1662.2
1599.08
1535.98
1472.95
1409.85
1346.84
1283.83
1220.88
1157.86
1094.89
1031.95
969.114
906.204
843.367
780.531
717.808
655.021
592.31
529.626
467.089
404.558
342.121
279.757
217.475
155.402
93.3089
31.3394
7581.52
7522.76
7409.73
7311.42
7241.66
7179.54
7121.27
7065.34
7011.4
6958.95
6907.49
6856.78
6806.21
6755.28
6703.39
6650.51
6596.32
6540.83
6483.71
6425.47
6366.1
6305.98
6245.2
6184.41
6123.52
6062.61
6001.26
5939.95
5878.43
5816.81
5754.78
5692.87
5630.82
5568.81
5506.4
5444.23
5382.05
5319.93
5257.49
5195.22
5132.86
5070.54
5007.84
4945.34
4882.83
4820.39
4757.66
4695.05
4632.35
4569.71
4506.75
4443.92
4381.09
4318.32
4255.31
4192.36
4129.35
4066.39
4003.21
3940.06
3876.95
3813.89
3750.67
3687.44
3624.19
3560.98
3497.66
3434.31
3371.03
3307.78
3244.46
3181.09
3117.73
3054.41
2991.05
2927.62
2864.28
2800.97
2737.64
2674.23
2610.88
2547.55
2484.24
2420.86
2357.58
2294.32
2231.06
2167.74
2104.49
2041.26
1978.07
1914.82
1851.66
1788.52
1725.39
1662.2
1599.08
1535.98
1472.95
1409.85
1346.84
1283.83
1220.88
1157.86
1094.89
1031.95
969.114
906.204
843.367
780.531
717.808
655.022
592.311
529.627
467.089
404.559
342.122
279.758
217.476
155.403
93.3096
31.3399
7581.6
7522.92
7409.81
7311.44
7241.67
7179.55
7121.27
7065.34
7011.4
6958.95
6907.49
6856.78
6806.21
6755.28
6703.39
6650.51
6596.32
6540.83
6483.71
6425.46
6366.1
6305.98
6245.2
6184.41
6123.52
6062.61
6001.26
5939.95
5878.43
5816.81
5754.78
5692.87
5630.82
5568.81
5506.4
5444.23
5382.05
5319.93
5257.49
5195.22
5132.86
5070.54
5007.84
4945.34
4882.83
4820.39
4757.66
4695.05
4632.35
4569.71
4506.75
4443.92
4381.09
4318.32
4255.31
4192.36
4129.35
4066.39
4003.21
3940.06
3876.95
3813.89
3750.67
3687.44
3624.19
3560.98
3497.66
3434.31
3371.03
3307.78
3244.46
3181.09
3117.73
3054.41
2991.05
2927.62
2864.28
2800.97
2737.64
2674.23
2610.88
2547.55
2484.24
2420.86
2357.58
2294.33
2231.06
2167.74
2104.49
2041.26
1978.07
1914.82
1851.66
1788.52
1725.39
1662.2
1599.08
1535.98
1472.95
1409.85
1346.84
1283.83
1220.88
1157.86
1094.89
1031.95
969.114
906.205
843.368
780.532
717.809
655.023
592.312
529.629
467.091
404.561
342.124
279.76
217.478
155.405
93.3111
31.3407
7581.68
7523.13
7409.92
7311.46
7241.67
7179.55
7121.28
7065.34
7011.4
6958.95
6907.49
6856.78
6806.21
6755.28
6703.39
6650.51
6596.32
6540.83
6483.71
6425.46
6366.1
6305.98
6245.2
6184.41
6123.52
6062.61
6001.26
5939.95
5878.43
5816.81
5754.78
5692.87
5630.82
5568.81
5506.4
5444.23
5382.05
5319.93
5257.49
5195.22
5132.85
5070.54
5007.84
4945.34
4882.83
4820.39
4757.66
4695.05
4632.35
4569.71
4506.75
4443.91
4381.09
4318.32
4255.31
4192.36
4129.35
4066.39
4003.21
3940.06
3876.95
3813.89
3750.67
3687.44
3624.19
3560.98
3497.66
3434.31
3371.03
3307.78
3244.46
3181.09
3117.73
3054.41
2991.05
2927.62
2864.28
2800.97
2737.64
2674.23
2610.88
2547.55
2484.24
2420.86
2357.59
2294.33
2231.06
2167.74
2104.49
2041.26
1978.07
1914.82
1851.66
1788.52
1725.39
1662.2
1599.08
1535.98
1472.95
1409.85
1346.84
1283.84
1220.88
1157.86
1094.9
1031.95
969.114
906.205
843.369
780.535
717.809
655.024
592.314
529.631
467.092
404.563
342.126
279.763
217.482
155.409
93.3135
31.342
7581.74
7523.37
7410.05
7311.49
7241.68
7179.55
7121.28
7065.35
7011.4
6958.95
6907.49
6856.78
6806.21
6755.28
6703.39
6650.51
6596.32
6540.82
6483.71
6425.46
6366.1
6305.98
6245.2
6184.41
6123.52
6062.61
6001.26
5939.95
5878.43
5816.81
5754.78
5692.86
5630.82
5568.81
5506.41
5444.23
5382.04
5319.93
5257.49
5195.22
5132.85
5070.54
5007.84
4945.34
4882.83
4820.39
4757.66
4695.04
4632.35
4569.71
4506.75
4443.91
4381.09
4318.32
4255.31
4192.36
4129.35
4066.39
4003.21
3940.06
3876.95
3813.89
3750.66
3687.44
3624.19
3560.98
3497.66
3434.31
3371.03
3307.78
3244.46
3181.09
3117.73
3054.41
2991.05
2927.62
2864.28
2800.98
2737.64
2674.23
2610.88
2547.56
2484.24
2420.86
2357.59
2294.33
2231.06
2167.74
2104.49
2041.26
1978.07
1914.82
1851.66
1788.52
1725.39
1662.2
1599.08
1535.99
1472.95
1409.85
1346.84
1283.84
1220.88
1157.86
1094.9
1031.96
969.114
906.206
843.371
780.537
717.81
655.026
592.317
529.636
467.095
404.567
342.13
279.768
217.488
155.415
93.3167
31.3438
7581.8
7523.65
7410.21
7311.53
7241.7
7179.56
7121.28
7065.35
7011.4
6958.95
6907.49
6856.77
6806.21
6755.28
6703.39
6650.51
6596.32
6540.82
6483.71
6425.46
6366.09
6305.98
6245.2
6184.41
6123.51
6062.61
6001.26
5939.94
5878.43
5816.8
5754.78
5692.86
5630.82
5568.81
5506.41
5444.23
5382.04
5319.93
5257.49
5195.22
5132.85
5070.54
5007.84
4945.34
4882.83
4820.39
4757.66
4695.04
4632.35
4569.71
4506.75
4443.91
4381.08
4318.32
4255.31
4192.36
4129.35
4066.39
4003.2
3940.06
3876.95
3813.89
3750.66
3687.44
3624.19
3560.98
3497.66
3434.31
3371.02
3307.78
3244.46
3181.09
3117.73
3054.41
2991.05
2927.62
2864.28
2800.98
2737.64
2674.23
2610.88
2547.56
2484.24
2420.86
2357.59
2294.33
2231.06
2167.74
2104.49
2041.26
1978.07
1914.82
1851.67
1788.52
1725.39
1662.2
1599.08
1535.99
1472.95
1409.85
1346.84
1283.84
1220.88
1157.86
1094.9
1031.96
969.114
906.208
843.373
780.541
717.812
655.029
592.321
529.641
467.098
404.572
342.136
279.775
217.495
155.423
93.3211
31.3462
7581.87
7523.97
7410.39
7311.57
7241.71
7179.57
7121.29
7065.35
7011.4
6958.95
6907.49
6856.77
6806.2
6755.28
6703.39
6650.5
6596.32
6540.82
6483.71
6425.46
6366.09
6305.97
6245.2
6184.41
6123.51
6062.6
6001.26
5939.94
5878.42
5816.8
5754.78
5692.86
5630.81
5568.8
5506.41
5444.23
5382.04
5319.92
5257.49
5195.22
5132.85
5070.53
5007.84
4945.34
4882.83
4820.39
4757.65
4695.04
4632.35
4569.71
4506.75
4443.91
4381.08
4318.32
4255.31
4192.36
4129.35
4066.39
4003.2
3940.05
3876.94
3813.88
3750.66
3687.44
3624.19
3560.98
3497.66
3434.31
3371.02
3307.78
3244.46
3181.09
3117.73
3054.41
2991.04
2927.62
2864.28
2800.98
2737.64
2674.23
2610.88
2547.56
2484.24
2420.86
2357.59
2294.33
2231.06
2167.74
2104.49
2041.27
1978.07
1914.82
1851.67
1788.53
1725.39
1662.2
1599.09
1535.99
1472.95
1409.85
1346.85
1283.84
1220.88
1157.86
1094.9
1031.96
969.114
906.209
843.376
780.546
717.814
655.033
592.326
529.648
467.103
404.578
342.142
279.783
217.504
155.432
93.3263
31.3487
7581.93
7524.3
7410.59
7311.62
7241.73
7179.57
7121.3
7065.36
7011.41
6958.95
6907.49
6856.77
6806.2
6755.28
6703.39
6650.5
6596.32
6540.82
6483.71
6425.46
6366.09
6305.97
6245.2
6184.4
6123.51
6062.6
6001.26
5939.94
5878.42
5816.8
5754.78
5692.86
5630.81
5568.8
5506.41
5444.23
5382.04
5319.92
5257.49
5195.22
5132.85
5070.53
5007.84
4945.33
4882.82
4820.38
4757.65
4695.04
4632.34
4569.71
4506.75
4443.91
4381.08
4318.31
4255.31
4192.36
4129.35
4066.39
4003.2
3940.05
3876.94
3813.88
3750.66
3687.44
3624.19
3560.98
3497.66
3434.3
3371.02
3307.78
3244.46
3181.09
3117.73
3054.41
2991.04
2927.62
2864.28
2800.98
2737.64
2674.23
2610.88
2547.56
2484.24
2420.86
2357.59
2294.33
2231.06
2167.74
2104.49
2041.27
1978.07
1914.82
1851.67
1788.53
1725.39
1662.21
1599.09
1536
1472.95
1409.85
1346.85
1283.85
1220.88
1157.86
1094.9
1031.97
969.115
906.211
843.379
780.552
717.816
655.038
592.331
529.655
467.108
404.585
342.15
279.792
217.514
155.443
93.3325
31.3516
7581.97
7524.63
7410.81
7311.68
7241.75
7179.58
7121.3
7065.36
7011.41
6958.95
6907.49
6856.77
6806.2
6755.27
6703.39
6650.5
6596.31
6540.82
6483.71
6425.46
6366.09
6305.97
6245.2
6184.4
6123.51
6062.6
6001.26
5939.94
5878.42
5816.8
5754.78
5692.86
5630.81
5568.8
5506.41
5444.23
5382.04
5319.92
5257.49
5195.21
5132.84
5070.53
5007.84
4945.33
4882.82
4820.38
4757.65
4695.04
4632.34
4569.7
4506.75
4443.91
4381.08
4318.31
4255.31
4192.35
4129.34
4066.39
4003.2
3940.05
3876.94
3813.88
3750.66
3687.43
3624.19
3560.99
3497.65
3434.3
3371.02
3307.79
3244.46
3181.09
3117.73
3054.42
2991.04
2927.62
2864.28
2800.98
2737.63
2674.23
2610.88
2547.57
2484.24
2420.86
2357.59
2294.34
2231.06
2167.74
2104.5
2041.27
1978.07
1914.82
1851.67
1788.53
1725.39
1662.21
1599.09
1536
1472.95
1409.85
1346.85
1283.85
1220.88
1157.86
1094.91
1031.97
969.115
906.213
843.382
780.558
717.818
655.043
592.337
529.664
467.113
404.593
342.158
279.802
217.526
155.455
93.3392
31.3544
7581.98
7524.96
7411.04
7311.75
7241.77
7179.59
7121.31
7065.36
7011.41
6958.95
6907.49
6856.77
6806.2
6755.27
6703.39
6650.5
6596.31
6540.81
6483.71
6425.46
6366.09
6305.97
6245.2
6184.4
6123.51
6062.6
6001.26
5939.94
5878.42
5816.79
5754.78
5692.86
5630.8
5568.79
5506.41
5444.23
5382.03
5319.91
5257.49
5195.21
5132.84
5070.52
5007.84
4945.33
4882.82
4820.38
4757.65
4695.03
4632.34
4569.7
4506.75
4443.9
4381.07
4318.31
4255.31
4192.35
4129.34
4066.39
4003.2
3940.05
3876.94
3813.88
3750.66
3687.43
3624.19
3560.99
3497.65
3434.3
3371.02
3307.79
3244.46
3181.08
3117.73
3054.42
2991.04
2927.62
2864.28
2800.98
2737.63
2674.23
2610.88
2547.57
2484.24
2420.86
2357.59
2294.34
2231.06
2167.75
2104.5
2041.28
1978.07
1914.82
1851.67
1788.53
1725.39
1662.21
1599.09
1536.01
1472.95
1409.85
1346.85
1283.86
1220.88
1157.87
1094.91
1031.98
969.116
906.216
843.386
780.565
717.821
655.048
592.344
529.674
467.12
404.602
342.168
279.814
217.539
155.468
93.3468
31.3571
7581.96
7525.26
7411.28
7311.83
7241.8
7179.61
7121.32
7065.37
7011.41
6958.95
6907.49
6856.77
6806.2
6755.27
6703.39
6650.5
6596.31
6540.81
6483.71
6425.46
6366.08
6305.96
6245.2
6184.4
6123.5
6062.59
6001.26
5939.94
5878.42
5816.79
5754.78
5692.85
5630.8
5568.79
5506.41
5444.22
5382.03
5319.91
5257.49
5195.21
5132.84
5070.52
5007.84
4945.33
4882.81
4820.37
4757.65
4695.03
4632.33
4569.7
4506.75
4443.9
4381.07
4318.31
4255.3
4192.35
4129.34
4066.38
4003.2
3940.04
3876.94
3813.88
3750.66
3687.43
3624.18
3560.99
3497.65
3434.3
3371.02
3307.79
3244.46
3181.08
3117.73
3054.42
2991.04
2927.62
2864.29
2800.98
2737.63
2674.23
2610.89
2547.57
2484.24
2420.86
2357.59
2294.34
2231.06
2167.75
2104.5
2041.28
1978.07
1914.82
1851.67
1788.54
1725.39
1662.21
1599.1
1536.01
1472.95
1409.86
1346.85
1283.86
1220.88
1157.87
1094.92
1031.99
969.117
906.219
843.39
780.572
717.825
655.054
592.351
529.684
467.127
404.611
342.178
279.826
217.553
155.481
93.3547
31.3592
7581.89
7525.52
7411.53
7311.92
7241.84
7179.62
7121.33
7065.38
7011.41
6958.95
6907.49
6856.77
6806.19
6755.26
6703.39
6650.49
6596.31
6540.8
6483.71
6425.46
6366.08
6305.96
6245.2
6184.4
6123.5
6062.59
6001.27
5939.94
5878.41
5816.79
5754.78
5692.85
5630.8
5568.78
5506.41
5444.22
5382.03
5319.9
5257.49
5195.21
5132.83
5070.51
5007.84
4945.33
4882.81
4820.37
4757.65
4695.03
4632.33
4569.69
4506.75
4443.9
4381.07
4318.3
4255.3
4192.35
4129.34
4066.38
4003.2
3940.04
3876.93
3813.88
3750.66
3687.43
3624.18
3560.99
3497.65
3434.3
3371.02
3307.79
3244.45
3181.08
3117.73
3054.42
2991.04
2927.61
2864.29
2800.99
2737.63
2674.23
2610.89
2547.58
2484.24
2420.86
2357.59
2294.34
2231.06
2167.75
2104.5
2041.29
1978.07
1914.82
1851.67
1788.54
1725.39
1662.21
1599.1
1536.02
1472.95
1409.86
1346.86
1283.86
1220.88
1157.87
1094.92
1031.99
969.118
906.221
843.395
780.579
717.828
655.06
592.359
529.694
467.134
404.621
342.188
279.838
217.567
155.496
93.3634
31.3611
7581.76
7525.73
7411.8
7312.04
7241.88
7179.64
7121.34
7065.38
7011.42
6958.95
6907.5
6856.77
6806.19
6755.26
6703.39
6650.49
6596.3
6540.8
6483.71
6425.45
6366.08
6305.96
6245.2
6184.39
6123.5
6062.59
6001.27
5939.94
5878.41
5816.78
5754.78
5692.85
5630.8
5568.78
5506.41
5444.22
5382.02
5319.9
5257.49
5195.2
5132.83
5070.51
5007.84
4945.32
4882.81
4820.36
4757.65
4695.02
4632.33
4569.69
4506.74
4443.89
4381.07
4318.3
4255.3
4192.34
4129.33
4066.38
4003.19
3940.04
3876.93
3813.88
3750.65
3687.43
3624.18
3560.99
3497.65
3434.3
3371.02
3307.79
3244.45
3181.08
3117.73
3054.43
2991.04
2927.61
2864.29
2800.99
2737.63
2674.24
2610.89
2547.58
2484.24
2420.86
2357.59
2294.35
2231.07
2167.75
2104.51
2041.29
1978.07
1914.82
1851.67
1788.55
1725.39
1662.21
1599.1
1536.02
1472.95
1409.86
1346.86
1283.87
1220.88
1157.87
1094.92
1032
969.12
906.224
843.399
780.587
717.832
655.066
592.367
529.705
467.142
404.631
342.199
279.851
217.582
155.51
93.3724
31.3618
7581.56
7525.88
7412.09
7312.18
7241.94
7179.67
7121.36
7065.39
7011.42
6958.95
6907.5
6856.77
6806.19
6755.25
6703.39
6650.49
6596.3
6540.79
6483.71
6425.45
6366.08
6305.95
6245.2
6184.39
6123.5
6062.58
6001.27
5939.93
5878.41
5816.78
5754.78
5692.85
5630.79
5568.77
5506.41
5444.22
5382.02
5319.89
5257.49
5195.2
5132.82
5070.5
5007.84
4945.32
4882.81
4820.36
4757.65
4695.02
4632.32
4569.68
4506.74
4443.89
4381.06
4318.3
4255.3
4192.34
4129.33
4066.38
4003.19
3940.04
3876.93
3813.88
3750.65
3687.43
3624.18
3560.99
3497.64
3434.29
3371.02
3307.79
3244.45
3181.08
3117.73
3054.43
2991.04
2927.61
2864.29
2800.99
2737.63
2674.24
2610.89
2547.59
2484.24
2420.86
2357.59
2294.35
2231.07
2167.75
2104.51
2041.3
1978.07
1914.82
1851.68
1788.55
1725.39
1662.21
1599.1
1536.03
1472.95
1409.86
1346.86
1283.87
1220.89
1157.88
1094.93
1032.01
969.122
906.228
843.404
780.594
717.836
655.073
592.375
529.715
467.151
404.642
342.21
279.863
217.598
155.525
93.3821
31.3618
7581.26
7525.95
7412.4
7312.36
7242.03
7179.71
7121.38
7065.41
7011.43
6958.95
6907.5
6856.76
6806.19
6755.25
6703.38
6650.48
6596.29
6540.79
6483.71
6425.45
6366.07
6305.95
6245.2
6184.39
6123.49
6062.58
6001.27
5939.93
5878.41
5816.77
5754.78
5692.84
5630.79
5568.77
5506.41
5444.21
5382.02
5319.89
5257.49
5195.2
5132.82
5070.5
5007.84
4945.32
4882.8
4820.35
4757.65
4695.02
4632.32
4569.68
4506.74
4443.89
4381.06
4318.29
4255.3
4192.34
4129.33
4066.38
4003.19
3940.04
3876.93
3813.87
3750.65
3687.42
3624.18
3560.99
3497.64
3434.29
3371.02
3307.79
3244.45
3181.08
3117.73
3054.43
2991.03
2927.61
2864.29
2800.99
2737.63
2674.24
2610.89
2547.59
2484.24
2420.86
2357.59
2294.35
2231.07
2167.75
2104.51
2041.3
1978.07
1914.82
1851.68
1788.55
1725.39
1662.22
1599.11
1536.03
1472.95
1409.86
1346.86
1283.88
1220.89
1157.88
1094.93
1032.01
969.124
906.231
843.409
780.601
717.841
655.079
592.383
529.726
467.159
404.652
342.221
279.876
217.613
155.54
93.3922
31.3601
7580.86
7525.92
7412.73
7312.59
7242.13
7179.77
7121.42
7065.42
7011.44
6958.96
6907.5
6856.76
6806.18
6755.24
6703.38
6650.48
6596.29
6540.78
6483.71
6425.44
6366.07
6305.94
6245.2
6184.39
6123.49
6062.57
6001.27
5939.93
5878.41
5816.77
5754.78
5692.84
5630.79
5568.76
5506.41
5444.21
5382.02
5319.88
5257.49
5195.19
5132.82
5070.49
5007.84
4945.31
4882.8
4820.35
4757.64
4695.01
4632.32
4569.67
4506.74
4443.89
4381.06
4318.29
4255.29
4192.33
4129.33
4066.37
4003.19
3940.03
3876.93
3813.87
3750.65
3687.42
3624.18
3560.99
3497.64
3434.29
3371.01
3307.79
3244.45
3181.08
3117.73
3054.43
2991.03
2927.61
2864.29
2801
2737.63
2674.24
2610.9
2547.59
2484.24
2420.86
2357.6
2294.36
2231.06
2167.75
2104.51
2041.31
1978.07
1914.82
1851.68
1788.56
1725.39
1662.22
1599.11
1536.04
1472.95
1409.86
1346.87
1283.88
1220.89
1157.88
1094.94
1032.02
969.126
906.235
843.414
780.609
717.845
655.086
592.39
529.736
467.168
404.663
342.232
279.889
217.629
155.554
93.403
31.3573
7580.32
7525.79
7413.09
7312.88
7242.27
7179.84
7121.46
7065.45
7011.46
6958.96
6907.51
6856.76
6806.18
6755.23
6703.38
6650.47
6596.28
6540.77
6483.71
6425.44
6366.07
6305.94
6245.2
6184.38
6123.49
6062.57
6001.28
5939.93
5878.4
5816.76
5754.78
5692.84
5630.78
5568.75
5506.42
5444.21
5382.01
5319.87
5257.49
5195.19
5132.81
5070.48
5007.84
4945.31
4882.8
4820.34
4757.64
4695.01
4632.31
4569.67
4506.74
4443.88
4381.05
4318.28
4255.29
4192.33
4129.32
4066.37
4003.18
3940.03
3876.92
3813.87
3750.64
3687.42
3624.18
3560.99
3497.63
3434.29
3371.01
3307.79
3244.44
3181.08
3117.74
3054.44
2991.03
2927.61
2864.29
2801
2737.63
2674.24
2610.9
2547.6
2484.23
2420.87
2357.6
2294.36
2231.06
2167.76
2104.52
2041.31
1978.07
1914.82
1851.68
1788.56
1725.39
1662.22
1599.11
1536.04
1472.95
1409.86
1346.87
1283.89
1220.89
1157.89
1094.94
1032.03
969.129
906.238
843.418
780.616
717.85
655.093
592.398
529.746
467.178
404.673
342.244
279.901
217.645
155.568
93.4141
31.3519
7579.61
7525.56
7413.47
7313.24
7242.46
7179.94
7121.52
7065.49
7011.48
6958.98
6907.52
6856.76
6806.18
6755.23
6703.38
6650.47
6596.28
6540.76
6483.71
6425.44
6366.06
6305.93
6245.2
6184.38
6123.49
6062.56
6001.28
5939.93
5878.4
5816.75
5754.79
5692.83
5630.78
5568.74
5506.42
5444.21
5382.01
5319.87
5257.49
5195.18
5132.81
5070.48
5007.84
4945.31
4882.79
4820.34
4757.64
4695.01
4632.31
4569.67
4506.74
4443.88
4381.05
4318.28
4255.29
4192.33
4129.32
4066.37
4003.18
3940.03
3876.92
3813.87
3750.64
3687.42
3624.18
3560.99
3497.63
3434.29
3371.01
3307.79
3244.44
3181.08
3117.74
3054.44
2991.02
2927.62
2864.29
2801
2737.63
2674.24
2610.9
2547.6
2484.23
2420.87
2357.6
2294.37
2231.06
2167.76
2104.52
2041.32
1978.07
1914.83
1851.68
1788.56
1725.39
1662.22
1599.12
1536.05
1472.95
1409.87
1346.87
1283.89
1220.89
1157.89
1094.95
1032.03
969.131
906.242
843.423
780.623
717.855
655.099
592.406
529.756
467.187
404.684
342.255
279.913
217.661
155.582
93.4257
31.3447
7578.71
7525.22
7413.88
7313.68
7242.7
7180.08
7121.61
7065.54
7011.52
6959
6907.54
6856.77
6806.18
6755.22
6703.38
6650.46
6596.28
6540.76
6483.72
6425.43
6366.06
6305.92
6245.2
6184.37
6123.48
6062.55
6001.28
5939.92
5878.4
5816.75
5754.79
5692.83
5630.78
5568.74
5506.42
5444.2
5382.01
5319.86
5257.49
5195.18
5132.81
5070.47
5007.84
4945.31
4882.79
4820.33
4757.64
4695
4632.31
4569.66
4506.73
4443.88
4381.05
4318.28
4255.28
4192.33
4129.32
4066.37
4003.18
3940.03
3876.92
3813.87
3750.64
3687.42
3624.18
3560.99
3497.63
3434.29
3371.01
3307.79
3244.44
3181.09
3117.74
3054.44
2991.02
2927.62
2864.29
2801.01
2737.62
2674.24
2610.9
2547.61
2484.23
2420.87
2357.6
2294.37
2231.06
2167.76
2104.52
2041.32
1978.06
1914.83
1851.69
1788.57
1725.39
1662.23
1599.12
1536.05
1472.95
1409.87
1346.87
1283.9
1220.89
1157.89
1094.95
1032.04
969.134
906.247
843.428
780.629
717.859
655.106
592.414
529.765
467.196
404.694
342.266
279.925
217.677
155.596
93.4374
31.3342
7577.58
7524.78
7414.31
7314.23
7243.01
7180.27
7121.73
7065.62
7011.57
6959.03
6907.56
6856.78
6806.18
6755.22
6703.38
6650.46
6596.27
6540.75
6483.72
6425.43
6366.06
6305.91
6245.2
6184.37
6123.48
6062.55
6001.29
5939.92
5878.4
5816.74
5754.79
5692.82
5630.77
5568.73
5506.42
5444.2
5382.01
5319.85
5257.49
5195.18
5132.8
5070.46
5007.84
4945.3
4882.79
4820.33
4757.64
4695
4632.3
4569.65
4506.73
4443.88
4381.05
4318.27
4255.28
4192.32
4129.32
4066.36
4003.17
3940.03
3876.92
3813.87
3750.63
3687.42
3624.18
3560.99
3497.62
3434.29
3371.01
3307.8
3244.43
3181.09
3117.74
3054.45
2991.02
2927.62
2864.29
2801.01
2737.62
2674.25
2610.9
2547.61
2484.23
2420.87
2357.6
2294.37
2231.06
2167.76
2104.52
2041.33
1978.06
1914.83
1851.69
1788.57
1725.39
1662.23
1599.12
1536.06
1472.95
1409.87
1346.88
1283.9
1220.89
1157.9
1094.95
1032.04
969.137
906.251
843.433
780.636
717.864
655.112
592.421
529.774
467.206
404.704
342.276
279.936
217.693
155.609
93.4489
31.3214
7576.19
7524.25
7414.78
7314.89
7243.4
7180.52
7121.89
7065.73
7011.65
6959.08
6907.6
6856.8
6806.2
6755.22
6703.39
6650.46
6596.27
6540.74
6483.72
6425.43
6366.06
6305.91
6245.2
6184.37
6123.48
6062.54
6001.29
5939.92
5878.4
5816.74
5754.79
5692.82
5630.77
5568.72
5506.43
5444.2
5382
5319.85
5257.49
5195.17
5132.8
5070.46
5007.84
4945.3
4882.79
4820.32
4757.64
4695
4632.3
4569.65
4506.73
4443.87
4381.05
4318.27
4255.28
4192.32
4129.32
4066.36
4003.17
3940.02
3876.92
3813.87
3750.63
3687.42
3624.18
3560.99
3497.62
3434.29
3371.01
3307.8
3244.43
3181.09
3117.74
3054.45
2991.01
2927.62
2864.29
2801.01
2737.62
2674.25
2610.9
2547.62
2484.22
2420.87
2357.6
2294.38
2231.06
2167.77
2104.53
2041.33
1978.06
1914.83
1851.69
1788.58
1725.39
1662.23
1599.13
1536.06
1472.95
1409.88
1346.88
1283.9
1220.9
1157.9
1094.96
1032.05
969.139
906.255
843.437
780.642
717.869
655.119
592.428
529.783
467.215
404.714
342.287
279.947
217.709
155.622
93.4598
31.305
7574.54
7523.62
7415.32
7315.67
7243.88
7180.85
7122.11
7065.88
7011.76
6959.16
6907.66
6856.84
6806.22
6755.23
6703.4
6650.46
6596.28
6540.74
6483.73
6425.43
6366.06
6305.9
6245.2
6184.36
6123.48
6062.53
6001.3
5939.92
5878.4
5816.73
5754.8
5692.82
5630.77
5568.71
5506.43
5444.19
5382
5319.84
5257.49
5195.17
5132.8
5070.45
5007.85
4945.29
4882.78
4820.31
4757.64
4694.99
4632.3
4569.64
4506.73
4443.87
4381.04
4318.27
4255.28
4192.32
4129.31
4066.36
4003.17
3940.02
3876.92
3813.87
3750.63
3687.42
3624.18
3560.99
3497.61
3434.29
3371.01
3307.8
3244.43
3181.09
3117.74
3054.45
2991.01
2927.62
2864.29
2801.02
2737.62
2674.25
2610.91
2547.62
2484.22
2420.87
2357.61
2294.38
2231.06
2167.77
2104.53
2041.33
1978.06
1914.84
1851.69
1788.58
1725.39
1662.24
1599.13
1536.06
1472.95
1409.88
1346.88
1283.91
1220.9
1157.91
1094.96
1032.05
969.141
906.259
843.442
780.648
717.873
655.125
592.435
529.791
467.223
404.724
342.297
279.958
217.724
155.634
93.4696
31.2868
7572.63
7522.86
7415.93
7316.58
7244.45
7181.27
7122.4
7066.09
7011.92
6959.28
6907.76
6856.91
6806.27
6755.26
6703.42
6650.47
6596.29
6540.74
6483.75
6425.44
6366.06
6305.9
6245.21
6184.36
6123.47
6062.52
6001.3
5939.92
5878.4
5816.72
5754.8
5692.81
5630.77
5568.7
5506.43
5444.19
5382
5319.83
5257.49
5195.16
5132.8
5070.44
5007.85
4945.29
4882.78
4820.31
4757.64
4694.99
4632.3
4569.63
4506.73
4443.86
4381.04
4318.26
4255.28
4192.32
4129.31
4066.35
4003.16
3940.02
3876.92
3813.86
3750.63
3687.41
3624.18
3560.99
3497.61
3434.29
3371.01
3307.8
3244.43
3181.09
3117.74
3054.45
2991.01
2927.62
2864.29
2801.02
2737.62
2674.25
2610.91
2547.62
2484.22
2420.88
2357.61
2294.39
2231.06
2167.77
2104.53
2041.34
1978.06
1914.84
1851.7
1788.58
1725.4
1662.24
1599.13
1536.07
1472.95
1409.88
1346.89
1283.91
1220.9
1157.91
1094.97
1032.06
969.144
906.263
843.446
780.653
717.878
655.13
592.441
529.799
467.232
404.733
342.306
279.968
217.738
155.645
93.478
31.2665
7570.51
7521.97
7416.65
7317.61
7245.13
7181.8
7122.77
7066.38
7012.13
6959.45
6907.89
6857.01
6806.34
6755.31
6703.46
6650.5
6596.31
6540.76
6483.77
6425.45
6366.07
6305.9
6245.22
6184.36
6123.47
6062.52
6001.31
5939.92
5878.4
5816.72
5754.8
5692.81
5630.77
5568.69
5506.44
5444.19
5382
5319.82
5257.49
5195.16
5132.79
5070.43
5007.85
4945.29
4882.78
4820.3
4757.64
4694.98
4632.3
4569.63
4506.73
4443.86
4381.04
4318.25
4255.28
4192.31
4129.31
4066.35
4003.16
3940.01
3876.91
3813.86
3750.63
3687.41
3624.18
3560.99
3497.61
3434.28
3371.01
3307.8
3244.43
3181.09
3117.74
3054.45
2991.01
2927.62
2864.29
2801.02
2737.62
2674.25
2610.91
2547.63
2484.22
2420.88
2357.61
2294.39
2231.06
2167.77
2104.53
2041.34
1978.06
1914.84
1851.7
1788.59
1725.4
1662.24
1599.14
1536.07
1472.95
1409.88
1346.89
1283.92
1220.9
1157.91
1094.97
1032.06
969.146
906.267
843.451
780.658
717.882
655.136
592.447
529.806
467.239
404.742
342.315
279.977
217.751
155.656
93.4848
31.2467
7568.26
7520.92
7417.41
7318.75
7245.87
7182.43
7123.25
7066.74
7012.42
6959.68
6908.09
6857.17
6806.46
6755.4
6703.54
6650.56
6596.35
6540.79
6483.81
6425.48
6366.1
6305.91
6245.23
6184.36
6123.47
6062.51
6001.32
5939.92
5878.4
5816.71
5754.81
5692.81
5630.76
5568.68
5506.44
5444.19
5382
5319.81
5257.5
5195.16
5132.79
5070.42
5007.85
4945.29
4882.78
4820.29
4757.64
4694.98
4632.29
4569.62
4506.73
4443.86
4381.04
4318.25
4255.28
4192.31
4129.31
4066.34
4003.17
3940.01
3876.91
3813.86
3750.63
3687.41
3624.18
3560.98
3497.61
3434.28
3371.01
3307.8
3244.43
3181.09
3117.74
3054.45
2991.01
2927.62
2864.29
2801.02
2737.62
2674.25
2610.91
2547.63
2484.22
2420.88
2357.61
2294.39
2231.06
2167.78
2104.54
2041.34
1978.06
1914.84
1851.7
1788.59
1725.4
1662.24
1599.14
1536.07
1472.95
1409.89
1346.89
1283.92
1220.9
1157.91
1094.97
1032.06
969.149
906.271
843.454
780.663
717.887
655.141
592.453
529.812
467.247
404.75
342.324
279.986
217.763
155.665
93.49
31.2274
7565.97
7519.79
7418.14
7319.92
7246.66
7183.16
7123.84
7067.22
7012.81
6960
6908.36
6857.39
6806.65
6755.55
6703.66
6650.65
6596.43
6540.85
6483.86
6425.53
6366.14
6305.93
6245.25
6184.38
6123.48
6062.51
6001.33
5939.93
5878.41
5816.71
5754.81
5692.81
5630.76
5568.68
5506.45
5444.19
5382
5319.81
5257.5
5195.15
5132.79
5070.41
5007.86
4945.29
4882.78
4820.28
4757.64
4694.98
4632.29
4569.61
4506.73
4443.86
4381.04
4318.24
4255.28
4192.31
4129.31
4066.33
4003.17
3940.01
3876.91
3813.85
3750.63
3687.41
3624.18
3560.98
3497.61
3434.28
3371.01
3307.79
3244.43
3181.08
3117.75
3054.45
2991.01
2927.62
2864.3
2801.02
2737.62
2674.25
2610.92
2547.62
2484.22
2420.88
2357.61
2294.39
2231.06
2167.78
2104.54
2041.34
1978.06
1914.84
1851.7
1788.59
1725.4
1662.25
1599.14
1536.07
1472.96
1409.89
1346.89
1283.92
1220.91
1157.92
1094.98
1032.07
969.152
906.274
843.458
780.667
717.891
655.146
592.458
529.818
467.253
404.757
342.331
279.994
217.773
155.672
93.4939
31.2111
7563.78
7518.67
7418.78
7320.98
7247.35
7183.88
7124.5
7067.8
7013.31
6960.44
6908.74
6857.72
6806.93
6755.78
6703.85
6650.81
6596.55
6540.95
6483.95
6425.61
6366.2
6305.98
6245.29
6184.4
6123.5
6062.52
6001.34
5939.94
5878.41
5816.71
5754.82
5692.81
5630.76
5568.67
5506.45
5444.19
5381.99
5319.8
5257.5
5195.15
5132.79
5070.4
5007.86
4945.29
4882.78
4820.28
4757.65
4694.98
4632.29
4569.6
4506.74
4443.86
4381.04
4318.23
4255.28
4192.31
4129.31
4066.33
4003.17
3940.01
3876.91
3813.85
3750.63
3687.41
3624.18
3560.97
3497.61
3434.28
3371.01
3307.79
3244.43
3181.09
3117.75
3054.45
2991.01
2927.62
2864.3
2801.02
2737.62
2674.26
2610.92
2547.62
2484.22
2420.88
2357.62
2294.39
2231.07
2167.78
2104.54
2041.34
1978.07
1914.84
1851.7
1788.59
1725.4
1662.25
1599.14
1536.07
1472.96
1409.89
1346.9
1283.92
1220.91
1157.92
1094.98
1032.07
969.155
906.277
843.46
780.67
717.895
655.15
592.462
529.823
467.258
404.763
342.338
280.002
217.782
155.679
93.4971
31.1982
7561.94
7517.72
7419.29
7321.82
7247.85
7184.41
7125.05
7068.4
7013.91
6961
6909.25
6858.18
6807.33
6756.12
6704.14
6651.05
6596.75
6541.1
6484.08
6425.72
6366.28
6306.04
6245.34
6184.44
6123.52
6062.53
6001.36
5939.96
5878.42
5816.71
5754.83
5692.82
5630.76
5568.66
5506.45
5444.19
5381.99
5319.79
5257.5
5195.15
5132.79
5070.39
5007.86
4945.29
4882.77
4820.27
4757.65
4694.98
4632.29
4569.59
4506.74
4443.86
4381.03
4318.23
4255.28
4192.31
4129.31
4066.32
4003.17
3940.01
3876.91
3813.84
3750.63
3687.41
3624.18
3560.97
3497.62
3434.28
3371.01
3307.78
3244.43
3181.09
3117.75
3054.44
2991.01
2927.62
2864.3
2801.01
2737.63
2674.26
2610.92
2547.62
2484.23
2420.88
2357.62
2294.39
2231.07
2167.78
2104.54
2041.34
1978.07
1914.85
1851.7
1788.59
1725.41
1662.25
1599.14
1536.07
1472.96
1409.89
1346.9
1283.92
1220.91
1157.92
1094.98
1032.07
969.157
906.28
843.463
780.672
717.898
655.154
592.465
529.827
467.262
404.767
342.343
280.008
217.789
155.683
93.4999
31.1895
7560.81
7517.14
7419.65
7322.37
7248.18
7184.72
7125.35
7068.73
7014.32
6961.48
6909.77
6858.7
6807.79
6756.52
6704.46
6651.31
6596.95
6541.26
6484.2
6425.81
6366.36
6306.1
6245.39
6184.47
6123.55
6062.55
6001.37
5939.97
5878.43
5816.71
5754.83
5692.82
5630.77
5568.66
5506.45
5444.2
5381.99
5319.79
5257.5
5195.15
5132.78
5070.38
5007.86
4945.29
4882.77
4820.26
4757.65
4694.98
4632.29
4569.58
4506.74
4443.86
4381.03
4318.22
4255.28
4192.31
4129.31
4066.31
4003.17
3940.02
3876.91
3813.83
3750.63
3687.41
3624.18
3560.96
3497.62
3434.29
3371.01
3307.78
3244.43
3181.09
3117.75
3054.44
2991.01
2927.62
2864.3
2801.01
2737.63
2674.26
2610.92
2547.61
2484.23
2420.89
2357.62
2294.38
2231.07
2167.79
2104.54
2041.34
1978.07
1914.85
1851.71
1788.59
1725.41
1662.25
1599.14
1536.07
1472.96
1409.9
1346.9
1283.92
1220.91
1157.92
1094.98
1032.07
969.159
906.282
843.464
780.673
717.9
655.156
592.468
529.83
467.265
404.77
342.347
280.012
217.793
155.686
93.5023
31.1852
7560.88
7517.08
7419.6
7322.37
7248.18
7184.72
7125.34
7068.73
7014.31
6961.47
6909.76
6858.7
6807.79
6756.52
6704.46
6651.31
6596.95
6541.26
6484.2
6425.82
6366.36
6306.1
6245.38
6184.47
6123.55
6062.54
6001.37
5939.97
5878.43
5816.71
5754.83
5692.82
5630.77
5568.66
5506.45
5444.2
5381.99
5319.79
5257.5
5195.16
5132.78
5070.38
5007.86
4945.29
4882.77
4820.26
4757.64
4694.98
4632.29