/*--------------------------------*- C++ -*----------------------------------*\
  =========                 |
  \\      /  F ield         | OpenFOAM: The Open Source CFD Toolbox
   \\    /   O peration     | Website:  https://openfoam.org
    \\  /    A nd           | Version:  8
     \\/     M anipulation  |
\*---------------------------------------------------------------------------*/
FoamFile
{
    version     2.0;
    format      ascii;
    class       surfaceScalarField;
    location    "50";
    object      phi;
}
// * * * * * * * * * * * * * * * * * * * * * * * * * * * * * * * * * * * * * //

dimensions      [0 3 -1 0 0 0 0];

internalField   nonuniform List<scalar> 
14458
(
0.00184224
0.0017764
0.00106837
0.000772645
0.000704724
0.000363209
0.000627107
7.66899e-05
0.000603269
2.27465e-05
0.000591747
1.00132e-05
0.000583131
7.47501e-06
0.000577219
4.56993e-06
0.000573516
2.39999e-06
0.000571233
1.00328e-06
0.000570008
-1.13656e-06
0.000569746
-1.78395e-06
0.000569968
-1.8208e-06
0.000570239
-1.32296e-06
0.000570526
-3.24493e-06
0.000570978
-2.47693e-06
0.000571442
-1.56874e-06
0.000571462
1.42215e-07
0.000571308
-4.71701e-06
0.000571469
-3.28157e-06
0.000571672
-1.87629e-06
0.000571594
4.104e-07
0.000571418
-4.0269e-06
0.0005715
-2.22551e-06
0.000571699
-5.69602e-07
0.000571379
2.12298e-06
0.000570906
-6.00682e-06
0.000570976
-3.94569e-06
0.000571178
-1.82989e-06
0.000571072
1.49758e-06
0.000570855
-5.16555e-06
0.000570998
-2.18231e-06
0.000571351
2.44206e-07
0.000571006
4.32962e-06
0.000570395
-6.81273e-06
0.000570509
-3.93385e-06
0.000570843
-1.19732e-06
0.000570749
3.13323e-06
0.00057046
-5.2155e-06
0.000570663
-1.64635e-06
0.000571146
1.22392e-06
0.000570779
6.03819e-06
0.000570063
-6.85332e-06
0.000570215
-3.65482e-06
0.000570675
-6.62928e-07
0.000570601
4.17107e-06
0.000570255
-4.77981e-06
0.00057052
-1.03728e-06
0.000571117
1.99444e-06
0.000570741
7.12603e-06
0.000569957
-6.00293e-06
0.000570141
-2.8368e-06
0.000570694
1.21972e-07
0.000570632
4.98926e-06
0.000570262
-3.83786e-06
0.00057056
-3.13565e-07
0.000571226
2.5452e-06
0.000570851
7.51162e-06
0.000570026
-4.88592e-06
0.000570231
-2.11083e-06
0.000570835
5.51962e-07
0.00057079
5.04731e-06
0.000570448
-2.82153e-06
0.000570776
2.2631e-07
0.000571439
2.77553e-06
0.000571081
7.23298e-06
0.000570304
-3.29783e-06
0.000570544
-1.06882e-06
0.000571181
1.14999e-06
0.000571162
5.00261e-06
0.000570849
-1.51129e-06
0.000571208
8.32961e-07
0.00057185
2.8983e-06
0.000571486
6.64059e-06
0.000570775
-1.85581e-06
0.000571053
-3.10406e-07
0.000571652
1.40413e-06
0.000571615
4.48673e-06
0.000571368
-5.35299e-07
0.000571766
1.08396e-06
0.000572352
2.66004e-06
0.000572011
5.61079e-06
0.000571419
-6.65832e-07
0.000571722
2.76094e-07
0.000572256
1.50752e-06
0.000572171
3.86193e-06
0.000571974
1.74345e-07
0.000572386
1.1426e-06
0.000572878
2.26794e-06
0.000572562
4.46249e-06
0.000572089
-1.7431e-08
0.000572383
4.52453e-07
0.000572824
1.26364e-06
0.000572746
2.93457e-06
0.000572605
4.47811e-07
0.000572956
9.76291e-07
0.000573357
1.67372e-06
0.00057312
3.17884e-06
0.000572809
3.62207e-07
0.000573091
4.9008e-07
0.000573441
9.32614e-07
0.000573423
1.90988e-06
0.000573361
5.63205e-07
0.000573624
6.85473e-07
0.000573921
9.29772e-07
0.000573835
1.60051e-06
0.000573707
3.82954e-07
0.000573901
1.13034e-07
0.000574132
5.71924e-08
0.000574195
6.69844e-08
0.000574232
-1.70397e-07
0.000574375
-7.25688e-07
0.000574529
-9.59646e-07
0.000574664
-1.54021e-06
0.000574766
-2.19525e-06
0.000574822
-3.11157e-06
0.000574886
-3.1989e-06
0.000575047
-4.25812e-06
0.000575124
-6.14519e-06
0.000575005
-6.13814e-06
0.000574868
-1.84552e-06
-2.29294e-07
0.00246373
0.0036203
0.00134216
0.0018937
0.000882737
0.000822527
0.000787598
0.000171473
0.00075818
5.17323e-05
0.000743901
2.36569e-05
0.000733195
1.77554e-05
0.000725869
1.13639e-05
0.000721298
6.47049e-06
0.000718489
3.30163e-06
0.000716998
-5.57007e-07
0.000716683
-2.27433e-06
0.000716948
-2.68309e-06
0.00071724
-2.01614e-06
0.000717541
-4.69436e-06
0.000718027
-3.75568e-06
0.000718523
-2.44218e-06
0.000718457
3.28466e-07
0.000718197
-6.39821e-06
0.000718346
-4.66928e-06
0.000718572
-2.70446e-06
0.000718456
7.20394e-07
0.000718236
-5.43627e-06
0.000718331
-3.15317e-06
0.000718569
-8.61064e-07
0.000718141
3.33493e-06
0.000717537
-7.98915e-06
0.000717608
-5.58221e-06
0.00071785
-2.66255e-06
0.000717698
2.25113e-06
0.000717429
-7.03001e-06
0.000717602
-3.16242e-06
0.000718044
1.41895e-07
0.000717599
6.45562e-06
0.00071684
-9.04442e-06
0.000716982
-5.6411e-06
0.000717401
-1.90183e-06
0.000717271
4.52319e-06
0.000716914
-7.05323e-06
0.000717164
-2.48115e-06
0.000717769
1.40315e-06
0.000717296
8.86218e-06
0.000716405
-9.03015e-06
0.000716596
-5.30697e-06
0.000717175
-1.27373e-06
0.00071707
5.94339e-06
0.000716641
-6.40533e-06
0.00071697
-1.69927e-06
0.000717719
2.36835e-06
0.000717239
1.037e-05
0.00071626
-7.79195e-06
0.000716493
-4.20798e-06
0.000717187
-2.69335e-07
0.000717102
7.05579e-06
0.000716639
-5.07614e-06
0.000717012
-7.33206e-07
0.000717847
3.06409e-06
0.000717372
1.0886e-05
0.000716339
-6.19817e-06
0.000716601
-3.22238e-06
0.000717359
2.72985e-07
0.000717297
7.09981e-06
0.000716868
-3.68102e-06
0.00071728
-1.43612e-08
0.000718113
3.35991e-06
0.000717662
1.04465e-05
0.000716687
-4.01411e-06
0.000716995
-1.79821e-06
0.000717794
1.06182e-06
0.000717767
6.99024e-06
0.000717373
-1.8806e-06
0.000717826
7.94788e-07
0.00071863
3.52874e-06
0.000718175
9.59667e-06
0.000717282
-2.05634e-06
0.000717636
-7.72243e-07
0.000718387
1.43692e-06
0.000718341
6.26933e-06
0.000718028
-5.77502e-07
0.000718532
1.10687e-06
0.000719265
3.22684e-06
0.000718841
8.12078e-06
0.000718096
-4.94639e-07
0.000718482
2.86545e-08
0.00071915
1.63094e-06
0.000719046
5.43232e-06
0.000718795
3.67648e-07
0.000719315
1.17716e-06
0.000719932
2.75398e-06
0.000719541
6.49381e-06
0.000718943
3.11909e-07
0.000719317
2.89777e-07
0.000719868
1.37238e-06
0.000719774
4.13618e-06
0.000719592
7.07287e-07
0.000720036
1.00698e-06
0.000720538
2.00506e-06
0.000720249
4.63845e-06
0.000719853
7.18191e-07
0.000720211
3.72012e-07
0.000720648
9.99714e-07
0.000720633
2.66537e-06
0.000720547
8.2198e-07
0.000720881
6.9665e-07
0.000721253
1.06798e-06
0.000721157
2.31474e-06
0.000720988
6.41934e-07
0.000721237
-3.31781e-08
0.000721524
-9.53667e-08
0.000721617
3.434e-08
0.000721657
-2.05019e-07
0.000721844
-1.11114e-06
0.000722038
-1.45892e-06
0.000722222
-2.3065e-06
0.00072235
-2.95386e-06
0.000722431
-4.2847e-06
0.000722518
-4.58028e-06
0.000722724
-6.26326e-06
0.000722846
-8.51624e-06
0.000722704
-8.49736e-06
0.000722544
-6.52449e-06
-4.32626e-06
0.00306741
0.00567892
0.00163081
0.00333009
0.00107651
0.00137671
0.000962761
0.000285053
0.000927453
8.68572e-05
0.000910303
4.0582e-05
0.000897464
3.03883e-05
0.000888711
1.98981e-05
0.000883279
1.16783e-05
0.000879967
6.40851e-06
0.000878238
7.74142e-07
0.000877908
-2.2754e-06
0.000878254
-3.31359e-06
0.000878611
-2.55011e-06
0.000878967
-5.54276e-06
0.000879532
-4.64499e-06
0.000880102
-3.23777e-06
0.000879991
4.30557e-07
0.000879651
-6.8318e-06
0.000879804
-5.30659e-06
0.000880053
-3.2719e-06
0.000879896
8.96369e-07
0.000879622
-5.8652e-06
0.000879729
-3.60073e-06
0.000880008
-1.2764e-06
0.000879485
4.10401e-06
0.000878756
-8.28607e-06
0.000878837
-6.24149e-06
0.000879122
-3.26131e-06
0.000878934
2.63966e-06
0.000878612
-7.57778e-06
0.000878818
-3.67411e-06
0.000879347
-3.84321e-07
0.000878806
7.57215e-06
0.000877897
-9.29457e-06
0.000878069
-6.36189e-06
0.000878572
-2.60326e-06
0.000878412
5.14654e-06
0.000877986
-7.51154e-06
0.000878286
-2.97849e-06
0.000879012
8.49703e-07
0.000878438
1.02792e-05
0.000877369
-9.13223e-06
0.000877601
-6.01895e-06
0.000878297
-2.05884e-06
0.000878168
6.71285e-06
0.000877654
-6.71023e-06
0.00087805
-2.17488e-06
0.000878949
1.78893e-06
0.000878367
1.1979e-05
0.00087719
-7.65612e-06
0.000877473
-4.82605e-06
0.000878308
-1.04505e-06
0.000878201
7.94561e-06
0.000877646
-5.18653e-06
0.000878096
-1.13357e-06
0.000879097
2.4917e-06
0.000878521
1.25618e-05
0.000877279
-5.82213e-06
0.000877598
-3.75418e-06
0.000878509
-4.90999e-07
0.000878432
7.98344e-06
0.000877916
-3.661e-06
0.000878412
-3.67261e-07
0.00087941
2.84835e-06
0.000878864
1.20716e-05
0.000877692
-3.45014e-06
0.000878066
-2.21804e-06
0.000879028
3.6308e-07
0.000878993
7.8409e-06
0.000878518
-1.68192e-06
0.000879063
4.96691e-07
0.000880026
3.08874e-06
0.000879475
1.1145e-05
0.000878402
-1.34762e-06
0.000878832
-1.12607e-06
0.000879735
8.44511e-07
0.000879678
7.06338e-06
0.000879301
-3.05826e-07
0.000879908
7.91651e-07
0.000880786
2.84161e-06
0.000880274
9.47892e-06
0.000879378
2.45429e-07
0.000879847
-2.7345e-07
0.000880649
1.15425e-06
0.000880522
6.18953e-06
0.00088022
6.91824e-07
0.000880847
8.48202e-07
0.000881584
2.44029e-06
0.000881113
7.63042e-06
0.000880394
9.9872e-07
0.000880849
1.90387e-08
0.00088151
9.86087e-07
0.000881397
4.72519e-06
0.000881177
1.00168e-06
0.000881711
7.24227e-07
0.000882311
1.72211e-06
0.000881964
5.45273e-06
0.000881487
1.24222e-06
0.000881921
1.09353e-07
0.000882445
6.79572e-07
0.000882428
2.99182e-06
0.000882322
1.02249e-06
0.000882726
4.67215e-07
0.00088317
8.00803e-07
0.000883057
2.65571e-06
0.000882852
8.95797e-07
0.000883153
-2.73098e-07
0.000883498
-4.09079e-07
0.000883611
-6.45669e-08
0.000883658
-3.11155e-07
0.000883884
-1.4536e-06
0.000884117
-1.83067e-06
0.00088434
-2.73772e-06
0.000884494
-3.57414e-06
0.000884593
-4.94936e-06
0.000884699
-5.15155e-06
0.000884948
-7.04017e-06
0.000885099
-9.74139e-06
0.00088493
-9.28237e-06
0.000884749
-3.94786e-06
-1.38761e-06
0.00372992
0.00804969
0.00197564
0.00508411
0.00131289
0.00203941
0.00117695
0.000420823
0.00113457
0.000129032
0.00111405
6.07944e-05
0.00109877
4.54762e-05
0.0010884
3.00187e-05
0.00108201
1.78348e-05
0.00107816
1.00179e-05
0.0010762
2.29922e-06
0.0010759
-2.35116e-06
0.00107639
-4.08183e-06
0.00107687
-3.2114e-06
0.00107734
-6.5499e-06
0.00107803
-5.70151e-06
0.00107872
-4.10229e-06
0.00107859
6.38956e-07
0.00107818
-7.35196e-06
0.00107836
-6.04601e-06
0.00107864
-3.84474e-06
0.00107844
1.21186e-06
0.00107811
-6.31053e-06
0.00107823
-4.09153e-06
0.00107856
-1.6305e-06
0.00107793
5.13033e-06
0.00107707
-8.6573e-06
0.00107716
-7.04907e-06
0.00107749
-3.88936e-06
0.00107727
3.18263e-06
0.00107689
-8.2231e-06
0.00107713
-4.2682e-06
0.00107776
-8.63485e-07
0.00107711
9.05054e-06
0.00107603
-9.65695e-06
0.00107624
-7.27593e-06
0.00107683
-3.35675e-06
0.00107664
5.96964e-06
0.00107614
-8.07289e-06
0.0010765
-3.57799e-06
0.00107736
3.41109e-07
0.00107667
1.21168e-05
0.00107541
-9.34947e-06
0.00107568
-6.95538e-06
0.00107651
-2.9273e-06
0.00107635
7.69188e-06
0.00107575
-7.10674e-06
0.00107622
-2.77068e-06
0.00107728
1.22949e-06
0.00107659
1.40206e-05
0.00107519
-7.60805e-06
0.00107553
-5.6741e-06
0.00107652
-1.92317e-06
0.00107639
9.04227e-06
0.00107574
-5.36831e-06
0.00107627
-1.66172e-06
0.00107746
1.91868e-06
0.00107677
1.4655e-05
0.0010753
-5.4965e-06
0.00107568
-4.51472e-06
0.00107676
-1.37779e-06
0.00107667
9.04355e-06
0.00107605
-3.69145e-06
0.00107664
-8.51864e-07
0.00107782
2.30964e-06
0.00107717
1.40562e-05
0.00107578
-2.89648e-06
0.00107623
-2.84991e-06
0.00107737
-4.72812e-07
0.00107733
8.82769e-06
0.00107676
-1.51003e-06
0.00107741
6.14747e-08
0.00107855
2.60428e-06
0.00107789
1.30026e-05
0.00107662
-6.25501e-07
0.00107713
-1.68469e-06
0.0010782
1.17028e-07
0.00107814
7.96347e-06
0.00107769
-5.47262e-08
0.00107841
3.28493e-07
0.00107945
2.39874e-06
0.00107883
1.10876e-05
0.00107777
1.00509e-06
0.00107833
-7.67712e-07
0.00107928
5.55417e-07
0.00107913
7.04043e-06
0.00107877
9.99523e-07
0.00107952
3.67245e-07
0.00108039
2.076e-06
0.00107983
8.97554e-06
0.00107898
1.69631e-06
0.00107952
-4.29432e-07
0.0010803
4.98791e-07
0.00108017
5.3878e-06
0.00107991
1.2815e-06
0.00108054
3.11995e-07
0.00108125
1.39935e-06
0.00108083
6.42658e-06
0.00108027
1.76785e-06
0.00108079
-3.02105e-07
0.00108141
2.89296e-07
0.00108139
3.36524e-06
0.00108126
1.21877e-06
0.00108174
1.48824e-07
0.00108227
5.17179e-07
0.00108213
3.08875e-06
0.00108189
1.17465e-06
0.00108225
-5.88572e-07
0.00108265
-7.50664e-07
0.00108279
-1.70063e-07
0.00108284
-3.53392e-07
0.00108311
-1.81311e-06
0.00108339
-2.24693e-06
0.00108365
-3.28543e-06
0.00108384
-4.01675e-06
0.00108395
-5.56161e-06
0.00108408
-5.90072e-06
0.00108438
-8.21822e-06
0.00108456
-1.09597e-05
0.00108436
-1.02568e-05
0.00108416
-6.98445e-06
-4.3821e-06
0.00450216
0.0108071
0.00239942
0.0071867
0.00160881
0.00282993
0.00144571
0.000583802
0.00139461
0.000180019
0.00137003
8.52306e-05
0.00135188
6.34868e-05
0.00133964
4.21147e-05
0.00133218
2.51532e-05
0.00132776
1.43034e-05
0.00132561
4.18572e-06
0.00132542
-2.36913e-06
0.00132615
-5.00736e-06
0.00132685
-4.02227e-06
0.0013275
-7.52967e-06
0.0013284
-6.7961e-06
0.00132927
-5.14096e-06
0.00132915
7.43584e-07
0.0013287
-7.39734e-06
0.00132891
-6.54728e-06
0.00132925
-4.42191e-06
0.00132902
1.4547e-06
0.00132863
-6.39319e-06
0.00132877
-4.42815e-06
0.00132915
-2.14622e-06
0.00132841
6.0245e-06
0.00132739
-8.29948e-06
0.0013275
-7.47993e-06
0.00132789
-4.52445e-06
0.00132762
3.58945e-06
0.00132717
-8.35269e-06
0.00132746
-4.71149e-06
0.00132819
-1.66228e-06
0.00132744
1.01733e-05
0.00132617
-9.13698e-06
0.0013264
-7.80522e-06
0.00132711
-4.23999e-06
0.00132688
6.50404e-06
0.0013263
-8.07392e-06
0.00132672
-4.0762e-06
0.00132773
-6.33739e-07
0.00132692
1.34599e-05
0.00132543
-8.61248e-06
0.00132575
-7.5157e-06
0.00132672
-4.01435e-06
0.00132655
8.30089e-06
0.00132583
-6.9446e-06
0.00132639
-3.32374e-06
0.00132764
1.05917e-07
0.00132682
1.54994e-05
0.00132518
-6.63575e-06
0.00132558
-6.21118e-06
0.00132674
-3.10726e-06
0.00132659
9.71578e-06
0.00132582
-5.04657e-06
0.00132645
-2.20531e-06
0.00132785
7.29123e-07
0.00132703
1.61753e-05
0.0013253
-4.31905e-06
0.00132575
-5.02925e-06
0.00132702
-2.60732e-06
0.00132692
9.69307e-06
0.0013262
-3.3102e-06
0.00132689
-1.39983e-06
0.00132827
1.17722e-06
0.0013275
1.55278e-05
0.00132587
-1.65395e-06
0.0013264
-3.34614e-06
0.00132774
-1.68978e-06
0.0013277
9.42458e-06
0.00132703
-1.03846e-06
0.00132779
-4.918e-07
0.00132912
1.56249e-06
0.00132834
1.44314e-05
0.00132685
6.37359e-07
0.00132746
-2.1918e-06
0.00132872
-9.74583e-07
0.00132864
8.53898e-06
0.00132811
3.92907e-07
0.00132896
-2.91395e-07
0.00133017
1.46995e-06
0.00132945
1.23648e-05
0.0013282
2.15517e-06
0.00132887
-1.28072e-06
0.00132999
-3.73878e-07
0.0013298
7.64375e-06
0.00132938
1.43143e-06
0.00133026
-2.86363e-07
0.00133128
1.30776e-06
0.00133061
1.00743e-05
0.00132961
2.68061e-06
0.00133026
-9.22415e-07
0.00133118
-2.58344e-07
0.00133102
5.86703e-06
0.00133071
1.63773e-06
0.00133146
-2.50015e-07
0.00133229
7.59743e-07
0.00133179
7.21861e-06
0.00133113
2.46784e-06
0.00133175
-7.82305e-07
0.00133248
-3.17101e-07
0.00133245
3.59447e-06
0.0013323
1.42864e-06
0.00133286
-2.91491e-07
0.00133348
6.45305e-09
0.00133332
3.39085e-06
0.00133303
1.49141e-06
0.00133346
-9.69373e-07
0.00133394
-1.21664e-06
0.00133409
-3.22978e-07
0.00133416
-4.69295e-07
0.00133447
-2.21384e-06
0.0013348
-2.66194e-06
0.00133511
-3.72836e-06
0.00133533
-4.57523e-06
0.00133546
-6.0878e-06
0.00133561
-6.33814e-06
0.00133596
-8.85895e-06
0.00133618
-1.19029e-05
0.00133594
-1.05947e-05
0.00133572
-4.43107e-06
-1.56614e-06
0.00542744
0.014019
0.00292658
0.00968733
0.00198349
0.00377299
0.00178675
0.00078039
0.00172473
0.000241869
0.00169524
0.00011447
0.00167372
8.48395e-05
0.00165934
5.62883e-05
0.00165067
3.36245e-05
0.00164568
1.90987e-05
0.00164341
6.095e-06
0.00164346
-2.72428e-06
0.00164458
-6.36702e-06
0.00164565
-5.22598e-06
0.00164662
-8.96213e-06
0.00164783
-8.29729e-06
0.00164897
-6.43841e-06
0.00164893
8.67007e-07
0.00164847
-7.71633e-06
0.00164876
-7.2851e-06
0.00164918
-5.10287e-06
0.00164893
1.82855e-06
0.00164848
-6.61419e-06
0.00164865
-4.87488e-06
0.00164909
-2.63912e-06
0.00164823
7.24732e-06
0.00164704
-8.15871e-06
0.00164715
-8.15349e-06
0.00164761
-5.25269e-06
0.0016473
4.19814e-06
0.00164677
-8.71582e-06
0.00164711
-5.29433e-06
0.00164797
-2.43762e-06
0.00164708
1.179e-05
0.0016456
-8.88702e-06
0.00164587
-8.62085e-06
0.00164669
-5.23249e-06
0.00164644
7.32757e-06
0.00164575
-8.31423e-06
0.00164624
-4.72096e-06
0.00164742
-1.56915e-06
0.00164648
1.54043e-05
0.00164474
-8.14427e-06
0.00164511
-8.38632e-06
0.00164625
-5.23534e-06
0.00164604
9.23614e-06
0.00164522
-6.99714e-06
0.00164587
-4.02811e-06
0.00164733
-9.88558e-07
0.00164637
1.76228e-05
0.00164445
-5.8783e-06
0.00164491
-7.04372e-06
0.00164627
-4.42767e-06
0.0016461
1.07357e-05
0.00164521
-4.89199e-06
0.00164595
-2.88902e-06
0.00164757
-4.38072e-07
0.00164662
1.83365e-05
0.00164459
-3.28716e-06
0.00164511
-5.82199e-06
0.00164661
-3.98461e-06
0.00164649
1.06601e-05
0.00164565
-3.04717e-06
0.00164645
-2.077e-06
0.00164807
5.26628e-08
0.00164716
1.75767e-05
0.00164525
-4.78022e-07
0.00164587
-4.08216e-06
0.00164745
-3.05344e-06
0.0016474
1.02965e-05
0.00164662
-6.25428e-07
0.0016475
-1.16404e-06
0.00164905
5.21705e-07
0.00164813
1.63737e-05
0.00164639
1.89301e-06
0.0016471
-2.91571e-06
0.00164858
-2.19888e-06
0.00164849
9.34646e-06
0.00164788
8.11618e-07
0.00164886
-1.03878e-06
0.00165027
5.28284e-07
0.00164942
1.40681e-05
0.00164796
3.33097e-06
0.00164874
-1.98568e-06
0.00165005
-1.41357e-06
0.00164984
8.45348e-06
0.00164935
1.85771e-06
0.00165037
-1.07259e-06
0.00165155
5.28586e-07
0.00165077
1.15232e-05
0.00164961
3.69382e-06
0.00165037
-1.59066e-06
0.00165145
-1.10542e-06
0.00165126
6.50674e-06
0.0016509
1.99725e-06
0.00165176
-9.24809e-07
0.00165272
1.08553e-07
0.00165215
8.2714e-06
0.00165138
3.19196e-06
0.0016521
-1.40772e-06
0.00165295
-9.86285e-07
0.00165292
3.92507e-06
0.00165274
1.6517e-06
0.0016534
-8.10684e-07
0.00165411
-5.08918e-07
0.00165392
3.8336e-06
0.00165359
1.84676e-06
0.00165409
-1.43119e-06
0.00165465
-1.72104e-06
0.00165483
-4.84537e-07
0.00165491
-5.32613e-07
0.00165527
-2.65993e-06
0.00165565
-3.15377e-06
0.00165602
-4.33501e-06
0.00165627
-5.03358e-06
0.00165642
-6.65488e-06
0.0016566
-7.03886e-06
0.00165701
-1.00156e-05
0.00165727
-1.30207e-05
0.00165699
-1.12899e-05
0.00165675
-7.35314e-06
-4.74374e-06
0.00655044
0.017749
0.00358777
0.0126499
0.00246174
0.00489891
0.00222293
0.00101908
0.00214713
0.000317563
0.00211161
0.000149859
0.00208614
0.000110178
0.00206931
7.29876e-05
0.00205935
4.34463e-05
0.00205384
2.44965e-05
0.00205159
8.0993e-06
0.00205209
-3.41588e-06
0.00205385
-8.31642e-06
0.00205551
-6.98806e-06
0.00205701
-1.07626e-05
0.00205871
-1.01754e-05
0.00206027
-8.17071e-06
0.0020604
7.21438e-07
0.00205999
-7.75846e-06
0.00206041
-7.94776e-06
0.00206095
-5.89406e-06
0.00206071
2.09079e-06
0.00206022
-6.57254e-06
0.00206043
-5.24191e-06
0.00206095
-3.32274e-06
0.00205996
8.37655e-06
0.00205857
-7.38259e-06
0.0020587
-8.54317e-06
0.00205922
-6.03338e-06
0.00205887
4.69266e-06
0.00205826
-8.6581e-06
0.00205865
-5.78898e-06
0.00205965
-3.54032e-06
0.00205862
1.31405e-05
0.0020569
-7.85119e-06
0.00205721
-9.14752e-06
0.00205816
-6.39329e-06
0.00205787
7.91459e-06
0.00205708
-8.08407e-06
0.00205765
-5.31993e-06
0.00205902
-2.96203e-06
0.00205793
1.69814e-05
0.0020559
-6.80786e-06
0.00205633
-8.97347e-06
0.00205765
-6.70933e-06
0.00205742
9.87364e-06
0.00205647
-6.56717e-06
0.00205723
-4.73663e-06
0.00205893
-2.62807e-06
0.00205782
1.9336e-05
0.00205558
-4.25703e-06
0.00205611
-7.64149e-06
0.00205769
-6.07655e-06
0.0020575
1.14238e-05
0.00205647
-4.28576e-06
0.00205733
-3.61866e-06
0.00205921
-2.19268e-06
0.00205811
2.00878e-05
0.00205575
-1.43645e-06
0.00205635
-6.43105e-06
0.00205809
-5.7233e-06
0.00205795
1.13105e-05
0.00205698
-2.40219e-06
0.00205791
-2.83288e-06
0.00205978
-1.62772e-06
0.00205872
1.92751e-05
0.0020565
1.38168e-06
0.00205723
-4.72572e-06
0.00205906
-4.80792e-06
0.00205901
1.08727e-05
0.00205811
8.49865e-08
0.00205913
-1.95383e-06
0.00206091
-1.03103e-06
0.00205983
1.80431e-05
0.00205781
3.70904e-06
0.00205864
-3.61635e-06
0.00206036
-3.78861e-06
0.00206026
9.91697e-06
0.00205956
1.43889e-06
0.0020607
-1.93976e-06
0.00206231
-8.57158e-07
0.00206132
1.55757e-05
0.00205963
4.93205e-06
0.00206054
-2.72537e-06
0.00206206
-2.7775e-06
0.00206182
9.09759e-06
0.00206125
2.43292e-06
0.00206243
-2.02789e-06
0.00206379
-6.18274e-07
0.00206287
1.28362e-05
0.00206153
5.03208e-06
0.00206242
-2.31597e-06
0.00206367
-2.21666e-06
0.00206345
7.02681e-06
0.00206303
2.46081e-06
0.00206403
-1.74484e-06
0.00206514
-8.33738e-07
0.00206446
9.22081e-06
0.00206357
4.12704e-06
0.00206441
-2.10964e-06
0.00206539
-1.86815e-06
0.00206536
4.15001e-06
0.00206515
1.91242e-06
0.00206591
-1.44904e-06
0.00206673
-1.24063e-06
0.00206651
4.18016e-06
0.00206612
2.26456e-06
0.0020667
-1.96645e-06
0.00206735
-2.36072e-06
0.00206756
-6.98623e-07
0.00206765
-6.73162e-07
0.00206807
-3.16802e-06
0.0020685
-3.67477e-06
0.00206893
-4.87742e-06
0.00206922
-5.66637e-06
0.0020694
-7.19994e-06
0.0020696
-7.5073e-06
0.00207009
-1.07133e-05
0.00207039
-1.40308e-05
0.00207007
-1.14047e-05
0.00206982
-4.72318e-06
-9.11681e-07
0.00792358
0.0220597
0.00442294
0.0161503
0.00307657
0.00624525
0.00278464
0.00131085
0.00269125
0.000410795
0.00264833
0.000192524
0.00261823
0.000140112
0.00259865
9.23592e-05
0.00258734
5.45615e-05
0.00258143
3.02243e-05
0.00257947
9.69131e-06
0.00258078
-5.02251e-06
0.00258355
-1.13367e-05
0.00258618
-9.73536e-06
0.00258851
-1.35708e-05
0.00259099
-1.29196e-05
0.00259319
-1.05433e-05
0.00259365
3.56544e-07
0.0025934
-8.30064e-06
0.00259404
-9.00139e-06
0.00259478
-6.92117e-06
0.00259458
2.43768e-06
0.00259407
-6.75094e-06
0.00259434
-5.75812e-06
0.00259496
-4.03225e-06
0.00259384
9.88472e-06
0.00259225
-6.86379e-06
0.00259239
-9.18691e-06
0.00259299
-6.94709e-06
0.00259259
5.42538e-06
0.0025919
-8.88329e-06
0.00259234
-6.43047e-06
0.00259349
-4.66272e-06
0.00259232
1.50705e-05
0.00259033
-7.12323e-06
0.00259068
-9.96635e-06
0.00259177
-7.71479e-06
0.00259145
8.84021e-06
0.00259055
-8.14457e-06
0.00259121
-6.07018e-06
0.00259278
-4.36453e-06
0.00259153
1.92672e-05
0.00258919
-5.7734e-06
0.00258967
-9.87525e-06
0.00259119
-8.37892e-06
0.00259095
1.08933e-05
0.00258986
-6.39933e-06
0.00259074
-5.60221e-06
0.0025927
-4.29391e-06
0.00259142
2.18116e-05
0.00258884
-2.87164e-06
0.00258943
-8.53593e-06
0.00259126
-7.92615e-06
0.00259106
1.25203e-05
0.00258987
-3.88342e-06
0.00259086
-4.49055e-06
0.00259303
-3.97829e-06
0.00259176
2.26007e-05
0.00258903
2.60873e-07
0.00258972
-7.32091e-06
0.00259173
-7.67675e-06
0.00259158
1.23366e-05
0.00259047
-1.90111e-06
0.00259153
-3.71655e-06
0.00259367
-3.34298e-06
0.00259245
2.1667e-05
0.00258989
3.17749e-06
0.00259072
-5.61577e-06
0.00259285
-6.77425e-06
0.0025928
1.17756e-05
0.00259176
7.24353e-07
0.00259292
-2.85964e-06
0.00259496
-2.61268e-06
0.00259371
2.0338e-05
0.00259137
5.52996e-06
0.00259234
-4.54442e-06
0.00259433
-5.56583e-06
0.00259422
1.0766e-05
0.00259341
2.02926e-06
0.00259471
-2.97353e-06
0.00259656
-2.27876e-06
0.00259539
1.76071e-05
0.00259346
6.57436e-06
0.00259451
-3.67091e-06
0.00259626
-4.29403e-06
0.00259598
9.99477e-06
0.00259533
3.00223e-06
0.00259668
-3.12642e-06
0.00259823
-1.7931e-06
0.00259716
1.45816e-05
0.00259562
6.41242e-06
0.00259665
-3.23481e-06
0.0025981
-3.45098e-06
0.00259784
7.74545e-06
0.00259735
2.93137e-06
0.0025985
-2.68635e-06
0.00259976
-1.8001e-06
0.00259897
1.04927e-05
0.00259794
5.09697e-06
0.00259891
-2.97268e-06
0.00260005
-2.8362e-06
0.00260001
4.50018e-06
0.00259977
2.18935e-06
0.00260064
-2.17373e-06
0.00260157
-1.98635e-06
0.00260131
4.69993e-06
0.00260086
2.72578e-06
0.00260152
-2.59443e-06
0.00260227
-3.05315e-06
0.00260252
-9.23197e-07
0.00260261
-7.63234e-07
0.0026031
-3.7354e-06
0.00260359
-4.28487e-06
0.00260409
-5.61098e-06
0.00260442
-6.21224e-06
0.00260461
-7.81149e-06
0.00260485
-8.26477e-06
0.00260541
-1.20089e-05
0.00260576
-1.52489e-05
0.00260539
-1.19886e-05
0.00260515
-7.71576e-06
-4.55868e-06
0.00961146
0.0270066
0.00548492
0.0202766
0.00387228
0.00785777
0.00351266
0.00167034
0.00339655
0.000526792
0.00334443
0.000244515
0.0033089
0.000175488
0.00328628
0.00011484
0.00327366
6.70292e-05
0.00326764
3.61282e-05
0.00326641
1.06541e-05
0.00326907
-7.88392e-06
0.00327345
-1.59282e-05
0.00327759
-1.39776e-05
0.00328127
-1.75871e-05
0.00328494
-1.67567e-05
0.00328812
-1.39301e-05
0.00328917
-7.05643e-07
0.00328927
-8.89492e-06
0.00329027
-1.02365e-05
0.00329131
-8.24941e-06
0.00329123
2.55149e-06
0.00329074
-6.76755e-06
0.00329112
-6.27165e-06
0.00329186
-4.98808e-06
0.00329062
1.12922e-05
0.00328882
-5.72818e-06
0.00328897
-9.57981e-06
0.00328965
-7.94419e-06
0.00328921
6.04103e-06
0.00328843
-8.7169e-06
0.00328894
-7.01201e-06
0.00329025
-6.13953e-06
0.00328893
1.67624e-05
0.00328666
-5.60668e-06
0.00328703
-1.05225e-05
0.00328828
-9.23849e-06
0.00328794
9.53396e-06
0.00328692
-7.75725e-06
0.00328767
-6.8012e-06
0.00328948
-6.25167e-06
0.00328805
2.12302e-05
0.00328537
-3.85258e-06
0.0032859
-1.05181e-05
0.00328764
-1.03423e-05
0.00328739
1.16247e-05
0.00328616
-5.76349e-06
0.00328717
-6.49902e-06
0.00328941
-6.53604e-06
0.00328795
2.39327e-05
0.00328499
-5.87242e-07
0.00328565
-9.21434e-06
0.00328775
-1.01462e-05
0.00328753
1.33031e-05
0.00328619
-3.02996e-06
0.00328731
-5.42774e-06
0.0032898
-6.37896e-06
0.00328834
2.47667e-05
0.00328521
2.82651e-06
0.00328599
-8.04384e-06
0.0032883
-1.00382e-05
0.00328815
1.30658e-05
0.00328688
-1.00864e-06
0.00328809
-4.68895e-06
0.00329052
-5.63002e-06
0.00328912
2.37792e-05
0.00328618
5.71227e-06
0.00328713
-6.43052e-06
0.00328958
-9.17902e-06
0.00328953
1.24032e-05
0.00328835
1.68143e-06
0.00328966
-3.88526e-06
0.00329196
-4.70941e-06
0.00329052
2.24376e-05
0.00328784
7.9713e-06
0.00328894
-5.46595e-06
0.00329123
-7.74788e-06
0.00329112
1.14012e-05
0.0032902
2.84839e-06
0.00329168
-4.16839e-06
0.00329376
-4.14443e-06
0.00329241
1.95161e-05
0.00329019
8.69828e-06
0.00329139
-4.66769e-06
0.00329341
-6.16345e-06
0.00329309
1.07571e-05
0.00329234
3.74565e-06
0.00329388
-4.40388e-06
0.00329563
-3.33401e-06
0.00329439
1.6254e-05
0.00329263
8.16539e-06
0.00329381
-4.23046e-06
0.00329547
-4.97234e-06
0.00329517
8.37085e-06
0.00329461
3.5314e-06
0.00329592
-3.77908e-06
0.00329733
-3.05574e-06
0.00329641
1.17082e-05
0.00329524
6.31692e-06
0.00329635
-3.92681e-06
0.00329765
-4.03274e-06
0.0032976
4.76e-06
0.00329732
2.52361e-06
0.0032983
-3.02176e-06
0.00329936
-2.9498e-06
0.00329904
5.14429e-06
0.00329853
3.27346e-06
0.00329928
-3.3044e-06
0.00330013
-3.89366e-06
0.00330041
-1.20512e-06
0.00330052
-9.30053e-07
0.00330106
-4.37455e-06
0.00330162
-4.93916e-06
0.00330219
-6.30105e-06
0.00330256
-6.96033e-06
0.00330278
-8.42017e-06
0.00330304
-8.8227e-06
0.00330369
-1.2874e-05
0.0033041
-1.64439e-05
0.00330368
-1.19771e-05
0.00330346
-5.17332e-06
-2.7783e-07
0.0116949
0.0326367
0.00684372
0.0251276
0.00490847
0.00979297
0.0044617
0.00211692
0.00431586
0.000672459
0.00425212
0.000307987
0.00421023
0.000217188
0.0041843
0.000140544
0.00417053
8.05853e-05
0.00416486
4.16054e-05
0.00416507
1.0034e-05
0.00416993
-1.30618e-05
0.0041768
-2.30733e-05
0.00418331
-2.06091e-05
0.00418909
-2.38911e-05
0.00419459
-2.25326e-05
0.00419928
-1.88381e-05
0.00420133
-2.62789e-06
0.00420207
-1.0521e-05
0.00420365
-1.22364e-05
0.00420516
-1.01065e-05
0.00420532
2.57861e-06
0.00420494
-7.17426e-06
0.00420547
-7.02979e-06
0.0042064
-6.05619e-06
0.00420505
1.30905e-05
0.00420304
-4.91173e-06
0.0042032
-1.0239e-05
0.00420398
-9.11446e-06
0.0042035
6.91941e-06
0.00420264
-8.8907e-06
0.00420322
-7.74585e-06
0.00420471
-7.67775e-06
0.00420323
1.91048e-05
0.00420066
-4.44014e-06
0.00420106
-1.13636e-05
0.00420247
-1.0968e-05
0.00420211
1.06042e-05
0.00420097
-7.71968e-06
0.00420183
-7.68417e-06
0.00420388
-8.19534e-06
0.00420228
2.39953e-05
0.00419923
-2.26832e-06
0.0041998
-1.14645e-05
0.00420178
-1.25574e-05
0.00420152
1.27804e-05
0.00420015
-5.44635e-06
0.0042013
-7.55532e-06
0.00420385
-8.86017e-06
0.00420221
2.69191e-05
0.00419883
1.44027e-06
0.00419956
-1.01742e-05
0.00420194
-1.26274e-05
0.00420172
1.45426e-05
0.00420021
-2.42449e-06
0.00420149
-6.50398e-06
0.00420431
-8.8626e-06
0.00420266
2.78018e-05
0.00419909
5.23229e-06
0.00419995
-9.03484e-06
0.00420258
-1.26812e-05
0.00420244
1.42144e-05
0.00420101
-2.9128e-07
0.00420236
-5.77922e-06
0.00420511
-7.98817e-06
0.00420351
2.66945e-05
0.00420016
8.1879e-06
0.00420122
-7.48745e-06
0.00420403
-1.18647e-05
0.00420401
1.33945e-05
0.00420266
2.55065e-06
0.00420412
-5.01358e-06
0.0042067
-6.85303e-06
0.00420504
2.52747e-05
0.00420198
1.04331e-05
0.00420323
-6.61707e-06
0.00420584
-1.01757e-05
0.00420573
1.23503e-05
0.0042047
3.6182e-06
0.00420636
-5.49398e-06
0.00420869
-6.05816e-06
0.00420713
2.20497e-05
0.0042046
1.08818e-05
0.00420596
-5.8787e-06
0.00420826
-8.22919e-06
0.0042079
1.18131e-05
0.00420705
4.48197e-06
0.00420878
-5.82807e-06
0.00421073
-4.90951e-06
0.0042093
1.84453e-05
0.0042073
9.97516e-06
0.00420865
-5.43638e-06
0.00421054
-6.65145e-06
0.0042102
9.22946e-06
0.00420956
4.14387e-06
0.00421102
-4.99391e-06
0.0042126
-4.33741e-06
0.00421153
1.3313e-05
0.00421019
7.58595e-06
0.00421145
-5.05401e-06
0.00421293
-5.33729e-06
0.00421286
5.16868e-06
0.00421254
2.88044e-06
0.00421364
-3.956e-06
0.00421481
-3.92738e-06
0.00421444
5.79985e-06
0.00421385
3.87453e-06
0.0042147
-4.11255e-06
0.00421565
-4.7963e-06
0.00421597
-1.4963e-06
0.00421608
-1.04308e-06
0.00421669
-5.07871e-06
0.00421731
-5.68749e-06
0.00421795
-7.20445e-06
0.00421837
-7.62503e-06
0.00421859
-9.10705e-06
0.00421889
-9.68815e-06
0.00421963
-1.44132e-05
0.00422011
-1.78746e-05
0.00421963
-1.25313e-05
0.00421946
-8.46906e-06
-4.96466e-06
0.0142754
0.0389776
0.00859208
0.0308107
0.00626512
0.0121198
0.00570501
0.00267688
0.00551968
0.00085765
0.00544096
0.000386543
0.0053915
0.000266489
0.005362
0.000169872
0.00534742
9.49938e-05
0.00534288
4.59953e-05
0.00534559
7.01608e-06
0.0053539
-2.15944e-05
0.00536456
-3.3991e-05
0.0053747
-3.08589e-05
0.0053837
-3.32908e-05
0.00539201
-3.10181e-05
0.00539899
-2.608e-05
0.00540266
-6.30142e-06
0.00540452
-1.29565e-05
0.00540703
-1.50018e-05
0.00540927
-1.26995e-05
0.00540985
2.03956e-06
0.00540972
-7.63387e-06
0.00541051
-7.94745e-06
0.00541167
-7.48739e-06
0.00541026