/*--------------------------------*- C++ -*----------------------------------*\
  =========                 |
  \\      /  F ield         | OpenFOAM: The Open Source CFD Toolbox
   \\    /   O peration     | Website:  https://openfoam.org
    \\  /    A nd           | Version:  8
     \\/     M anipulation  |
\*---------------------------------------------------------------------------*/
FoamFile
{
    version     2.0;
    format      ascii;
    class       volVectorField;
    location    "50";
    object      U;
}
// * * * * * * * * * * * * * * * * * * * * * * * * * * * * * * * * * * * * * //

dimensions      [0 1 -1 0 0 0 0];

internalField   nonuniform List<vector> 
7320
(
(22.3478 -0.802779 0)
(13.2546 0.0034747 0)
(7.39059 0.00396323 0)
(6.2341 0.000825557 0)
(5.89533 0.000212961 0)
(5.7703 6.61454e-05 0)
(5.67203 2.47746e-05 0)
(5.60339 -3.70012e-06 0)
(5.55757 -2.42397e-05 0)
(5.53166 -3.04173e-05 0)
(5.51331 -0.000104508 0)
(5.50812 -9.20654e-05 0)
(5.5083 -8.13536e-05 0)
(5.51254 -4.77574e-05 0)
(5.51344 -0.000125541 0)
(5.518 -8.46156e-05 0)
(5.52176 -5.66659e-05 0)
(5.52658 -2.62879e-06 0)
(5.52165 -0.0001641 0)
(5.52345 -0.00010956 0)
(5.52474 -6.86306e-05 0)
(5.52775 -3.33686e-07 0)
(5.52358 -0.000129443 0)
(5.52473 -6.54425e-05 0)
(5.52516 -1.93314e-05 0)
(5.5285 5.3248e-05 0)
(5.51862 -0.000159716 0)
(5.51918 -9.73339e-05 0)
(5.51965 -4.70153e-05 0)
(5.52302 2.79513e-05 0)
(5.51739 -0.000120448 0)
(5.51894 -5.00229e-05 0)
(5.52001 3.73107e-06 0)
(5.52587 8.68674e-05 0)
(5.51321 -0.000148313 0)
(5.51418 -7.94483e-05 0)
(5.51528 -2.19219e-05 0)
(5.52068 6.16075e-05 0)
(5.51329 -9.91706e-05 0)
(5.5152 -2.58764e-05 0)
(5.51706 3.21544e-05 0)
(5.52463 0.00011881 0)
(5.50987 -0.000122417 0)
(5.51091 -5.60782e-05 0)
(5.5127 1.75427e-06 0)
(5.51987 8.36198e-05 0)
(5.51113 -6.956e-05 0)
(5.51329 -2.48932e-06 0)
(5.51614 5.31305e-05 0)
(5.52494 0.000134689 0)
(5.50886 -8.40853e-05 0)
(5.50986 -2.70194e-05 0)
(5.51236 2.50573e-05 0)
(5.52061 9.79319e-05 0)
(5.51111 -3.68772e-05 0)
(5.51351 1.84055e-05 0)
(5.51683 6.59037e-05 0)
(5.52648 0.000136183 0)
(5.50963 -4.88446e-05 0)
(5.51056 -5.17531e-06 0)
(5.5136 3.67901e-05 0)
(5.52227 9.6323e-05 0)
(5.51273 -1.04742e-05 0)
(5.51568 3.08489e-05 0)
(5.51908 6.76808e-05 0)
(5.52861 0.000123841 0)
(5.51226 -1.60219e-05 0)
(5.51358 1.42696e-05 0)
(5.51694 4.44509e-05 0)
(5.52592 9.03418e-05 0)
(5.51661 1.01618e-05 0)
(5.51986 3.85801e-05 0)
(5.5236 6.4157e-05 0)
(5.53233 0.000108021 0)
(5.51671 2.52353e-06 0)
(5.51853 2.25265e-05 0)
(5.52212 4.25736e-05 0)
(5.53011 7.83996e-05 0)
(5.52149 1.67631e-05 0)
(5.5253 3.71774e-05 0)
(5.52927 5.42623e-05 0)
(5.53667 9.02113e-05 0)
(5.52285 5.63459e-06 0)
(5.52513 2.15992e-05 0)
(5.52875 3.5313e-05 0)
(5.53543 6.74207e-05 0)
(5.52721 1.09858e-05 0)
(5.53155 3.03086e-05 0)
(5.53524 4.36707e-05 0)
(5.5411 7.82988e-05 0)
(5.52932 -6.04909e-06 0)
(5.53181 1.33454e-05 0)
(5.53505 2.60044e-05 0)
(5.54029 6.07201e-05 0)
(5.53368 -8.25339e-07 0)
(5.53746 2.49473e-05 0)
(5.54053 3.89423e-05 0)
(5.54521 7.74641e-05 0)
(5.53617 -1.7284e-05 0)
(5.53903 1.07275e-05 0)
(5.54167 2.62413e-05 0)
(5.54575 6.66369e-05 0)
(5.54153 -4.98268e-06 0)
(5.54438 2.99456e-05 0)
(5.54671 4.67845e-05 0)
(5.55011 8.87712e-05 0)
(5.54534 -1.19384e-05 0)
(5.54742 2.37176e-05 0)
(5.54919 4.09236e-05 0)
(5.55184 8.15618e-05 0)
(5.55069 1.57056e-05 0)
(5.55242 5.18545e-05 0)
(5.55362 6.67507e-05 0)
(5.5554 9.85754e-05 0)
(5.55651 3.65411e-05 0)
(5.55736 6.33338e-05 0)
(5.55781 7.14638e-05 0)
(5.5587 8.94578e-05 0)
(5.56095 7.67898e-05 0)
(5.56068 8.85746e-05 0)
(5.55876 6.48188e-05 0)
(5.55819 4.77921e-05 0)
(25.9836 0.162396 0)
(14.035 0.0157478 0)
(7.76864 0.00673803 0)
(6.57378 0.00139799 0)
(6.22453 0.000390249 0)
(6.09488 0.000149834 0)
(5.99235 8.79791e-05 0)
(5.92083 3.75796e-05 0)
(5.87327 -4.28434e-07 0)
(5.84653 -1.76932e-05 0)
(5.82759 -0.000102193 0)
(5.82234 -9.58434e-05 0)
(5.8225 -8.7875e-05 0)
(5.82668 -5.26693e-05 0)
(5.82721 -0.000135274 0)
(5.83154 -9.26591e-05 0)
(5.83497 -6.2893e-05 0)
(5.83948 -2.2553e-06 0)
(5.83375 -0.000173784 0)
(5.8352 -0.000117246 0)
(5.83616 -7.38909e-05 0)
(5.83899 6.62974e-07 0)
(5.83439 -0.000137459 0)
(5.83553 -7.06749e-05 0)
(5.83594 -2.20593e-05 0)
(5.83936 5.92311e-05 0)
(5.82889 -0.000169949 0)
(5.82949 -0.000105548 0)
(5.82994 -5.2023e-05 0)
(5.8334 3.13525e-05 0)
(5.82742 -0.000130222 0)
(5.82906 -5.52152e-05 0)
(5.83018 1.91062e-06 0)
(5.83628 9.76722e-05 0)
(5.8229 -0.000159263 0)
(5.82399 -8.74944e-05 0)
(5.82517 -2.59566e-05 0)
(5.83081 6.89899e-05 0)
(5.82299 -0.000107952 0)
(5.82504 -2.9512e-05 0)
(5.827 3.23464e-05 0)
(5.83491 0.000133943 0)
(5.8193 -0.00013161 0)
(5.82046 -6.27702e-05 0)
(5.82237 -1.15371e-06 0)
(5.82989 9.3444e-05 0)
(5.82063 -7.58996e-05 0)
(5.82294 -4.50387e-06 0)
(5.82594 5.45776e-05 0)
(5.83515 0.000151912 0)
(5.81814 -8.97465e-05 0)
(5.81926 -3.1487e-05 0)
(5.82191 2.35194e-05 0)
(5.83056 0.000109079 0)
(5.8205 -4.02383e-05 0)
(5.82306 1.79293e-05 0)
(5.82656 6.78801e-05 0)
(5.83666 0.000153413 0)
(5.81885 -5.10886e-05 0)
(5.81988 -8.03986e-06 0)
(5.82311 3.56624e-05 0)
(5.8322 0.000106812 0)
(5.82211 -1.16711e-05 0)
(5.82523 3.10116e-05 0)
(5.82881 6.94348e-05 0)
(5.8388 0.000139313 0)
(5.82151 -1.55138e-05 0)
(5.82296 1.27386e-05 0)
(5.82652 4.35481e-05 0)
(5.83595 9.96916e-05 0)
(5.8261 1.0692e-05 0)
(5.82954 3.89903e-05 0)
(5.83348 6.54654e-05 0)
(5.84262 0.000121629 0)
(5.82613 4.41174e-06 0)
(5.82809 2.13693e-05 0)
(5.8319 4.16378e-05 0)
(5.84029 8.64303e-05 0)
(5.83117 1.76436e-05 0)
(5.8352 3.7108e-05 0)
(5.83938 5.49856e-05 0)
(5.84713 0.00010174 0)
(5.83254 7.52757e-06 0)
(5.835 2.04154e-05 0)
(5.83883 3.43854e-05 0)
(5.84585 7.46492e-05 0)
(5.83716 1.16054e-05 0)
(5.84175 2.97354e-05 0)
(5.84564 4.42216e-05 0)
(5.85177 8.82975e-05 0)
(5.83935 -5.02192e-06 0)
(5.84201 1.19877e-05 0)
(5.84545 2.52129e-05 0)
(5.85095 6.69808e-05 0)
(5.84397 -6.74868e-07 0)
(5.84796 2.45545e-05 0)
(5.8512 3.96431e-05 0)
(5.85611 8.59665e-05 0)
(5.84657 -1.67787e-05 0)
(5.84962 9.84686e-06 0)
(5.85241 2.61776e-05 0)
(5.85669 7.18719e-05 0)
(5.85224 -4.53818e-06 0)
(5.85524 3.04062e-05 0)
(5.8577 4.79531e-05 0)
(5.86127 9.47723e-05 0)
(5.85624 -1.09951e-05 0)
(5.85845 2.40266e-05 0)
(5.86032 4.14393e-05 0)
(5.86311 8.40611e-05 0)
(5.8619 1.63049e-05 0)
(5.86372 5.20532e-05 0)
(5.865 6.68886e-05 0)
(5.86688 9.85552e-05 0)
(5.86806 3.50955e-05 0)
(5.86896 6.17075e-05 0)
(5.86944 6.98135e-05 0)
(5.87041 8.61723e-05 0)
(5.87281 7.19123e-05 0)
(5.87254 8.59327e-05 0)
(5.87054 6.21915e-05 0)
(5.86998 4.67209e-05 0)
(27.5579 0.0904036 0)
(14.3153 0.026537 0)
(7.94931 0.0111433 0)
(6.74896 0.00229555 0)
(6.39718 0.00066617 0)
(6.26635 0.000282042 0)
(6.16293 0.000188453 0)
(6.091 0.000104713 0)
(6.04338 3.96002e-05 0)
(6.01682 5.02459e-06 0)
(5.99814 -9.21311e-05 0)
(5.99323 -9.65704e-05 0)
(5.99365 -9.41357e-05 0)
(5.99797 -5.83206e-05 0)
(5.99851 -0.000143181 0)
(6.00281 -0.000100873 0)
(6.00615 -7.07777e-05 0)
(6.01053 -2.98596e-06 0)
(6.00456 -0.000178987 0)
(6.00586 -0.000123642 0)
(6.00664 -7.98927e-05 0)
(6.00932 5.45471e-07 0)
(6.00455 -0.000142741 0)
(6.00564 -7.59154e-05 0)
(6.00602 -2.70956e-05 0)
(6.00943 6.3832e-05 0)
(5.99883 -0.000175087 0)
(5.99944 -0.000112914 0)
(5.99988 -5.86661e-05 0)
(6.00333 3.28404e-05 0)
(5.99727 -0.000137391 0)
(5.99894 -6.13597e-05 0)
(6.00007 -3.80315e-06 0)
(6.00619 0.000105959 0)
(5.99266 -0.00016523 0)
(5.99379 -9.58495e-05 0)
(5.99499 -3.31994e-05 0)
(6.00067 7.34055e-05 0)
(5.99277 -0.000114782 0)
(5.99486 -3.52679e-05 0)
(5.99685 2.73552e-05 0)
(6.00479 0.000146169 0)
(5.989 -0.000136531 0)
(5.99021 -7.08483e-05 0)
(5.99215 -8.36323e-06 0)
(5.99972 0.000100099 0)
(5.99037 -8.1055e-05 0)
(5.99272 -9.47856e-06 0)
(5.99576 5.02993e-05 0)
(6.00501 0.000166767 0)
(5.98781 -9.21967e-05 0)
(5.98897 -3.82809e-05 0)
(5.99166 1.71185e-05 0)
(6.00037 0.000117501 0)
(5.9902 -4.31831e-05 0)
(5.99279 1.41358e-05 0)
(5.99633 6.43478e-05 0)
(6.00649 0.000169478 0)
(5.98847 -5.09362e-05 0)
(5.98954 -1.3631e-05 0)
(5.99282 2.98837e-05 0)
(6.00199 0.000115643 0)
(5.99177 -1.293e-05 0)
(5.99494 2.80722e-05 0)
(5.99855 6.67741e-05 0)
(6.00859 0.000155264 0)
(5.9911 -1.31976e-05 0)
(5.99259 8.54155e-06 0)
(5.99621 3.86793e-05 0)
(6.00572 0.000108623 0)
(5.99575 1.12416e-05 0)
(5.99923 3.68364e-05 0)
(6.0032 6.36473e-05 0)
(6.01239 0.000137286 0)
(5.99571 8.11939e-06 0)
(5.99772 1.79887e-05 0)
(6.00159 3.78491e-05 0)
(6.01005 9.52682e-05 0)
(6.00083 1.89156e-05 0)
(6.00491 3.51107e-05 0)
(6.00912 5.38356e-05 0)
(6.0169 0.00011627 0)
(6.00215 1.15349e-05 0)
(6.00467 1.77267e-05 0)
(6.00855 3.17539e-05 0)
(6.01562 8.36478e-05 0)
(6.00683 1.32853e-05 0)
(6.01148 2.79122e-05 0)
(6.0154 4.39105e-05 0)
(6.02156 0.000101556 0)
(6.00899 -1.45723e-06 0)
(6.01173 9.86896e-06 0)
(6.01521 2.35888e-05 0)
(6.02075 7.51217e-05 0)
(6.01368 1.0051e-06 0)
(6.01773 2.36093e-05 0)
(6.02099 4.00025e-05 0)
(6.02592 9.71734e-05 0)
(6.01628 -1.37157e-05 0)
(6.01938 8.76597e-06 0)
(6.02222 2.58798e-05 0)
(6.02652 7.86388e-05 0)
(6.02202 -2.47705e-06 0)
(6.02506 3.09563e-05 0)
(6.02754 4.92033e-05 0)
(6.03113 0.000102617 0)
(6.02604 -7.97074e-06 0)
(6.02829 2.489e-05 0)
(6.03018 4.24327e-05 0)
(6.03299 8.79744e-05 0)
(6.03177 1.83681e-05 0)
(6.0336 5.34191e-05 0)
(6.03489 6.81714e-05 0)
(6.03679 0.000100092 0)
(6.03798 3.55909e-05 0)
(6.03889 6.26399e-05 0)
(6.03937 7.05924e-05 0)
(6.04035 8.54039e-05 0)
(6.04278 7.04711e-05 0)
(6.0425 8.77414e-05 0)
(6.04049 6.41181e-05 0)
(6.04005 4.8843e-05 0)
(28.2578 0.0675802 0)
(14.5324 0.0418862 0)
(8.13401 0.0170434 0)
(6.92973 0.00350006 0)
(6.57495 0.0010386 0)
(6.4431 0.000460628 0)
(6.33944 0.000322671 0)
(6.26767 0.000194499 0)
(6.2204 9.33811e-05 0)
(6.19434 3.5897e-05 0)
(6.17625 -7.89432e-05 0)
(6.17191 -9.76226e-05 0)
(6.17283 -0.000102256 0)
(6.17753 -6.54148e-05 0)
(6.17835 -0.000152948 0)
(6.18283 -0.000111075 0)
(6.18627 -8.0464e-05 0)
(6.19067 -3.30652e-06 0)
(6.18472 -0.000183935 0)
(6.18598 -0.000130788 0)
(6.1867 -8.68719e-05 0)
(6.18929 8.75448e-07 0)
(6.18449 -0.000147827 0)
(6.18553 -8.16405e-05 0)
(6.18588 -3.3067e-05 0)
(6.18925 7.00069e-05 0)
(6.17867 -0.000178789 0)
(6.17927 -0.000120719 0)
(6.17969 -6.63284e-05 0)
(6.18311 3.4894e-05 0)
(6.17708 -0.000144027 0)
(6.17874 -6.8144e-05 0)
(6.17986 -1.10953e-05 0)
(6.18594 0.000115805 0)
(6.17245 -0.000169072 0)
(6.17358 -0.000104778 0)
(6.17478 -4.20027e-05 0)
(6.18043 7.82959e-05 0)
(6.17257 -0.000120654 0)
(6.17467 -4.18391e-05 0)
(6.17665 2.03069e-05 0)
(6.18454 0.000160037 0)
(6.1688 -0.000138734 0)
(6.17001 -7.95739e-05 0)
(6.17195 -1.75693e-05 0)
(6.17949 0.000107173 0)
(6.17017 -8.48917e-05 0)
(6.17253 -1.54615e-05 0)
(6.17558 4.35772e-05 0)
(6.18476 0.000183309 0)
(6.1676 -9.15253e-05 0)
(6.16876 -4.58078e-05 0)
(6.17146 8.43893e-06 0)
(6.18013 0.000126325 0)
(6.16999 -4.46049e-05 0)
(6.1726 9.23709e-06 0)
(6.17613 5.82023e-05 0)
(6.18622 0.000187267 0)
(6.16824 -4.74137e-05 0)
(6.16932 -2.00225e-05 0)
(6.17261 2.17189e-05 0)
(6.18174 0.00012486 0)
(6.17155 -1.26875e-05 0)
(6.17471 2.39591e-05 0)
(6.17831 6.16232e-05 0)
(6.18828 0.000172927 0)
(6.17083 -7.6544e-06 0)
(6.17233 3.41998e-06 0)
(6.17597 3.13858e-05 0)
(6.18544 0.000117895 0)
(6.17549 1.3233e-05 0)
(6.17897 3.34205e-05 0)
(6.18291 5.95464e-05 0)
(6.19202 0.000154745 0)
(6.17538 1.48136e-05 0)
(6.17742 1.35593e-05 0)
(6.18129 3.18812e-05 0)
(6.18972 0.000104576 0)
(6.18052 2.13937e-05 0)
(6.18459 3.17267e-05 0)
(6.18878 5.07067e-05 0)
(6.19649 0.000132569 0)
(6.18178 1.80653e-05 0)
(6.18431 1.39287e-05 0)
(6.18821 2.7276e-05 0)
(6.19523 9.3369e-05 0)
(6.18646 1.59861e-05 0)
(6.19112 2.46847e-05 0)
(6.19501 4.20296e-05 0)
(6.20111 0.000116525 0)
(6.18858 4.16297e-06 0)
(6.19134 6.72834e-06 0)
(6.19483 2.05263e-05 0)
(6.20033 8.40022e-05 0)
(6.19328 3.50398e-06 0)
(6.19732 2.1566e-05 0)
(6.20057 3.91685e-05 0)
(6.20544 0.000109811 0)
(6.19584 -9.18885e-06 0)
(6.19895 6.83982e-06 0)
(6.20179 2.45708e-05 0)
(6.20606 8.59896e-05 0)
(6.20157 1.63215e-07 0)
(6.20461 3.08863e-05 0)
(6.20707 4.97447e-05 0)
(6.21062 0.000111397 0)
(6.20556 -4.03733e-06 0)
(6.20781 2.55084e-05 0)
(6.20969 4.30852e-05 0)
(6.21249 9.23631e-05 0)
(6.21127 2.0906e-05 0)
(6.21309 5.49965e-05 0)
(6.21437 6.96044e-05 0)
(6.21626 0.000101986 0)
(6.21746 3.68218e-05 0)
(6.21835 6.46538e-05 0)
(6.21883 7.22591e-05 0)
(6.21981 8.5228e-05 0)
(6.22224 7.04716e-05 0)
(6.22196 9.17327e-05 0)
(6.21996 6.53471e-05 0)
(6.21966 4.9287e-05 0)
(28.633 0.0901824 0)
(14.7714 0.0611175 0)
(8.36195 0.0242864 0)
(7.1498 0.00498589 0)
(6.79001 0.00150087 0)
(6.65671 0.000681623 0)
(6.55302 0.000486888 0)
(6.48166 0.000304101 0)
(6.435 0.000158845 0)
(6.40965 7.33265e-05 0)
(6.39244 -6.3748e-05 0)
(6.38892 -9.97125e-05 0)
(6.3906 -0.000112808 0)
(6.39595 -7.44647e-05 0)
(6.39736 -0.000164846 0)
(6.40223 -0.000123349 0)
(6.40597 -9.21044e-05 0)
(6.41054 -3.5544e-06 0)
(6.40482 -0.000188697 0)
(6.40614 -0.000138534 0)
(6.40689 -9.48248e-05 0)
(6.40945 1.53207e-06 0)
(6.40471 -0.000152727 0)
(6.40573 -8.76695e-05 0)
(6.40606 -3.99672e-05 0)
(6.40937 7.74745e-05 0)
(6.39892 -0.00018108 0)
(6.39949 -0.000128681 0)
(6.39989 -7.49216e-05 0)
(6.40326 3.74047e-05 0)
(6.3973 -0.000150083 0)
(6.39894 -7.53479e-05 0)
(6.40004 -1.99229e-05 0)
(6.40604 0.000126796 0)
(6.39272 -0.000170813 0)
(6.39382 -0.000113962 0)
(6.395 -5.22513e-05 0)
(6.40059 8.34608e-05 0)
(6.39284 -0.000125559 0)
(6.39491 -4.90073e-05 0)
(6.39688 1.12518e-05 0)
(6.40466 0.000175027 0)
(6.38911 -0.000138284 0)
(6.39029 -8.86265e-05 0)
(6.39221 -2.86185e-05 0)
(6.39967 0.000114425 0)
(6.39048 -8.74412e-05 0)
(6.39282 -2.22346e-05 0)
(6.39584 3.45058e-05 0)
(6.4049 0.000200985 0)
(6.38793 -8.78357e-05 0)
(6.38907 -5.37558e-05 0)
(6.39174 -2.32181e-06 0)
(6.40031 0.000135301 0)
(6.39031 -4.45451e-05 0)
(6.39289 3.45592e-06 0)
(6.39639 4.95905e-05 0)
(6.40633 0.000206225 0)
(6.38856 -4.06378e-05 0)
(6.38961 -2.69093e-05 0)
(6.39288 1.14103e-05 0)
(6.40191 0.000134232 0)
(6.39185 -1.09522e-05 0)
(6.39497 1.89126e-05 0)
(6.39852 5.41798e-05 0)
(6.40834 0.000191788 0)
(6.39109 1.03095e-06 0)
(6.39258 -2.32454e-06 0)
(6.3962 2.19522e-05 0)
(6.40557 0.000127297 0)
(6.39574 1.67087e-05 0)
(6.39917 2.90051e-05 0)
(6.40305 5.33821e-05 0)
(6.41201 0.000173491 0)
(6.39556 2.44767e-05 0)
(6.39758 8.39717e-06 0)
(6.40144 2.40158e-05 0)
(6.40976 0.000114116 0)
(6.40067 2.51723e-05 0)
(6.40471 2.72218e-05 0)
(6.40883 4.57865e-05 0)
(6.4164 0.000150105 0)
(6.40186 2.71702e-05 0)
(6.40439 9.33004e-06 0)
(6.40826 2.11872e-05 0)
(6.41519 0.000103517 0)
(6.40652 1.98265e-05 0)
(6.41112 2.0297e-05 0)
(6.41496 3.86775e-05 0)
(6.42094 0.000132636 0)
(6.40857 1.19169e-05 0)
(6.41132 2.82907e-06 0)
(6.41479 1.61681e-05 0)
(6.42021 9.32939e-05 0)
(6.41324 6.90445e-06 0)
(6.41723 1.85818e-05 0)
(6.42043 3.71298e-05 0)
(6.42522 0.000123322 0)
(6.41572 -3.18351e-06 0)
(6.41882 4.22271e-06 0)
(6.42164 2.22485e-05 0)
(6.42585 9.35868e-05 0)
(6.4214 3.33113e-06 0)
(6.42441 3.02048e-05 0)
(6.42684 4.94259e-05 0)
(6.43033 0.000120647 0)
(6.42532 6.37747e-07 0)
(6.42755 2.5828e-05 0)
(6.42942 4.3215e-05 0)
(6.43218 9.69434e-05 0)
(6.43098 2.36427e-05 0)
(6.43278 5.6602e-05 0)
(6.43404 7.09138e-05 0)
(6.4359 0.000104005 0)
(6.4371 3.83425e-05 0)
(6.43796 6.73975e-05 0)
(6.43843 7.44935e-05 0)
(6.43941 8.55184e-05 0)
(6.44182 7.1417e-05 0)
(6.44154 9.74378e-05 0)
(6.43957 6.80189e-05 0)
(6.43943 5.02446e-05 0)
(28.9086 0.122481 0)
(15.0624 0.0841409 0)
(8.64841 0.0329507 0)
(7.4224 0.00678002 0)
(7.05497 0.00206284 0)
(6.91959 0.000948384 0)
(6.81593 0.000682793 0)
(6.7452 0.000434169 0)
(6.69937 0.000235989 0)
(6.67498 0.000116727 0)
(6.65895 -4.7041e-05 0)
(6.65657 -0.000103657 0)
(6.65936 -0.000126734 0)
(6.66568 -8.64925e-05 0)
(6.66799 -0.000179507 0)
(6.67353 -0.000138293 0)
(6.67779 -0.000106199 0)
(6.68271 -4.17065e-06 0)
(6.67742 -0.000193395 0)
(6.67892 -0.000146928 0)
(6.67977 -0.000103774 0)
(6.68237 2.54179e-06 0)
(6.67778 -0.000157342 0)
(6.6788 -9.3896e-05 0)
(6.67914 -4.77024e-05 0)
(6.68238 8.63082e-05 0)
(6.67214 -0.000181883 0)
(6.67267 -0.000136703 0)
(6.67304 -8.43611e-05 0)
(6.67634 4.04874e-05 0)
(6.67051 -0.000155552 0)
(6.67212 -8.28897e-05 0)
(6.6732 -3.01754e-05 0)
(6.67908 0.000139112 0)
(6.66602 -0.00017051 0)
(6.66707 -0.000123368 0)
(6.66822 -6.38858e-05 0)
(6.67371 8.905e-05 0)
(6.66614 -0.000129566 0)
(6.66817 -5.67226e-05 0)
(6.67012 3.09892e-07 0)
(6.67773 0.000191371 0)
(6.66248 -0.000135309 0)
(6.66361 -9.80256e-05 0)
(6.6655 -4.1482e-05 0)
(6.67282 0.000122001 0)
(6.66384 -8.88208e-05 0)
(6.66613 -2.97811e-05 0)
(6.66912 2.31922e-05 0)
(6.67799 0.000220029 0)
(6.66135 -8.12741e-05 0)
(6.66243 -6.21709e-05 0)
(6.66506 -1.51516e-05 0)
(6.67348 0.000144555 0)
(6.66369 -4.31228e-05 0)
(6.66622 -3.21011e-06 0)
(6.66966 3.86052e-05 0)
(6.67941 0.000226548 0)
(6.66196 -3.07383e-05 0)
(6.66297 -3.43631e-05 0)
(6.6662 -1.06142e-06 0)
(6.67507 0.000143827 0)
(6.66521 -7.81816e-06 0)
(6.66827 1.29127e-05 0)
(6.67175 4.45063e-05 0)
(6.68135 0.000211959 0)
(6.66442 1.27743e-05 0)
(6.66588 -8.77954e-06 0)
(6.66946 1.03323e-05 0)
(6.67866 0.000136814 0)
(6.66903 2.1616e-05 0)
(6.67238 2.35487e-05 0)
(6.67617 4.51799e-05 0)
(6.68491 0.000193532 0)
(6.66876 3.70767e-05 0)
(6.67076 2.39911e-06 0)
(6.67457 1.41796e-05 0)
(6.68274 0.000123784 0)
(6.67384 3.02211e-05 0)
(6.6778 2.15105e-05 0)
(6.68182 3.90378e-05 0)
(6.6892 0.000168767 0)
(6.67493 3.88578e-05 0)
(6.67743 3.8127e-06 0)
(6.68124 1.33865e-05 0)
(6.68803 0.000113912 0)
(6.67953 2.47965e-05 0)
(6.68406 1.46251e-05 0)
(6.68781 3.3757e-05 0)
(6.69363 0.00014968 0)
(6.68148 2.18222e-05 0)
(6.68422 -1.97252e-06 0)
(6.68764 1.03768e-05 0)
(6.69294 0.000102757 0)
(6.6861 1.11859e-05 0)
(6.69002 1.4495e-05 0)
(6.69315 3.37233e-05 0)
(6.6978 0.000137415 0)
(6.68849 4.27782e-06 0)
(6.69154 7.26358e-07 0)
(6.69432 1.87091e-05 0)
(6.69844 0.000101113 0)
(6.69408 6.93154e-06 0)
(6.69703 2.86729e-05 0)
(6.6994 4.79859e-05 0)
(6.7028 0.000129982 0)
(6.69789 5.90535e-06 0)
(6.70009 2.55487e-05 0)
(6.70192 4.24924e-05 0)
(6.70462 0.00010126 0)
(6.70345 2.62976e-05 0)
(6.70521 5.78061e-05 0)
(6.70644 7.16366e-05 0)
(6.70826 0.000105536 0)
(6.70945 3.9616e-05 0)
(6.71028 7.01666e-05 0)
(6.71074 7.65682e-05 0)
(6.71171 8.53622e-05 0)
(6.7141 7.22911e-05 0)
(6.71383 0.000103706 0)
(6.71188 7.04618e-05 0)
(6.71192 4.9525e-05 0)
(29.1737 0.157884 0)
(15.4223 0.11145 0)
(9.00415 0.0432925 0)
(7.75694 0.00895224 0)
(7.37876 0.00274827 0)
(7.24049 0.00127013 0)
(7.13691 0.000915554 0)
(7.06703 0.000587486 0)
(7.02231 0.000325875 0)
(6.99919 0.000165948 0)
(6.98474 -2.97116e-05 0)
(6.98389 -0.000110987 0)
(6.98818 -0.000145871 0)
(6.99587 -0.00010327 0)
(6.9995 -0.00019844 0)
(7.00603 -0.000157222 0)
(7.01109 -0.000123871 0)
(7.01658 -5.88746e-06 0)
(7.01195 -0.000198391 0)
(7.01374 -0.000156281 0)
(7.01481 -0.000114014 0)
(7.0175 3.79485e-06 0)
(7.01316 -0.000161656 0)
(7.01421 -0.000100332 0)
(7.01458 -5.63819e-05 0)
(7.01775 9.65899e-05 0)
(7.00781 -0.000180937 0)
(7.0083 -0.000144694 0)
(7.00864 -9.46967e-05 0)
(7.01185 4.41992e-05 0)
(7.0062 -0.00016031 0)
(7.00775 -9.07413e-05 0)
(7.00882 -4.19804e-05 0)
(7.01454 0.000152859 0)
(7.00184 -0.000167835 0)
(7.00283 -0.000132915 0)
(7.00393 -7.70125e-05 0)
(7.0093 9.50973e-05 0)
(7.00196 -0.000132522 0)
(7.00393 -6.49795e-05 0)
(7.00584 -1.26894e-05 0)
(7.01325 0.000209175 0)
(6.9984 -0.000129407 0)
(6.99946 -0.000107699 0)
(7.00129 -5.63174e-05 0)
(7.00845 0.0001299 0)
(6.99974 -8.8839e-05 0)
(7.00197 -3.81297e-05 0)
(7.00491 9.41566e-06 0)
(7.01354 0.000240523 0)
(6.99733 -7.13688e-05 0)
(6.99834 -7.09918e-05 0)
(7.00091 -3.02451e-05 0)
(7.00913 0.000154052 0)
(6.99962 -4.01057e-05 0)
(7.00208 -1.08091e-05 0)
(7.00545 2.4994e-05 0)
(7.01493 0.000248266 0)
(6.99793 -1.71955e-05 0)
(6.99887 -4.23533e-05 0)
(7.00204 -1.59324e-05 0)
(7.0107 0.000153552 0)
(7.00112 -3.04448e-06 0)
(7.00409 5.88483e-06 0)
(7.00747 3.23472e-05 0)
(7.0168 0.000233418 0)
(7.00029 2.80721e-05 0)
(7.00169 -1.59783e-05 0)
(7.00521 -3.75326e-06 0)
(7.01421 0.000146291 0)
(7.00484 2.81875e-05 0)
(7.00809 1.69366e-05 0)
(7.01176 3.46839e-05 0)
(7.02022 0.000214807 0)
(7.00447 5.30676e-05 0)
(7.00642 -4.53106e-06 0)
(7.01016 2.08709e-06 0)
(7.01814 0.000133395 0)
(7.00948 3.6717e-05 0)
(7.01334 1.44105e-05 0)
(7.01723 3.01989e-05 0)
(7.02436 0.000188459 0)
(7.01045 5.34922e-05 0)
(7.0129 -2.78114e-06 0)
(7.01664 3.59598e-06 0)
(7.02325 0.000124383 0)
(7.01497 3.10273e-05 0)
(7.01938 7.4433e-06 0)
(7.02302 2.70165e-05 0)
(7.02863 0.000167547 0)
(7.0168 3.41408e-05 0)
(7.01949 -7.87818e-06 0)
(7.02284 2.89196e-06 0)
(7.02801 0.000112231 0)
(7.02134 1.64246e-05 0)
(7.02515 9.08529e-06 0)
(7.02818 2.87196e-05 0)
(7.03267 0.00015198 0)
(7.02359 1.33363e-05 0)
(7.02658 -3.86862e-06 0)
(7.0293 1.37096e-05 0)
(7.03331 0.000108401 0)
(7.02906 1.09566e-05 0)
(7.03192 2.60774e-05 0)
(7.03422 4.5203e-05 0)
(7.0375 0.000139245 0)
(7.03273 1.17532e-05 0)
(7.03486 2.44464e-05 0)
(7.03665 4.0674e-05 0)
(7.03928 0.000105096 0)
(7.03815 2.87132e-05 0)
(7.03985 5.83678e-05 0)
(7.04104 7.15186e-05 0)
(7.04281 0.000106297 0)
(7.04399 4.03152e-05 0)
(7.04477 7.26399e-05 0)
(7.04521 7.81712e-05 0)
(7.04617 8.44334e-05 0)
(7.04851 7.26029e-05 0)
(7.04826 0.000110219 0)
(7.04635 7.30229e-05 0)
(7.0466 4.81002e-05 0)
(29.4666 0.198132 0)
(15.8647 0.143765 0)
(9.43983 0.0556531 0)
(8.16282 0.0115994 0)
(7.77022 0.0035903 0)
(7.6281 0.00165919 0)
(7.52461 0.00119157 0)
(7.45583 0.000767145 0)
(7.41256 0.000429364 0)
(7.39112 0.000220205 0)
(7.37874 -1.36799e-05 0)
(7.37991 -0.000124456 0)
(7.38624 -0.000173268 0)
(7.3958 -0.00012772 0)
(7.40124 -0.000224293 0)
(7.40916 -0.000182421 0)
(7.41537 -0.000146966 0)
(7.42168 -9.92507e-06 0)
(7.41797 -0.000204636 0)
(7.42022 -0.000167323 0)
(7.42163 -0.000126118 0)
(7.4245 5.06043e-06 0)
(7.4205 -0.000165911 0)
(7.42163 -0.00010714 0)
(7.42206 -6.61791e-05 0)
(7.42517 0.000108496 0)
(7.41561 -0.000178196 0)
(7.41606 -0.00015267 0)
(7.41637 -0.000106048 0)
(7.41947 4.86525e-05 0)
(7.41405 -0.000164395 0)
(7.41555 -9.89249e-05 0)
(7.41658 -5.54919e-05 0)
(7.42211 0.000168321 0)
(7.40987 -0.000162657 0)
(7.41077 -0.000142583 0)
(7.41182 -9.18057e-05 0)
(7.41703 0.000101737 0)
(7.40999 -0.000134425 0)
(7.41189 -7.3785e-05 0)
(7.41374 -2.79404e-05 0)
(7.42091 0.000228776 0)
(7.40657 -0.000120358 0)
(7.40753 -0.000117599 0)
(7.4093 -7.33545e-05 0)
(7.41625 0.00013825 0)
(7.40788 -8.74474e-05 0)
(7.41004 -4.72951e-05 0)
(7.4129 -7.0755e-06 0)
(7.42125 0.000262799 0)
(7.40557 -5.78108e-05 0)
(7.40649 -8.01498e-05 0)
(7.40898 -4.78681e-05 0)
(7.41695 0.000163902 0)
(7.4078 -3.53871e-05 0)
(7.41017 -1.93512e-05 0)
(7.41344 8.47849e-06 0)
(7.42261 0.000271676 0)
(7.40616 3.6683e-07 0)
(7.40701 -5.08278e-05 0)
(7.4101 -3.35137e-05 0)
(7.41852 0.000163464 0)
(7.40928 3.50556e-06 0)
(7.41213 -2.19174e-06 0)
(7.41538 1.74347e-05 0)
(7.42438 0.000256407 0)
(7.4084 4.73028e-05 0)
(7.40973 -2.39319e-05 0)
(7.41317 -2.06538e-05 0)
(7.42191 0.000155717 0)
(7.41287 3.65735e-05 0)
(7.41599 9.11235e-06 0)
(7.4195 2.165e-05 0)
(7.42763 0.000237522 0)
(7.41238 7.28046e-05 0)
(7.41425 -1.24775e-05 0)
(7.41791 -1.25981e-05 0)
(7.42564 0.000142905 0)
(7.41729 4.47697e-05 0)
(7.42102 5.78551e-06 0)
(7.42476 1.90407e-05 0)
(7.43159 0.000209342 0)
(7.41811 7.13546e-05 0)
(7.42048 -1.06111e-05 0)
(7.42413 -8.48633e-06 0)
(7.43053 0.000134905 0)
(7.42252 3.86028e-05 0)
(7.42679 -1.43975e-06 0)
(7.43028 1.82618e-05 0)
(7.43565 0.000186378 0)
(7.42419 4.90603e-05 0)
(7.42682 -1.51079e-05 0)
(7.43009 -6.54457e-06 0)
(7.43508 0.000121708 0)
(7.42862 2.2674e-05 0)
(7.4323 2.17255e-06 0)
(7.4352 2.19779e-05 0)
(7.43949 0.000167148 0)
(7.43071 2.40919e-05 0)
(7.43361 -9.77949e-06 0)
(7.43625 7.0583e-06 0)
(7.44012 0.000115457 0)
(7.436 1.54177e-05 0)
(7.43876 2.22776e-05 0)
(7.44097 4.09932e-05 0)
(7.44411 0.000148541 0)
(7.43948 1.81937e-05 0)
(7.44154 2.23651e-05 0)
(7.44328 3.76499e-05 0)
(7.44581 0.000108452 0)
(7.44472 3.08491e-05 0)
(7.44635 5.8203e-05 0)
(7.4475 7.05241e-05 0)
(7.44919 0.00010628 0)
(7.45036 4.03226e-05 0)
(7.45108 7.47383e-05 0)
(7.4515 7.92468e-05 0)
(7.45243 8.26421e-05 0)
(7.45472 7.21879e-05 0)
(7.4545 0.000116935 0)
(7.45263 7.55613e-05 0)
(7.45314 4.53358e-05 0)
(29.8054 0.244566 0)
(16.4024 0.181918 0)
(9.96738 0.0704474 0)
(8.6505 0.0148481 0)
(8.23906 0.00463292 0)
(8.09183 0.00213121 0)
(7.98838 0.0015181 0)
(7.92101 0.000976076 0)
(7.8796 0.000546548 0)
(7.86032 0.000277483 0)
(7.8506 -2.36641e-06 0)
(7.85442 -0.000148508 0)
(7.86342 -0.00021371 0)
(7.87548 -0.000164455 0)
(7.88333 -0.000261212 0)
(7.89316 -0.000217488 0)
(7.90092 -0.000178396 0)
(7.90839 -1.83924e-05 0)
(7.90594 -0.000213758 0)
(7.90884 -0.000181319 0)
(7.91074 -0.000141036 0)
(7.91389 5.7955e-06 0)
(7.91037 -0.000170589 0)
(7.91162 -0.000114673 0)
(7.91216 -7.73745e-05 0)
(7.91521 0.000122065 0)
(7.90613 -0.00017374 0)
(7.90653 -0.000160773 0)
(7.90682 -0.000118601 0)
(7.90979 5.38604e-05 0)
(7.90466 -0.00016795 0)
(7.90608 -0.000107559 0)
(7.90709 -7.0879e-05 0)
(7.9124 0.000185699 0)
(7.9007 -0.000154956 0)
(7.90151 -0.000152458 0)
(7.90249 -0.000108476 0)
(7.90751 0.000109019 0)
(7.90082 -0.000135384 0)
(7.90263 -8.32328e-05 0)
(7.90443 -4.56213e-05 0)
(7.91131 0.00025046 0)
(7.89758 -0.000108055 0)
(7.89843 -0.000127779 0)
(7.90011 -9.28424e-05 0)
(7.90681 0.000147112 0)
(7.89886 -8.47068e-05 0)
(7.90092 -5.73653e-05 0)
(7.90369 -2.64917e-05 0)
(7.91172 0.000287178 0)
(7.89669 -4.03936e-05 0)
(7.89748 -8.96598e-05 0)
(7.89986 -6.82822e-05 0)
(7.90756 0.000174187 0)
(7.89882 -2.89526e-05 0)
(7.90109 -2.88914e-05 0)
(7.90424 -1.11449e-05 0)
(7.91304 0.000297102 0)
(7.89726 2.22379e-05 0)
(7.898 -5.97986e-05 0)
(7.90098 -5.40961e-05 0)
(7.9091 0.000173617 0)
(7.90027 1.19006e-05 0)
(7.90299 -1.13462e-05 0)
(7.90609 -3.86643e-07 0)
(7.9147 0.000281245 0)
(7.89936 7.07888e-05 0)
(7.90058 -3.2688e-05 0)
(7.90391 -4.06757e-05 0)
(7.91237 0.000165114 0)
(7.90371 4.68953e-05 0)
(7.90668 4.88612e-08 0)
(7.91 5.98455e-06 0)
(7.91775 0.000261998 0)
(7.90308 9.66294e-05 0)
(7.90485 -2.15349e-05 0)
(7.90839 -3.01458e-05 0)
(7.91586 0.000152331 0)
(7.90786 5.44955e-05 0)
(7.91143 -4.45524e-06 0)
(7.91498 5.49543e-06 0)
(7.92147 0.000231706 0)
(7.9085 9.27537e-05 0)
(7.91077 -1.98263e-05 0)
(7.9143 -2.30752e-05 0)
(7.92046 0.000145537 0)
(7.91276 4.76552e-05 0)
(7.91686 -1.21562e-05 0)
(7.92018 7.45878e-06 0)
(7.92527 0.000206438 0)
(7.91424 6.68255e-05 0)
(7.91678 -2.38674e-05 0)
(7.91995 -1.81029e-05 0)
(7.92475 0.00013126 0)
(7.91853 3.00643e-05 0)
(7.92205 -6.3574e-06 0)
(7.92481 1.35088e-05 0)
(7.92886 0.000183168 0)
(7.92041 3.67353e-05 0)
(7.9232 -1.71879e-05 0)
(7.92574 -1.33905e-06 0)
(7.92946 0.000122373 0)
(7.9255 2.0428e-05 0)
(7.92812 1.72084e-05 0)
(7.93022 3.5415e-05 0)
(7.93319 0.000158084 0)
(7.92874 2.53598e-05 0)
(7.93071 1.92143e-05 0)
(7.93237 3.34187e-05 0)
(7.93479 0.000111427 0)
(7.93375 3.27922e-05 0)
(7.93529 5.73282e-05 0)
(7.93638 6.8746e-05 0)
(7.93799 0.000105581 0)
(7.93914 3.96817e-05 0)
(7.93979 7.65066e-05 0)
(7.94018 7.98495e-05 0)
(7.94107 7.99947e-05 0)
(7.94331 7.10013e-05 0)
(7.94311 0.000123967 0)
(7.94129 7.77128e-05 0)
(7.94209 4.15274e-05 0)
(30.1978 0.297771 0)
(17.0486 0.226841 0)
(10.6002 0.0881826 0)
(9.2316 0.0188661 0)
(8.79592 0.00593575 0)
(8.64188 0.00270677 0)
(8.5383 0.00190358 0)
(8.47259 0.00121694 0)
(8.4335 0.000676436 0)
(8.41695 0.000334095 0)
(8.41059 -1.42346e-06 0)
(8.4178 -0.000190013 0)
(8.43025 -0.000274441 0)
(8.44555 -0.000220419 0)
(8.45654 -0.000315497 0)
(8.46888 -0.000267842 0)
(8.47873 -0.000222572 0)
(8.48776 -3.45814e-05 0)
(8.48694 -0.000228269 0)
(8.49075 -0.00020016 0)
(8.49333 -0.000160219 0)
(8.49689 5.07394e-06 0)
(8.494 -0.000176414 0)
(8.49545 -0.000123413 0)
(8.49614 -9.03944e-05 0)
(8.49916 0.000137226 0)
(8.49065 -0.000167634 0)
(8.49101 -0.00016904 0)
(8.49128 -0.000132545 0)
(8.49412 5.98032e-05 0)
(8.48932 -0.000171062 0)
(8.49066 -0.000116673 0)
(8.49164 -8.83689e-05 0)
(8.4967 0.000205105 0)
(8.48564 -0.000144582 0)
(8.48633 -0.000162424 0)
(8.48724 -0.00012723 0)
(8.49203 0.000116936 0)
(8.48576 -0.000135429 0)
(8.48747 -9.32972e-05 0)
(8.4892 -6.60052e-05 0)
(8.49575 0.00027438 0)
(8.48273 -9.22262e-05 0)
(8.48345 -0.000138039 0)
(8.48503 -0.000115039 0)
(8.49144 0.000156468 0)
(8.48396 -8.06023e-05 0)
(8.48591 -6.8299e-05 0)
(8.48859 -4.91731e-05 0)
(8.49624 0.000313816 0)
(8.48196 -1.87479e-05 0)
(8.48261 -9.9264e-05 0)
(8.48487 -9.17777e-05 0)
(8.49224 0.000184891 0)
(8.48399 -2.0721e-05 0)
(8.48614 -3.93507e-05 0)
(8.48915 -3.42236e-05 0)
(8.49754 0.000324693 0)
(8.48252 4.88561e-05 0)
(8.48312 -6.90102e-05 0)
(8.48597 -7.80176e-05 0)
(8.49377 0.000183961 0)
(8.48541 2.22593e-05 0)
(8.48797 -2.148e-05 0)
(8.4909 -2.14026e-05 0)
(8.49907 0.000308091 0)
(8.48445 9.89705e-05 0)
(8.48555 -4.20735e-05 0)
(8.48875 -6.41956e-05 0)
(8.49688 0.000174387 0)
(8.48866 5.93037e-05 0)
(8.49146 -1.01742e-05 0)
(8.49457 -1.2516e-05 0)
(8.50187 0.00028842 0)
(8.48787 0.000124982 0)
(8.48952 -3.1623e-05 0)
(8.49292 -5.08961e-05 0)
(8.50008 0.000161577 0)
(8.49249 6.60273e-05 0)
(8.49588 -1.63315e-05 0)
(8.49922 -1.05976e-05 0)
(8.50531 0.000255725 0)
(8.49292 0.000118077 0)
(8.49507 -3.04562e-05 0)
(8.49845 -4.04486e-05 0)
(8.50434 0.000156234 0)
(8.497 5.83397e-05 0)
(8.5009 -2.47932e-05 0)
(8.50402 -5.49935e-06 0)
(8.50879 0.000227894 0)
(8.49825 8.77537e-05 0)
(8.50069 -3.42915e-05 0)
(8.50373 -3.20061e-05 0)
(8.50831 0.000140872 0)
(8.50237 3.87607e-05 0)
(8.50571 -1.65904e-05 0)
(8.50829 3.2795e-06 0)
(8.51209 0.000200214 0)
(8.504 5.15284e-05 0)
(8.50665 -2.62333e-05 0)
(8.50909 -1.1609e-05 0)
(8.51262 0.000129179 0)
(8.50884 2.61401e-05 0)
(8.51132 1.08199e-05 0)
(8.51328 2.85086e-05 0)
(8.51606 0.000168048 0)
(8.5118 3.34437e-05 0)
(8.51365 1.49309e-05 0)
(8.51523 2.7979e-05 0)
(8.51752 0.000114109 0)
(8.51654 3.46665e-05 0)
(8.51797 5.57899e-05 0)
(8.519 6.63148e-05 0)
(8.5205 0.000104344 0)
(8.52162 3.85015e-05 0)
(8.52219 7.80781e-05 0)
(8.52254 8.01551e-05 0)
(8.5234 7.6641e-05 0)
(8.52556 6.91724e-05 0)