/*--------------------------------*- C++ -*----------------------------------*\
  =========                 |
  \\      /  F ield         | OpenFOAM: The Open Source CFD Toolbox
   \\    /   O peration     | Website:  https://openfoam.org
    \\  /    A nd           | Version:  7
     \\/     M anipulation  |
\*---------------------------------------------------------------------------*/
FoamFile
{
    version     2.0;
    format      ascii;
    class       volScalarField;
    location    "4.7";
    object      T;
}
// * * * * * * * * * * * * * * * * * * * * * * * * * * * * * * * * * * * * * //

dimensions      [0 0 0 1 0 0 0];

internalField   nonuniform List<scalar> 
32100
(
4.75724e+138
5.49288e+138
-4.57422e+137
-2.46519e+136
8.63047e+135
-4.28014e+134
-1.07127e+134
1.27249e+133
2.00352e+131
-2.17636e+131
8.54194e+129
4.17367e+128
-2.3878e+126
-2.90047e+126
-9.05785e+125
6.14065e+138
-4.82194e+137
-2.78156e+136
9.03919e+135
-4.27866e+134
-1.11367e+134
1.30061e+133
2.2407e+131
-2.18012e+131
1.55843e+130
4.52753e+129
5.86298e+128
-2.18272e+127
-2.63775e+126
-7.59692e+125
-5.03142e+137
-3.24455e+136
9.62113e+135
-4.30935e+134
-1.16968e+134
1.34379e+133
2.48364e+131
-2.25856e+131
1.66034e+130
4.50033e+129
1.4999e+129
3.49316e+128
-3.22566e+127
-2.07005e+126
-6.17106e+125
-3.88478e+136
1.07206e+136
-4.02144e+134
-1.28088e+134
1.35402e+133
3.79661e+131
-2.34352e+131
1.26987e+130
3.11008e+129
1.02487e+128
4.76363e+128
1.26493e+128
-3.03815e+127
-1.67189e+126
-4.25309e+125
1.26296e+136
-1.22963e+134
-1.11069e+134
1.00164e+133
8.55121e+130
-1.45669e+131
1.28966e+130
2.27323e+128
-3.42169e+128
8.65789e+127
7.81147e+127
1.77575e+127
-2.16983e+127
-1.18753e+126
-2.07799e+125
7.78291e+134
1.34267e+134
3.80656e+133
-3.60066e+132
-5.25766e+131
1.05081e+131
1.85295e+129
-2.97577e+129
-2.667e+127
1.13546e+127
-1.39804e+127
-1.11575e+127
-1.2272e+127
-6.04868e+125
-3.64866e+124
9.17703e+134
2.86061e+134
2.46088e+133
-3.9437e+132
-2.98953e+131
8.82605e+130
-1.97101e+128
-2.51121e+129
-4.15905e+127
9.26618e+126
-1.46094e+127
-1.00185e+127
-5.34489e+126
-1.1722e+125
5.16043e+124
1.02442e+135
2.58482e+134
2.47485e+133
-3.33702e+132
-3.46292e+131
7.92657e+130
1.48195e+129
-2.41214e+129
-6.72054e+127
1.77084e+127
-7.12233e+126
-3.94226e+126
-1.56216e+126
1.32479e+125
6.80926e+124
9.31142e+134
2.44586e+134
2.57928e+133
-2.99201e+132
-3.82117e+131
7.33384e+130
2.7143e+129
-2.3011e+129
-9.08621e+127
2.10389e+127
-2.97698e+126
-7.55814e+125
-1.14728e+125
1.68023e+125
4.81419e+124
8.54975e+134
2.31633e+134
2.64089e+133
-2.61846e+132
-4.10144e+131
6.63308e+130
3.85058e+129
-2.16181e+129
-1.1537e+128
2.07001e+127
-1.80261e+126
-1.80799e+125
1.88573e+125
1.08128e+125
2.2925e+124
7.85513e+134
2.18853e+134
2.69422e+133
-2.23016e+132
-4.3451e+131
5.87793e+130
4.87802e+129
-2.00239e+129
-1.37457e+128
1.91919e+127
-1.33149e+126
-2.26055e+125
1.42089e+125
4.60495e+124
6.76529e+123
7.21255e+134
2.07688e+134
2.71794e+133
-1.83679e+132
-4.54252e+131
5.08574e+130
5.77232e+129
-1.82783e+129
-1.55715e+128
1.72037e+127
-9.12796e+125
-2.72493e+125
6.94079e+124
1.46516e+124
4.37234e+122
6.65915e+134
1.96447e+134
2.61052e+133
-1.47517e+132
-4.63682e+131
4.27835e+130
6.50757e+129
-1.6445e+129
-1.69412e+128
1.4913e+127
-5.34975e+125
-2.52453e+125
4.08391e+124
5.45192e+123
-4.20729e+122
6.0682e+134
1.63181e+134
2.15904e+133
-1.00093e+132
-4.22961e+131
3.4691e+130
6.86789e+129
-1.45613e+129
-1.77656e+128
1.24565e+127
-2.41484e+125
-2.44352e+125
2.52306e+124
3.35766e+123
-3.46093e+122
4.34274e+134
1.21197e+134
1.7832e+133
-5.98384e+131
-3.5525e+131
2.43865e+130
6.45889e+129
-1.19652e+129
-1.8065e+128
1.02232e+127
1.91029e+124
-2.75696e+125
2.35451e+124
3.66746e+123
-2.63968e+122
3.05983e+134
9.71621e+133
1.60163e+133
-3.37061e+131
-3.13825e+131
1.59598e+130
6.18825e+129
-9.52821e+128
-1.86699e+128
8.10505e+126
3.15808e+125
-3.08995e+125
2.51156e+124
5.06269e+123
-2.21693e+122
2.57003e+134
8.65135e+133
1.51085e+133
-1.50382e+131
-2.98476e+131
1.02082e+130
6.32259e+129
-7.72686e+128
-1.95694e+128
5.74419e+126
6.21522e+125
-3.16576e+125
2.1285e+124
6.41608e+123
-1.7938e+122
2.26799e+134
8.03689e+133
1.48265e+133
1.66687e+130
-2.92085e+131
5.08102e+129
6.45959e+129
-6.06756e+128
-2.04141e+128
2.99812e+126
9.07949e+125
-3.0914e+125
1.41936e+124
7.25707e+123
-1.06748e+122
2.01981e+134
7.49078e+133
1.45225e+133
1.84495e+131
-2.83619e+131
-2.44389e+128
6.5357e+129
-4.37134e+128
-2.1095e+128
-1.04317e+125
1.16018e+126
-2.90112e+125
5.7343e+123
7.59608e+123
-4.46865e+120
1.80793e+134
6.96423e+133
1.41548e+133
3.55691e+131
-2.72323e+131
-5.7987e+129
6.51039e+129
-2.59065e+128
-2.15051e+128
-3.50504e+126
1.36392e+126
-2.66182e+125
-2.85846e+123
7.76329e+123
1.20846e+122
1.61362e+134
6.42911e+133
1.36943e+133
5.25892e+131
-2.57896e+131
-1.14964e+130
6.35686e+129
-7.33819e+127
-2.15984e+128
-7.17396e+126
1.51267e+126
-2.32025e+125
-1.12952e+124
7.6358e+123
2.58624e+122
1.42678e+134
5.87074e+133
1.31778e+133
6.93043e+131
-2.39959e+131
-1.72485e+130
6.05126e+129
1.17369e+128
-2.13773e+128
-1.11272e+127
1.60046e+126
-1.88496e+125
-1.86033e+124
7.06744e+123
3.8457e+122
1.24892e+134
5.31247e+133
1.26353e+133
8.54346e+131
-2.18325e+131
-2.29251e+130
5.57528e+129
3.10962e+128
-2.08224e+128
-1.54261e+127
1.6226e+126
-1.41583e+125
-2.48471e+124
6.34649e+123
4.87903e+122
1.08286e+134
4.77066e+133
1.20621e+133
1.00738e+132
-1.92571e+131
-2.82814e+130
4.91855e+129
5.04817e+128
-1.98656e+128
-2.01065e+127
1.57092e+126
-9.16286e+124
-3.05325e+124
5.61849e+123
5.74078e+122
9.31919e+133
4.26788e+133
1.14796e+133
1.15206e+132
-1.62712e+131
-3.31537e+130
4.07106e+129
6.94719e+128
-1.84031e+128
-2.50972e+127
1.42262e+126
-3.67565e+124
-3.59356e+124
4.88295e+123
6.55884e+122
7.96377e+133
3.80455e+133
1.08666e+133
1.28584e+132
-1.28799e+131
-3.7401e+130
3.0235e+129
8.73918e+128
-1.63112e+128
-3.03369e+127
1.14705e+126
2.5301e+124
-4.13473e+124
4.10769e+123
7.51183e+122
6.78084e+133
3.37642e+133
1.02302e+133
1.40871e+132
-9.07866e+130
-4.08433e+130
1.77069e+129
1.03473e+129
-1.3461e+128
-3.57131e+127
7.03079e+125
9.65166e+124
-4.61377e+124
3.14629e+123
8.56122e+122
5.7768e+133
2.99745e+133
9.62889e+132
1.5247e+132
-4.86246e+130
-4.32591e+130
3.09078e+128
1.16718e+129
-9.71779e+127
-4.12992e+127
4.85938e+124
1.73193e+125
-4.85864e+124
1.90154e+123
9.38556e+122
4.91614e+133
2.67335e+133
9.09415e+132
1.6349e+132
-2.23864e+129
-4.44392e+130
-1.35881e+129
1.26e+129
-4.97124e+127
-4.6639e+127
-8.60117e+125
2.51206e+125
-4.8692e+124
4.52694e+122
9.95708e+122
4.15428e+133
2.38361e+133
8.58395e+132
1.73243e+132
4.81675e+130
-4.41033e+130
-3.22569e+129
1.29796e+129
8.54206e+126
-5.11636e+127
-2.0642e+126
3.26039e+125
-4.61666e+124
-1.21179e+123
1.02807e+123
3.46268e+133
2.09352e+133
7.99071e+132
1.8067e+132
1.02039e+131
-4.19027e+130
-5.27462e+129
1.26081e+129
7.84511e+127
-5.45016e+127
-3.63103e+126
3.84666e+125
-3.89501e+124
-2.99227e+123
1.01336e+123
2.84768e+133
1.79573e+133
7.25176e+132
1.85672e+132
1.58625e+131
-3.74685e+130
-7.45928e+129
1.12058e+129
1.60069e+128
-5.5695e+127
-5.65845e+126
4.11481e+125
-2.76441e+124
-4.71731e+123
9.73838e+122
2.34018e+133
1.52884e+133
6.53667e+132
1.88286e+132
2.169e+131
-3.03741e+130
-9.68312e+129
8.42222e+128
2.50892e+128
-5.3467e+127
-8.26979e+126
4.03879e+125
-1.33643e+124
-6.70222e+123
9.50223e+122
1.93141e+133
1.32649e+133
6.00722e+132
1.89184e+132
2.7679e+131
-2.02199e+130
-1.18001e+130
3.95267e+128
3.43725e+128
-4.58552e+127
-1.15462e+127
3.30281e+125
8.02315e+123
-9.45796e+123
9.27372e+122
1.58886e+133
1.16815e+133
5.58567e+132
1.89034e+132
3.38703e+131
-6.54154e+129
-1.35625e+130
-2.39423e+128
4.26356e+128
-3.05536e+127
-1.54858e+127
1.04261e+125
4.18548e+124
-1.29555e+124
8.20167e+122
1.29775e+133
1.01516e+133
5.12354e+132
1.88041e+132
4.02409e+131
1.12047e+130
-1.45242e+130
-1.06096e+129
4.81816e+128
-5.13063e+126
-1.97709e+127
-4.01453e+125
9.22019e+124
-1.66456e+124
4.63585e+122
1.05217e+133
8.70204e+132
4.6502e+132
1.86716e+132
4.67886e+131
3.32453e+130
-1.43626e+130
-2.04494e+129
4.89692e+128
3.16266e+127
-2.35025e+127
-1.39446e+126
1.57905e+125
-1.8769e+124
-4.3512e+122
8.44224e+132
7.45372e+132
4.23586e+132
1.84967e+132
5.33609e+131
5.91865e+130
-1.28595e+130
-3.13809e+129
4.26176e+128
7.86208e+127
-2.51342e+127
-2.96786e+126
2.13806e+125
-1.55764e+124
-2.17819e+123
6.68353e+132
6.38897e+132
3.87106e+132
1.81785e+132
5.93152e+131
8.7622e+130
-9.71588e+129
-4.24881e+129
2.68184e+128
1.30657e+128
-2.28604e+127
-5.08788e+126
2.14561e+125
-2.70679e+123
-4.86414e+123
5.19882e+132
5.46988e+132
3.54552e+132
1.77034e+132
6.33969e+131
1.16929e+131
-4.69469e+129
-5.23151e+129
5.28038e+126
1.7742e+128
-1.52558e+127
-7.56289e+126
8.78037e+124
2.51149e+124
-8.21607e+123
3.9481e+132
4.62761e+132
3.22461e+132
1.69613e+132
6.54131e+131
1.45431e+131
2.19803e+129
-5.84866e+129
-3.53878e+128
2.0759e+128
-2.00128e+126
-1.00155e+127
-2.97707e+125
7.2116e+124
-1.07424e+124
2.91578e+132
3.81278e+132
2.8815e+132
1.58577e+132
6.62358e+131
1.71705e+131
1.06194e+130
-5.97969e+129
-7.93317e+128
2.13432e+128
1.54722e+127
-1.15689e+127
-9.02217e+125
1.16004e+125
-9.29763e+123
2.11363e+132
3.05111e+132
2.50955e+132
1.45642e+132
6.62286e+131
1.94799e+131
2.00386e+130
-5.43256e+129
-1.28832e+129
1.89031e+128
3.35184e+127
-1.11293e+127
-1.57312e+126
1.36322e+125
-2.5807e+123
1.52237e+132
2.40316e+132
2.14366e+132
1.33347e+132
6.55401e+131
2.14328e+131
2.98988e+130
-4.26901e+129
-1.67237e+129
1.33793e+128
4.99137e+127
-9.38372e+126
-2.24656e+126
1.28667e+125
8.01018e+123
1.09901e+132
1.89303e+132
1.83165e+132
1.22575e+132
6.44452e+131
2.30819e+131
3.97908e+130
-2.64113e+129
-1.9141e+129
5.44162e+127
6.40465e+127
-6.88559e+126
-2.55589e+126
1.02506e+125
3.6478e+124
7.98053e+131
1.50404e+132
1.5769e+132
1.12957e+132
6.32395e+131
2.45376e+131
4.96995e+130
-7.11521e+128
-2.0735e+129
-3.07842e+127
6.68966e+127
-3.80253e+126
-2.32576e+126
1.35786e+124
2.76821e+124
5.79587e+131
1.20309e+132
1.37182e+132
1.04748e+132
6.20639e+131
2.59086e+131
5.98538e+130
1.45394e+129
-2.14776e+129
-1.10971e+128
6.46024e+127
-1.31811e+126
-1.98392e+126
-2.29879e+124
1.391e+124
4.18984e+131
9.62675e+131
1.20042e+132
9.77634e+131
6.08309e+131
2.71101e+131
7.01509e+130
3.8859e+129
-2.21266e+129
-1.85836e+128
6.47677e+127
4.80645e+125
-1.82673e+126
-3.97779e+124
1.07764e+124
2.97956e+131
7.63149e+131
1.04303e+132
9.09814e+131
5.9193e+131
2.79271e+131
7.97616e+130
6.61641e+129
-2.23623e+129
-2.65869e+128
6.47789e+127
1.98231e+126
-1.80893e+126
-5.49902e+124
1.10341e+124
2.08364e+131
5.97209e+131
8.98e+131
8.43234e+131
5.72153e+131
2.84375e+131
8.85298e+130
9.63738e+129
-2.1661e+129
-3.50993e+128
6.3949e+127
3.40154e+126
-1.83225e+126
-7.23527e+124
1.24442e+124
1.42749e+131
4.62393e+131
7.72474e+131
7.82986e+131
5.5276e+131
2.89231e+131
9.77275e+130
1.30154e+130
-1.99925e+129
-4.38937e+128
6.15134e+127
4.72938e+126
-1.81284e+126
-8.8643e+124
1.27877e+124
9.52052e+130
3.53051e+131
6.62042e+131
7.21163e+131
5.34458e+131
2.94154e+131
1.07854e+131
1.69584e+130
-1.72038e+129
-5.27553e+128
5.65261e+127
5.80796e+126
-1.68865e+126
-9.75831e+124
9.98892e+123
6.21956e+130
2.63277e+131
5.5402e+131
6.54923e+131
5.15999e+131
2.99153e+131
1.18279e+131
2.15557e+130
-1.29677e+129
-6.14312e+128
4.92482e+127
6.47087e+126
-1.46923e+126
-9.61768e+124
5.14514e+123
3.96935e+130
1.91764e+131
4.51821e+131
5.90184e+131
5.00666e+131
3.04753e+131
1.29033e+131
2.68018e+130
-6.92359e+128
-6.92675e+128
4.05512e+127
6.6079e+126
-1.18958e+126
-8.61387e+124
-4.73276e+122
2.4185e+130
1.36837e+131
3.6429e+131
5.30729e+131
4.8713e+131
3.09959e+131
1.39975e+131
3.26829e+130
1.24152e+128
-7.55638e+128
3.12575e+127
6.07656e+126
-8.67398e+125
-7.04654e+124
-8.25651e+123
1.36889e+130
9.42546e+130
2.87845e+131
4.72832e+131
4.69404e+131
3.14027e+131
1.51119e+131
3.91853e+130
1.18054e+129
-7.94392e+128
2.23998e+127
4.68676e+126
-5.122e+125
-4.00705e+124
-1.31751e+124
6.89153e+129
6.1329e+130
2.20013e+131
4.11902e+131
4.46764e+131
3.16924e+131
1.62834e+131
4.65992e+130
2.49589e+129
-7.75186e+128
1.44066e+127
2.46008e+126
-1.14938e+125
-5.53433e+123
-1.33552e+124
2.90074e+129
3.70033e+130
1.61027e+131
3.494e+131
4.18644e+131
3.17592e+131
1.73992e+131
5.48492e+130
4.06783e+129
-6.96813e+128
8.19562e+126
2.85642e+125
1.63657e+125
1.84278e+124
-1.17042e+124
8.83216e+128
2.00685e+130
1.11037e+131
2.86363e+131
3.83626e+131
3.15066e+131
1.84094e+131
6.3168e+130
5.93657e+129
-6.03084e+128
3.13825e+126
-6.36935e+125
2.40368e+125
7.70336e+124
-4.64831e+123
5.8047e+127
9.25693e+129
7.03498e+130
2.24354e+131
3.42777e+131
3.09609e+131
1.93482e+131
7.01371e+130
8.25159e+129
-6.83239e+128
-4.13929e+126
-9.7205e+125
2.12031e+125
1.95022e+124
-5.7146e+124
-1.3691e+128
3.08445e+129
3.88197e+130
1.65387e+131
2.98081e+131
3.01769e+131
2.0217e+131
7.39553e+130
1.09302e+130
-9.93429e+128
-1.63071e+127
3.95919e+126
2.49855e+126
1.45822e+126
3.9645e+125
-4.34259e+127
3.3131e+128
1.63907e+130
1.10744e+131
2.50653e+131
2.91838e+131
2.10515e+131
7.46707e+130
1.32889e+130
-3.34202e+128
-1.11353e+128
-7.21464e+126
-1.50524e+127
-7.47958e+126
-1.89226e+126
5.78458e+127
-1.27596e+128
3.04327e+129
6.17707e+130
1.99949e+131
2.78941e+131
2.19345e+131
7.66258e+130
1.6854e+130
1.96518e+129
-3.18226e+128
-7.01291e+127
-6.99448e+127
-6.20998e+127
-2.83333e+127
5.19107e+127
4.60103e+127
-1.66172e+129
2.13602e+130
1.44781e+131
2.61031e+131
2.28462e+131
7.91226e+130
1.98815e+130
5.97554e+129
2.26483e+129
2.07548e+129
2.94688e+129
3.74886e+129
2.20126e+129
-1.64512e+127
8.02412e+127
-1.38439e+129
-3.18224e+129
8.59811e+130
2.36046e+131
2.36343e+131
7.91783e+130
1.86086e+130
6.21473e+129
7.81543e+129
7.2762e+129
9.39578e+129
7.52895e+129
4.1031e+129
3.18292e+128
6.7151e+127
-2.38721e+129
-5.74334e+129
3.6533e+130
2.01528e+131
2.37576e+131
7.89352e+130
1.56194e+130
8.07684e+128
1.67728e+129
3.65991e+129
3.60297e+129
2.94674e+129
3.9313e+129
-3.60971e+130
-1.54883e+130
-8.33701e+129
-2.54782e+129
3.38934e+130
1.51483e+131
2.23397e+131
7.95271e+130
1.51331e+130
-1.14777e+128
1.5229e+128
3.97694e+128
5.34806e+128
9.09144e+128
3.37226e+129
2.53105e+131
1.09437e+131
3.49647e+130
1.21519e+130
7.46293e+130
1.66502e+131
1.85486e+131
7.7304e+130
1.85273e+130
9.03938e+129
3.95732e+129
2.0145e+129
1.32704e+129
9.69225e+128
2.73541e+129
4.73475e+132
1.47665e+132
7.79675e+131
5.21468e+131
3.45897e+131
2.35897e+131
1.86639e+131
5.65149e+130
2.60855e+130
1.41798e+130
6.78479e+129
3.36632e+129
1.88617e+129
1.07804e+129
2.33728e+129
-5.62871e+133
-1.34022e+133
-2.00118e+132
1.38932e+131
5.32323e+131
4.50876e+131
3.02088e+131
1.93108e+131
8.67652e+130
3.67703e+130
1.54134e+130
6.76506e+129
3.2142e+129
1.55948e+129
1.99757e+129
-3.1422e+134
-8.732e+133
-4.89369e+133
-2.30032e+133
-1.04085e+133
-4.62158e+132
-1.34232e+132
-1.13878e+131
6.82589e+130
4.76673e+130
2.24407e+130
9.71028e+129
4.19082e+129
1.87478e+129
2.26698e+129
1.00345e+136
1.12288e+135
6.48203e+133
-2.92422e+133
-2.95198e+133
-1.45176e+133
-3.86314e+132
-6.57447e+131
-5.03162e+130
1.68387e+130
1.01554e+130
2.42066e+129
-5.94258e+128
-1.09516e+129
-2.17727e+129
-4.51851e+136
5.29861e+135
2.50747e+135
4.97102e+134
6.12597e+133
-8.36017e+132
-4.29683e+132
-5.84042e+131
8.07473e+130
1.54549e+131
1.32051e+131
9.55879e+130
6.00812e+130
3.13847e+130
2.03053e+130
-7.34804e+137
-6.87035e+136
4.37749e+135
1.23338e+135
8.90921e+133
1.50335e+133
-2.56239e+132
-5.0353e+131
1.92339e+130
-1.40109e+131
-2.23079e+131
-2.00634e+131
-1.24889e+131
-4.95509e+130
-3.37645e+129
6.21465e+138
-7.02508e+137
-7.52463e+136
1.21984e+136
-7.0048e+134
-1.19719e+134
-1.39461e+133
-2.72179e+133
-2.32414e+133
-1.86328e+133
-1.44373e+133
-1.03283e+133
-6.428e+132
-3.20208e+132
-1.19828e+132
4.69671e+139
5.57193e+138
-8.15043e+137
-2.88388e+136
1.18964e+136
-9.74661e+134
-1.22411e+134
3.2627e+133
4.66473e+133
6.03048e+133
5.96553e+133
4.725e+133
2.91122e+133
1.26158e+133
3.94927e+132
-9.37813e+140
4.65173e+139
4.80782e+138
-7.4563e+137
-2.2664e+136
1.35986e+136
9.79352e+134
1.40719e+135
1.19026e+135
8.8142e+134
6.38782e+134
4.42166e+134
2.76917e+134
1.45798e+134
5.34707e+133
4.60593e+141
-8.45631e+140
4.51281e+139
4.5021e+138
-7.2034e+137
-2.53353e+136
5.97291e+135
-8.11567e+135
-8.25051e+135
-7.99861e+135
-7.09406e+135
-5.54058e+135
-3.61097e+135
-1.80603e+135
-6.69686e+134
2.67898e+142
3.84208e+141
-7.77196e+140
4.39013e+139
4.14425e+138
-7.95416e+137
-7.6268e+136
-1.43919e+136
-5.14455e+135
9.85368e+135
1.68825e+136
1.68458e+136
1.23374e+136
6.32717e+135
2.49127e+135
-3.26801e+143
2.67761e+142
3.33141e+141
-7.32658e+140
4.37634e+139
5.19238e+138
3.35817e+137
9.451e+137
8.84052e+137
7.42891e+137
6.03484e+137
4.66819e+137
3.29008e+137
2.03468e+137
1.00363e+137
-5.2313e+144
-9.12387e+143
7.14766e+142
1.04789e+142
-2.1469e+141
1.20935e+140
1.09045e+139
-1.07285e+139
-1.2713e+139
-1.4374e+139
-1.44293e+139
-1.27884e+139
-9.96098e+138
-7.34381e+138
-5.37145e+138
1.30667e+146
-4.74098e+144
-8.85315e+143
6.51569e+142
1.12162e+142
-2.37368e+141
-9.47935e+139
-1.54997e+140
-1.5662e+140
-1.30732e+140
-9.18423e+139
-6.19901e+139
-4.29805e+139
-2.89431e+139
-1.71639e+139
-8.94491e+146
1.18643e+146
-4.85266e+144
-8.76376e+143
5.78706e+142
1.03217e+142
-3.46496e+141
-1.02979e+141
-7.91241e+140
-6.06034e+140
-4.33441e+140
-2.86863e+140
-1.68791e+140
-8.83751e+139
-4.91754e+139
-8.4364e+147
-7.61166e+146
1.12426e+146
-3.58211e+144
-1.24866e+144
-3.572e+142
9.46727e+141
-9.61475e+141
-6.32742e+141
-3.62752e+141
-2.25169e+141
-1.29505e+141
-6.54743e+140
-2.8474e+140
-1.37641e+140
1.16881e+149
-8.31728e+147
-6.79682e+146
1.02185e+146
-4.21418e+144
-6.81358e+143
2.63082e+142
-3.89393e+141
-7.47059e+141
-4.12006e+141
-2.8258e+141
-1.95891e+141
-1.26271e+141
-7.00337e+140
-3.9175e+140
-8.67396e+147
-7.46989e+146
1.15223e+146
-4.62347e+144
-9.01227e+143
3.40709e+142
-1.14661e+141
-1.005e+142
-5.40801e+141
-3.53193e+141
-2.38713e+141
-1.86016e+141
-1.46429e+141
-1.02475e+141
-6.77043e+140
-9.21573e+146
1.28558e+146
-9.85011e+143
-6.75697e+143
-1.54661e+142
-3.38431e+140
-8.18156e+141
-7.31782e+141
-5.39156e+141
-3.59108e+141
-2.29343e+141
-1.8481e+141
-1.51441e+141
-1.1689e+141
-8.24978e+140
8.97294e+145
6.95451e+144
7.55077e+143
1.18165e+143
-4.56822e+141
-2.14943e+142
-1.80542e+142
-1.27112e+142
-8.436e+141
-5.4376e+141
-3.6502e+141
-3.03848e+141
-1.86377e+141
-1.12746e+141
-6.48773e+140
-1.28668e+144
-3.85339e+143
-2.48833e+143
-1.27025e+143
-6.56445e+142
-3.60202e+142
-2.05653e+142
-1.20764e+142
-7.24832e+141
-4.9045e+141
-4.17264e+141
-4.8479e+141
-2.57625e+140
4.11762e+138
1.12637e+139
-2.71406e+143
-7.38105e+142
-2.72531e+142
-1.32866e+142
-6.85372e+141
-3.65437e+141
-2.04048e+141
-1.17557e+141
-6.31475e+140
-1.59911e+141
-6.59869e+140
-2.69657e+139
-3.39057e+139
-4.79451e+138
-1.84497e+138
3.0267e+141
3.07539e+140
1.42545e+141
1.43881e+141
1.13743e+141
8.61079e+140
6.62515e+140
5.47003e+140
8.50019e+140
-3.79633e+140
-1.44942e+141
3.84399e+140
1.79206e+140
8.92497e+139
4.41804e+139
3.35052e+141
1.27987e+141
4.80837e+140
2.21365e+140
1.12606e+140
5.17894e+139
5.89993e+139
6.50437e+139
-4.97045e+139
3.27686e+140
-1.09745e+141
-7.01469e+140
-3.85275e+140
-2.03562e+140
-1.09541e+140
-4.16489e+140
-1.51582e+140
-7.30485e+139
-4.63607e+139
-3.41728e+139
-2.32091e+139
-8.87901e+138
1.84811e+138
7.53369e+138
4.05553e+139
-1.90961e+138
-1.05021e+140
-1.43285e+140
-1.27526e+140
-9.90808e+139
7.22943e+138
1.84848e+138
2.16848e+138
2.13722e+138
2.0289e+138
1.66296e+138
4.70552e+137
-4.9855e+137
-7.0804e+137
-2.48041e+138
1.10867e+139
1.7446e+139
1.57775e+139
1.30255e+139
1.09884e+139
3.22011e+138
1.25264e+138
5.61597e+137
3.31583e+137
2.27131e+137
1.5342e+137
1.05216e+137
6.10997e+136
-2.56681e+135
-2.80806e+137
-9.96518e+137
-8.61628e+137
-5.5505e+137
-3.80388e+137
-2.85583e+137
-2.06971e+137
-6.59376e+136
-4.81789e+136
-4.17227e+136
-3.72027e+136
-2.90136e+136
-1.07441e+136
6.28106e+135
2.11287e+136
3.57462e+136
-9.70516e+136
-1.74237e+137
-1.66651e+137
-1.39503e+137
-1.11181e+137
-4.16014e+136
-1.71444e+136
-6.28234e+135
-2.63501e+135
-1.1719e+135
-6.13999e+134
-1.02984e+135
-1.06372e+135
1.14583e+135
8.88421e+135
2.70762e+136
2.92571e+136
2.38478e+136
1.84846e+136
1.41003e+136
6.9097e+135
2.59094e+135
1.2846e+135
8.3497e+134
6.12101e+134
3.99316e+134
1.2705e+134
-1.75114e+134
-5.61525e+134
-8.57827e+134
-4.00305e+134
1.83475e+134
3.60056e+134
3.4272e+134
2.68887e+134
-1.09437e+134
-2.60753e+133
-4.56358e+133
-4.87259e+133
-4.4154e+133
-2.81872e+133
-2.14658e+131
1.38061e+133
-1.71011e+133
-1.41726e+134
-3.59497e+134
-3.91266e+134
-3.24758e+134
-2.51848e+134
-1.91473e+134
-8.35174e+133
-3.18992e+133
-1.33013e+133
-7.3741e+132
-4.80768e+132
-3.12122e+132
-1.41101e+132
2.26649e+132
9.75221e+132
1.93217e+133
2.50711e+133
2.04633e+133
1.49499e+133
1.09069e+133
7.64865e+132
7.5118e+132
2.64734e+132
1.70583e+132
1.34501e+132
1.07343e+132
6.50786e+131
3.98308e+130
-4.83438e+131
-5.39448e+131
5.74947e+131
2.59621e+132
3.17318e+132
2.80979e+132
2.23019e+132
1.37007e+132
8.96414e+131
3.59168e+131
1.11649e+131
3.48489e+130
1.05432e+130
1.33075e+130
2.81805e+130
-4.89691e+129
-1.57885e+131
-4.40323e+131
-6.70989e+131
-5.99339e+131
-4.01544e+131
-2.10852e+131
-2.59947e+131
-1.81199e+131
-6.79909e+130
-3.32264e+130
-2.14816e+130
-1.53595e+130
-9.04332e+129
-5.49393e+128
1.07794e+130
2.43918e+130
2.9374e+130
1.05092e+130
-1.08049e+130
9.11437e+129
9.7738e+130
1.40741e+131
3.82809e+129
1.08192e+129
1.4611e+129
1.49551e+129
1.31232e+129
8.09968e+128
4.82235e+127
-2.68156e+128
9.64627e+128
5.18874e+129
1.02733e+130
3.66629e+129
-2.05178e+130
-3.15569e+129
1.01981e+131
2.19567e+129
8.79526e+128
3.60976e+128
1.89228e+128
1.17704e+128
7.73841e+127
3.74003e+127
-6.16949e+127
-2.90609e+128
-5.30452e+128
-1.60167e+128
7.19898e+128
-4.9567e+129
-3.06623e+130
-5.48897e+130
-2.31059e+128
-8.68759e+127
-5.31103e+127
-4.01684e+127
-3.18775e+127
-2.17643e+127
-8.17414e+126
-1.88227e+125
-2.29927e+127
-4.70768e+127
1.51482e+128
9.41729e+128
2.84694e+129
2.38464e+129
-1.02781e+130
-1.78264e+127
-7.97933e+126
-2.40913e+126
-5.04199e+125
9.1123e+124
-5.46751e+124
-1.38034e+126
-9.08158e+126
-4.0982e+127
-4.2193e+127
1.91974e+128
6.78235e+128
1.85508e+129
4.59061e+129
9.10511e+129
4.48921e+126
1.82591e+126
9.0684e+125
5.69919e+125
4.04562e+125
2.16316e+125
-8.20584e+125
-9.70127e+126
-4.79284e+127
-5.64342e+127
2.19465e+128
7.6527e+128
1.75859e+129
3.64202e+129
7.20785e+129
-1.57655e+125
-5.33066e+124
-4.92005e+124
-4.62491e+124
-3.90384e+124
-8.125e+124
-9.81674e+125
-1.07808e+127
-5.28201e+127
-7.74154e+127
1.98107e+128
7.81842e+128
1.85119e+129
3.72359e+129
6.93122e+129
-4.77372e+124
-2.07999e+124
-9.06149e+123
-5.22655e+123
-1.61135e+123
-4.97445e+124
-1.02858e+126
-1.23587e+127
-6.3647e+127
-1.16381e+128
8.24702e+127
5.37184e+128
1.40356e+129
2.92658e+129
5.47981e+129
5.71656e+123
2.46536e+123
1.43323e+123
5.35706e+122
2.18525e+123
-3.73087e+124
-1.05481e+126
-1.4277e+127
-6.56073e+127
-1.59878e+128
-5.83273e+127
2.08464e+128
7.0525e+128
1.54644e+129
2.90811e+129
7.49508e+122
5.41602e+122
1.46293e+122
-5.14559e+122
1.11548e+123
-2.57978e+124
-1.01062e+126
-1.67567e+127
-6.48498e+127
-1.69148e+128
-1.58477e+128
-4.87188e+127
1.67592e+128
5.21172e+128
1.0667e+129
2.85699e+122
3.33804e+122
5.2846e+121
-5.47961e+122
9.38221e+122
-1.57997e+124
-8.93491e+125
-1.92248e+127
-6.66926e+127
-1.42218e+128
-1.83562e+128
-1.78399e+128
-1.17722e+128
8.34097e+126
2.20426e+128
4.48443e+122
4.21415e+122
6.79288e+121
-5.33832e+122
8.88453e+122
-9.34048e+123
-7.6429e+125
-2.30766e+127
-5.99979e+127
-1.03354e+128
-1.46644e+128
-1.82292e+128
-2.00769e+128
-1.95015e+128
-1.56406e+128
5.13138e+122
4.64223e+122
3.47225e+121
-5.42521e+122
7.63313e+122
-4.29673e+123
-7.63646e+125
-1.81075e+127
-4.31469e+127
-6.86613e+127
-9.70032e+127
-1.27984e+128
-1.59957e+128
-1.90939e+128
-2.1758e+128
6.01392e+122
5.28535e+122
5.16353e+119
-5.23008e+122
5.83197e+122
2.41264e+123
-7.86858e+125
-1.16496e+127
-2.51925e+127
-3.79232e+127
-5.22537e+127
-6.85491e+127
-8.74119e+127
-1.09359e+128
-1.33939e+128
6.92355e+122
6.00575e+122
-2.31696e+121
-4.78947e+122
5.85929e+122
9.53613e+123
-8.68952e+125
-7.08413e+126
-1.2393e+127
-1.72141e+127
-2.24863e+127
-2.84861e+127
-3.56723e+127
-4.44265e+127
-5.48376e+127
7.83014e+122
6.67762e+122
-4.75488e+121
-4.38533e+122
9.18238e+122
1.40747e+124
-5.69293e+125
-3.24853e+126
-5.07032e+126
-6.58654e+126
-8.09321e+126
-9.78043e+126
-1.18056e+127
-1.4246e+127
-1.71289e+127
8.84643e+122
7.37849e+122
-7.59124e+121
-3.82705e+122
1.70086e+123
1.41458e+124
-7.28096e+124
-1.01016e+126
-1.67624e+126
-2.12139e+126
-2.50678e+126
-2.91311e+126
-3.38297e+126
-3.91759e+126
-4.50901e+126
9.91886e+122
8.02446e+122
-1.26875e+122
-3.3627e+122
2.7538e+123
1.45599e+124
2.45246e+124
-1.3366e+125
-3.43616e+125
-4.77353e+125
-5.81994e+125
-6.86263e+125
-7.95592e+125
-9.06901e+125
-1.01796e+126
1.11368e+123
8.43486e+122
-3.33986e+122
-7.02054e+122
2.64627e+123
1.59231e+124
3.82081e+124
3.78193e+124
5.14939e+123
-2.41247e+124
-4.95921e+124
-7.31017e+124
-9.58292e+124
-1.17835e+125
-1.39112e+125
1.33769e+123
1.11617e+123
-3.63339e+122
-1.32776e+123
6.20453e+122
7.28777e+123
1.70458e+124
2.59843e+124
2.91594e+124
2.82084e+124
2.60205e+124
2.36262e+124
2.11654e+124
1.86351e+124
1.59826e+124
1.50485e+123
1.8926e+123
8.18546e+122
-6.06579e+122
-1.17192e+123
7.7041e+119
3.02046e+123
6.50869e+123
9.09465e+123
1.05902e+124
1.14989e+124
1.20981e+124
1.25149e+124
1.27886e+124
1.29443e+124
1.0598e+123
2.15354e+123
2.14064e+123
1.43896e+123
6.93428e+122
3.60256e+122
5.1434e+122
9.20484e+122
1.36436e+123
1.76348e+123
2.10009e+123
2.37257e+123
2.58683e+123
2.74898e+123
2.87152e+123
-2.8185e+121
1.03796e+123
1.6376e+123
1.66648e+123
1.37673e+123
1.01551e+123
7.00567e+122
4.87032e+122
3.7728e+122
3.3712e+122
3.33462e+122
3.45712e+122
3.6153e+122
3.7544e+122
3.85331e+122
-6.91372e+122
-2.42688e+122
2.24716e+122
4.55878e+122
4.967e+122
4.38513e+122
3.47166e+122
2.59958e+122
1.91451e+122
1.42376e+122
1.08515e+122
8.54049e+121
6.9704e+121
5.91797e+121
5.15139e+121
-4.50485e+122
-4.69632e+122
-3.20481e+122
-1.80027e+122
-8.21593e+121
-2.49327e+121
3.83623e+120
1.5369e+121
1.77515e+121
1.58343e+121
1.22349e+121
8.38275e+120
5.02249e+120
2.40526e+120
3.63324e+119
-3.27886e+121
-1.31053e+122
-1.46697e+122
-1.25839e+122
-9.58892e+121
-6.89508e+121
-4.80047e+121
-3.29392e+121
-2.26967e+121
-1.59292e+121
-1.14601e+121
-8.48686e+120
-6.50024e+120
-5.18286e+120
-4.29866e+120
6.92378e+121
3.35238e+121
4.9164e+120
-8.4784e+120
-1.3266e+121
-1.37721e+121
-1.23572e+121
-1.03114e+121
-8.35302e+120
-6.69324e+120
-5.29294e+120
-4.12964e+120
-3.19218e+120
-2.45783e+120
-1.87969e+120
2.26793e+121
2.23867e+121
1.57567e+121
1.01874e+121
6.16476e+120
3.50628e+120
1.83571e+120
8.20114e+119
2.21534e+119
-1.16471e+119
-2.91481e+119
-3.67613e+119
-3.84928e+119
-3.67361e+119
-3.29009e+119
-1.94697e+120
1.25168e+120
2.24462e+120
2.25633e+120
1.92808e+120
1.53623e+120
1.17879e+120
8.90903e+119
6.74093e+119
5.09776e+119
3.81325e+119
2.80482e+119
2.02484e+119
1.43552e+119
9.93495e+118
-2.39862e+120
-1.50467e+120
-7.6798e+119
-3.68092e+119
-1.52807e+119
-3.91402e+118
1.89503e+118
4.7585e+118
6.05264e+118
6.42118e+118
6.23302e+118
5.74372e+118
5.11419e+118
4.44542e+118
3.7738e+118
-4.51306e+119
-4.04391e+119
-2.83304e+119
-1.95312e+119
-1.34739e+119
-9.38337e+118
-6.60151e+118
-4.71859e+118
-3.43321e+118
-2.51934e+118
-1.84433e+118
-1.33769e+118
-9.57412e+117
-6.74103e+117
-4.67966e+117
6.0258e+117
-2.07796e+118
-2.51087e+118
-2.21882e+118
-1.79908e+118
-1.42153e+118
-1.12388e+118
-9.0478e+117
-7.40114e+117
-6.08969e+117
-5.01016e+117
-4.11378e+117
-3.36959e+117
-2.75401e+117
-2.24805e+117
1.09732e+118
6.62263e+117
2.7846e+117
1.01592e+117
2.27455e+116
-1.09794e+116
-2.43916e+116
-2.87842e+116
-2.89504e+116
-2.70555e+116
-2.42836e+116
-2.12637e+116
-1.83148e+116
-1.55909e+116
-1.31482e+116
-5.46088e+116
3.906e+116
4.80075e+116
3.80372e+116
2.69073e+116
1.84934e+116
1.27482e+116
8.91127e+115
6.2496e+115
4.3486e+115
2.98969e+115
2.03038e+115
1.36187e+115
9.03868e+114
5.90082e+114
-7.2871e+116
-3.83009e+116
-1.64425e+116
-6.76423e+115
-2.50744e+115
-6.31828e+114
1.94871e+114
5.3783e+114
6.40989e+114
6.28671e+114
5.66707e+114
4.8782e+114
4.07851e+114
3.34651e+114
2.69159e+114
-1.26759e+116
-8.83762e+115
-5.19786e+115
-3.11373e+115
-1.91271e+115
-1.21727e+115
-8.07086e+114
-5.52557e+114
-3.84281e+114
-2.68487e+114
-1.87518e+114
-1.30638e+114
-9.06736e+113
-6.26558e+113
-4.33306e+113
-9.0729e+114
-6.85204e+114
-4.61336e+114
-3.15199e+114
-2.20504e+114
-1.5966e+114
-1.20019e+114
-9.26575e+113
-7.2301e+113
-5.6544e+113
-4.4214e+113
-3.45462e+113
-2.69709e+113
-2.10515e+113
-1.64485e+113
-6.80918e+113
-3.10796e+113
-1.45127e+113
-8.24244e+112
-5.38053e+112
-3.86718e+112
-2.97905e+112
-2.39326e+112
-1.95851e+112
-1.61098e+112
-1.32463e+112
-1.08657e+112
-8.88583e+111
-7.2473e+111
-5.90355e+111
-6.65101e+112
-4.294e+112
-1.97282e+112
-9.81747e+111
-5.10677e+111
-2.74879e+111
-1.51288e+111
-8.36286e+110
-4.53129e+110
-2.32792e+110
-1.07721e+110
-3.9218e+109
-3.70132e+108
1.28491e+109
1.88057e+109
1.69864e+112
4.42912e+111
5.75111e+110
-3.7412e+110
-5.26499e+110
-4.80159e+110
-3.91714e+110
-3.03923e+110
-2.284e+110
-1.67978e+110
-1.21874e+110
-8.76271e+109
-6.25897e+109
-4.46065e+109
-3.16585e+109
4.98581e+111
2.54633e+111
1.11376e+111
5.29366e+110
2.67382e+110
1.40913e+110
7.64552e+109
4.19944e+109
2.27624e+109
1.17861e+109
5.55222e+108
2.1146e+108
3.15149e+107
-5.50646e+107
-8.73046e+107
2.21762e+110
2.12426e+110
1.33604e+110
8.47636e+109
5.52583e+109
3.72394e+109
2.58429e+109
1.82951e+109
1.30527e+109
9.32067e+108
6.64925e+108
4.73965e+108
3.3793e+108
2.41535e+108
1.73784e+108
-6.25708e+109
-2.53181e+109
-8.29838e+108
-2.42198e+108
-3.16076e+107
4.29677e+107
6.49711e+107
6.61231e+107
5.91743e+107
4.96766e+107
4.0118e+107
3.15698e+107
2.44231e+107
1.87271e+107
1.43204e+107
-8.55009e+108
-5.0702e+108
-2.5916e+108
-1.43076e+108
-8.44191e+107
-5.25571e+107
-3.40899e+107
-2.27276e+107
-1.53529e+107
-1.04148e+107
-7.07141e+106
-4.80591e+106
-3.2743e+106
-2.24122e+106
-1.55125e+106
-2.37678e+107
-1.89096e+107
-1.2242e+107
-8.19018e+106