/*--------------------------------*- C++ -*----------------------------------*\
  =========                 |
  \\      /  F ield         | OpenFOAM: The Open Source CFD Toolbox
   \\    /   O peration     | Website:  https://openfoam.org
    \\  /    A nd           | Version:  7
     \\/     M anipulation  |
\*---------------------------------------------------------------------------*/
FoamFile
{
    version     2.0;
    format      ascii;
    class       volScalarField;
    location    "4.9";
    object      T;
}
// * * * * * * * * * * * * * * * * * * * * * * * * * * * * * * * * * * * * * //

dimensions      [0 0 0 1 0 0 0];

internalField   nonuniform List<scalar> 
32100
(
-1.95167e+146
3.9676e+145
-1.37525e+144
-2.82642e+143
5.70341e+142
1.56748e+140
-6.15414e+140
3.30605e+139
2.3811e+138
-6.35574e+137
-1.83023e+135
1.48925e+135
-7.49753e+132
-7.00931e+132
-2.41352e+132
4.34119e+145
-1.38048e+144
-3.0955e+143
5.92737e+142
2.39109e+140
-6.35413e+140
3.36851e+139
2.47428e+138
-6.54228e+137
-8.19299e+135
3.71255e+135
1.96535e+135
-4.85936e+133
-5.97106e+132
-1.86041e+132
-1.32224e+144
-3.49649e+143
6.25346e+142
3.38147e+140
-6.62606e+140
3.51189e+139
2.66569e+138
-6.71253e+137
9.50839e+134
1.22628e+136
2.44634e+135
1.1978e+135
-6.84384e+133
-5.46913e+132
-1.52373e+132
-4.07906e+143
6.79358e+142
7.38483e+140
-7.0574e+140
3.39239e+139
3.55668e+138
-6.14721e+137
-1.22029e+136
9.49556e+135
4.68454e+134
1.18421e+135
4.92954e+134
-6.52663e+133
-5.5027e+132
-1.08276e+132
7.2326e+142
1.93674e+141
-5.06469e+140
2.58556e+139
1.60025e+138
7.95552e+136
6.60421e+136
-4.64453e+134
-1.47574e+135
2.82838e+134
2.96831e+134
1.2242e+134
-4.92043e+133
-4.79125e+132
-5.69457e+131
1.9898e+141
3.0281e+140
2.69653e+140
-5.27552e+138
-2.20986e+138
7.32458e+137
8.48053e+136
-1.01444e+136
-9.62399e+134
6.15394e+133
-2.0011e+132
-2.71922e+132
-3.04019e+133
-3.21288e+132
-1.53518e+131
-9.38676e+139
1.06922e+141
2.34787e+140
-7.24146e+138
-1.64377e+138
6.9981e+137
7.95208e+136
-8.43332e+135
-9.8855e+134
2.299e+133
-3.07383e+133
-2.17906e+133
-1.5076e+133
-1.50947e+132
7.7232e+130
8.06364e+140
9.55423e+140
2.28016e+140
-4.43495e+138
-1.7542e+138
6.35554e+137
8.51017e+136
-7.32333e+135
-1.05705e+135
3.03173e+133
-1.86862e+133
-1.239e+133
-5.57024e+132
-3.57518e+131
1.41476e+131
7.39449e+140
8.71091e+140
2.25163e+140
-2.26547e+138
-1.86793e+138
5.78843e+137
8.9198e+136
-6.18888e+135
-1.10478e+135
3.16938e+133
-7.82793e+132
-4.26357e+132
-1.25369e+132
1.15956e+131
1.12869e+131
6.97233e+140
7.93849e+140
2.20599e+140
-8.24601e+136
-1.94096e+138
5.18617e+137
9.23695e+136
-4.97086e+135
-1.14146e+135
2.451e+133
-3.74995e+132
-1.96239e+132
3.06358e+130
1.74415e+131
6.1492e+130
6.61431e+140
7.20419e+140
2.1554e+140
2.1248e+138
-1.98501e+138
4.56952e+137
9.4603e+136
-3.71157e+135
-1.15971e+135
1.43624e+133
-2.10124e+132
-1.61339e+132
1.54438e+131
1.01098e+131
2.35092e+130
6.28563e+140
6.57181e+140
2.08969e+140
4.25028e+138
-2.00165e+138
3.95249e+137
9.58907e+136
-2.44548e+135
-1.15678e+135
3.77178e+132
-1.00857e+132
-1.45469e+132
4.66272e+130
3.93779e+130
5.24614e+129
6.23721e+140
6.09601e+140
1.9499e+140
6.03336e+138
-1.95395e+138
3.35313e+137
9.62981e+136
-1.21029e+135
-1.13213e+135
-6.3479e+132
-1.92209e+131
-1.21458e+132
-1.29391e+129
1.42289e+130
2.40524e+128
7.05644e+140
5.05108e+140
1.56931e+140
6.68659e+138
-1.67801e+138
2.80845e+137
9.44025e+136
-7.64963e+133
-1.08349e+135
-1.57846e+133
4.08174e+131
-1.07028e+132
-1.49956e+130
8.02587e+129
-3.55171e+128
6.0829e+140
3.6538e+140
1.24779e+140
6.56862e+138
-1.33843e+138
2.09202e+137
8.39485e+136
9.41962e+134
-1.00893e+135
-2.53841e+133
8.97322e+131
-1.13419e+132
-2.70102e+130
7.7978e+129
-4.04821e+128
3.85773e+140
2.71809e+140
1.07464e+140
6.6778e+138
-1.148e+138
1.44957e+137
7.47134e+136
1.9385e+135
-9.47553e+134
-3.64806e+133
1.38773e+132
-1.21039e+132
-4.9211e+130
9.8151e+129
-3.85516e+128
2.82533e+140
2.27552e+140
9.77247e+139
7.05244e+138
-1.0587e+138
1.01958e+137
7.12414e+136
2.94354e+135
-9.0229e+134
-4.82655e+133
1.78869e+132
-1.16712e+132
-7.34361e+130
1.14672e+130
-2.89934e+128
2.51513e+140
2.02662e+140
9.27202e+139
7.66507e+138
-9.85516e+137
6.85445e+136
6.91323e+136
3.9686e+135
-8.50879e+134
-6.07356e+133
2.00825e+132
-1.06686e+132
-9.54565e+130
1.183e+130
-1.03417e+128
2.28474e+140
1.82133e+140
8.78809e+139
8.31602e+138
-8.89507e+137
3.70235e+136
6.70197e+136
5.04247e+135
-7.85497e+134
-7.35972e+133
2.00726e+132
-9.34161e+131
-1.14335e+131
1.10656e+130
1.43596e+128
2.11107e+140
1.63216e+140
8.27076e+139
8.93585e+138
-7.73596e+137
6.17758e+135
6.43765e+136
6.13656e+135
-7.01291e+134
-8.63845e+133
1.74912e+132
-7.98352e+131
-1.3368e+131
9.77445e+129
4.2821e+128
1.96709e+140
1.4535e+140
7.70968e+139
9.4971e+138
-6.39209e+137
-2.35384e+136
6.10185e+136
7.22526e+135
-5.95992e+134
-9.89826e+133
1.22267e+132
-6.44213e+131
-1.49166e+131
7.87032e+129
7.19137e+128
1.82272e+140
1.28063e+140
7.1319e+139
1.00084e+139
-4.86023e+137
-5.14191e+136
5.68461e+136
8.3021e+135
-4.68454e+134
-1.11456e+134
4.08762e+131
-4.77428e+131
-1.56294e+131
5.37764e+129
9.55787e+128
1.67013e+140
1.11748e+140
6.56073e+139
1.04536e+139
-3.13769e+137
-7.64379e+136
5.18172e+136
9.35837e+135
-3.15726e+134
-1.23907e+134
-7.33993e+131
-3.18814e+131
-1.61081e+131
2.72601e+129
1.11991e+129
1.51317e+140
9.6651e+139
5.99688e+139
1.08125e+139
-1.22239e+137
-9.71948e+136
4.59532e+136
1.03822e+136
-1.32821e+134
-1.35983e+134
-2.27567e+132
-1.70914e+131
-1.66009e+131
6.88698e+126
1.23021e+129
1.35899e+140
8.31855e+139
5.45361e+139
1.1093e+139
8.74597e+136
-1.12794e+137
3.92774e+136
1.134e+136
8.66596e+133
-1.46566e+134
-4.30946e+132
-3.13107e+130
-1.70768e+131
-2.89766e+129
1.3144e+129
1.21058e+140
7.13556e+139
4.92279e+139
1.12799e+139
3.13783e+137
-1.22369e+137
3.1829e+136
1.21778e+136
3.49733e+134
-1.54635e+134
-6.93752e+132
9.97043e+130
-1.75493e+131
-6.22616e+129
1.40101e+129
1.07247e+140
6.08481e+139
4.40635e+139
1.13759e+139
5.55827e+137
-1.24839e+137
2.36998e+136
1.28488e+136
6.62362e+134
-1.58687e+134
-1.02533e+133
2.14756e+131
-1.76822e+131
-1.01418e+130
1.46967e+129
9.52988e+139
5.17343e+139
3.92672e+139
1.1414e+139
8.12182e+137
-1.19011e+137
1.50011e+136
1.32942e+136
1.02634e+135
-1.5767e+134
-1.43219e+133
2.92106e+131
-1.68926e+131
-1.43176e+130
1.45781e+129
8.51717e+139
4.42876e+139
3.49681e+139
1.14021e+139
1.08055e+138
-1.03724e+137
5.92235e+135
1.34609e+136
1.44441e+135
-1.47889e+134
-1.9181e+133
3.05884e+131
-1.53481e+131
-1.87112e+130
1.36089e+129
7.60246e+139
3.83775e+139
3.10607e+139
1.12976e+139
1.3552e+138
-7.76073e+136
-3.28224e+135
1.32799e+136
1.92277e+135
-1.25329e+134
-2.48082e+133
2.22179e+131
-1.30526e+131
-2.34294e+130
1.1762e+129
6.69173e+139
3.32555e+139
2.72329e+139
1.10433e+139
1.62993e+138
-3.91926e+136
-1.22611e+136
1.26591e+136
2.46428e+135
-8.55935e+133
-3.12455e+133
-5.97814e+129
-9.60032e+130
-2.76466e+130
8.83496e+128
5.76802e+139
2.81771e+139
2.32436e+139
1.06518e+139
1.89821e+138
1.29622e+136
-2.04474e+136
1.14752e+136
3.06219e+135
-2.16858e+133
-3.85072e+133
-4.27486e+131
-5.51391e+130
-3.12329e+130
5.1722e+128
4.93789e+139
2.33728e+139
1.95294e+139
1.0141e+139
2.14944e+138
8.02802e+136
-2.69935e+136
9.57977e+135
3.68703e+135
7.57682e+133
-4.64412e+133
-1.15065e+132
-1.21373e+130
-3.58744e+130
5.47302e+127
4.27462e+139
1.97005e+139
1.65206e+139
9.53962e+138
2.38215e+138
1.64069e+137
-3.07694e+136
6.89672e+135
4.27899e+135
2.18052e+134
-5.4068e+133
-2.45423e+132
3.9342e+130
-4.26939e+130
-6.91962e+128
3.72324e+139
1.73174e+139
1.40891e+139
8.87935e+138
2.59861e+138
2.65732e+137
-3.01994e+136
3.4552e+135
4.75256e+135
4.17239e+134
-5.90902e+133
-4.61122e+132
9.7442e+130
-5.03944e+130
-2.0499e+129
3.22524e+139
1.54035e+139
1.18517e+139
8.17456e+138
2.79388e+138
3.85695e+137
-2.33053e+136
-5.81232e+134
5.00065e+135
6.80838e+134
-5.70437e+133
-8.0742e+132
1.39096e+131
-5.60527e+130
-4.52597e+129
2.77712e+139
1.35733e+139
9.79879e+138
7.45702e+138
2.96268e+138
5.21282e+137
-8.77041e+135
-4.87293e+135
4.9172e+135
1.0036e+135
-4.07898e+133
-1.33743e+133
9.23788e+130
-5.3382e+130
-8.80873e+129
2.37729e+139
1.20444e+139
8.0797e+138
6.73348e+138
3.09309e+138
6.65938e+137
1.44204e+136
-8.89163e+135
4.39886e+135
1.36573e+135
-1.47927e+132
-1.98759e+133
-1.88106e+131
-3.35238e+130
-1.51741e+130
2.017e+139
1.0882e+139
6.69683e+138
5.97544e+138
3.1529e+138
8.05697e+137
4.70989e+136
-1.19222e+136
3.36423e+135
1.71823e+135
6.77107e+133
-2.63785e+133
-9.03801e+131
8.50212e+129
-2.29264e+130
1.68857e+139
1.00203e+139
5.64349e+138
5.20512e+138
3.0884e+138
9.28868e+137
8.88914e+136
-1.30369e+136
1.82752e+135
1.98213e+135
1.6873e+134
-3.09278e+133
-2.38784e+132
7.12439e+130
-2.98007e+130
1.38159e+139
9.28893e+138
4.87759e+138
4.43838e+138
2.90854e+138
1.02739e+138
1.3752e+137
-1.12063e+136
-7.52323e+133
2.09024e+135
2.96245e+134
-3.08639e+133
-5.0697e+132
1.29741e+131
-2.95745e+130
1.0944e+139
8.44079e+138
4.31806e+138
3.69113e+138
2.67223e+138
1.09672e+138
1.89478e+137
-6.0265e+135
-2.15788e+135
2.01705e+135
4.32614e+134
-2.26768e+133
-8.01912e+132
1.05812e+131
-1.51918e+130
8.43678e+138
7.39411e+138
3.85417e+138
3.01968e+138
2.41337e+138
1.13562e+138
2.40703e+137
2.6118e+135
-4.14461e+135
1.75238e+135
5.41567e+134
-5.84375e+132
-1.04573e+133
-5.16881e+130
1.2496e+130
6.41882e+138
6.29467e+138
3.4218e+138
2.47788e+138
2.14991e+138
1.14625e+138
2.88372e+137
1.40386e+136
-5.31446e+135
1.32567e+135
6.21532e+134
1.51841e+133
-1.24428e+133
-3.33528e+131
4.72054e+130
4.87366e+138
5.3093e+138
3.0594e+138
2.07299e+138
1.89756e+138
1.13527e+138
3.30998e+137
2.69174e+136
-5.65612e+135
7.82225e+134
6.84712e+134
3.58816e+133
-1.25554e+133
-7.72551e+131
1.26717e+131
3.71758e+138
4.50138e+138
2.78516e+138
1.77408e+138
1.66862e+138
1.11093e+138
3.697e+137
4.05373e+136
-5.4667e+135
2.28904e+134
6.52001e+134
4.9395e+133
-1.0163e+133
-8.75053e+131
8.05132e+130
2.83975e+138
3.84284e+138
2.58955e+138
1.56263e+138
1.46873e+138
1.08019e+138
4.06753e+137
5.55959e+136
-4.78268e+135
-2.56104e+134
5.87599e+134
5.69578e+133
-7.79806e+132
-7.10563e+131
3.65477e+130
2.16074e+138
3.28203e+138
2.45109e+138
1.4282e+138
1.29622e+138
1.04067e+138
4.41035e+137
7.20488e+136
-3.80731e+135
-6.66371e+134
5.5688e+134
6.47323e+133
-6.54341e+132
-6.61441e+131
2.59298e+130
1.62143e+138
2.77841e+138
2.31952e+138
1.34193e+138
1.14246e+138
9.85098e+137
4.67118e+137
8.9367e+136
-2.36023e+135
-1.0605e+135
5.34302e+134
7.32987e+133
-5.94695e+132
-6.97351e+131
2.54557e+130
1.19826e+138
2.3181e+138
2.17295e+138
1.28314e+138
1.00536e+138
9.17094e+137
4.83719e+137
1.06977e+137
-3.05034e+134
-1.44213e+135
5.09718e+134
8.21817e+133
-5.53125e+132
-7.73746e+131
2.83258e+130
8.70059e+137
1.91075e+138
2.03137e+138
1.25792e+138
8.91869e+137
8.47705e+137
4.97597e+137
1.25324e+137
2.41844e+135
-1.80114e+135
4.7637e+134
8.9943e+133
-4.97935e+132
-8.24167e+131
3.06366e+130
6.17255e+137
1.55249e+138
1.89626e+138
1.25077e+138
8.04099e+137
7.78293e+137
5.10524e+137
1.45731e+137
5.95764e+135
-2.12469e+135
4.27088e+134
9.40415e+133
-4.11708e+132
-7.83568e+131
3.17565e+130
4.29474e+137
1.23012e+138
1.72672e+138
1.23819e+138
7.37481e+137
7.07856e+137
5.17999e+137
1.68134e+137
1.04658e+136
-2.39672e+135
3.6454e+134
9.34e+133
-3.03688e+132
-6.47575e+131
4.12603e+130
2.93177e+137
9.50652e+137
1.52519e+138
1.2228e+138
6.97639e+137
6.38897e+137
5.18799e+137
1.91697e+137
1.6063e+136
-2.58537e+135
2.96067e+134
8.8009e+133
-1.89173e+132
-4.48044e+131
7.58873e+130
1.93573e+137
7.20388e+137
1.32738e+138
1.21453e+138
6.90426e+137
5.72159e+137
5.11283e+137
2.1555e+137
2.28351e+136
-2.66626e+135
2.28413e+134
7.72799e+133
-7.36291e+131
-2.26782e+131
1.31974e+131
1.21445e+137
5.29182e+137
1.13304e+138
1.20497e+138
7.06037e+137
5.0969e+137
4.94602e+137
2.38661e+137
3.08241e+136
-2.61322e+135
1.7011e+134
5.97816e+133
4.57642e+131
-2.47903e+130
1.45279e+131
7.06134e+136
3.69817e+137
9.3713e+137
1.17378e+138
7.37262e+137
4.56932e+137
4.69851e+137
2.61683e+137
3.99837e+136
-2.33091e+135
1.22686e+134
3.4724e+133
1.53442e+132
1.33332e+131
1.33786e+131
3.7184e+136
2.42117e+137
7.43361e+137
1.1138e+138
7.79092e+137
4.18604e+137
4.3412e+137
2.8327e+137
5.01966e+136
-1.84476e+135
8.6599e+133
9.49506e+132
2.65674e+132
3.47704e+131
1.46293e+131
1.7302e+136
1.45011e+137
5.57662e+137
1.02198e+138
8.20398e+137
3.98466e+137
3.86423e+137
2.98819e+137
6.17006e+136
-1.28371e+135
5.59442e+133
-4.5457e+132
3.88282e+132
8.6981e+131
2.63134e+131
6.69155e+135
7.64721e+136
3.87393e+137
8.98298e+137
8.52307e+137
4.02451e+137
3.30046e+137
3.01706e+137
7.56762e+136
-1.02104e+135
-1.8672e+133
-6.19231e+132
4.22194e+132
1.52814e+132
5.09543e+131
1.79169e+135
3.21157e+136
2.38777e+137
7.48048e+137
8.70666e+137
4.37855e+137
2.70026e+137
2.83439e+137
9.0272e+136
-9.36829e+133
-3.26913e+131
4.78003e+133
2.31527e+133
1.47003e+133
5.17756e+132
2.74549e+134
7.77471e+135
1.1822e+137
5.75445e+137
8.7e+137
5.1152e+137
2.16949e+137
2.40749e+137
9.69511e+136
4.86204e+135
-3.23924e+134
3.68106e+133
-5.35716e+133
-2.05997e+133
-6.39342e+131
2.52899e+134
-5.72033e+134
3.3203e+136
3.85012e+137
8.36239e+137
6.22855e+137
1.90099e+137
1.86954e+137
1.07505e+137
1.85743e+136
5.39468e+134
7.46082e+134
6.33091e+134
4.168e+134
1.38159e+134
1.21694e+134
-4.30691e+134
-8.23739e+135
1.89532e+137
7.45544e+137
7.54046e+137
2.07187e+137
1.22674e+137
1.11944e+137
3.64592e+136
1.51499e+136
1.18569e+136
1.50688e+136
1.92836e+136
1.20006e+136
-8.29455e+134
-7.24896e+134
-9.15695e+135
3.40453e+136
5.74723e+137
8.69394e+137
2.75004e+137
5.31587e+136
9.04733e+136
3.50366e+136
3.68287e+136
3.43205e+136
4.50303e+136
3.88779e+136
2.10684e+136
-1.4258e+135
-6.72938e+134
-1.44761e+136
5.41652e+135
3.57455e+137
9.12924e+137
3.73481e+137
5.85884e+135
5.26231e+136
9.97546e+135
8.90687e+135
1.91905e+136
2.22978e+136
1.78347e+136
2.00216e+136
-2.06282e+137
-8.50283e+136
-4.80173e+136
5.09891e+136
3.30476e+137
7.72913e+137
4.37689e+137
-5.91756e+135
2.10369e+136
-1.55559e+135
2.16563e+135
2.69388e+135
3.72728e+135
6.26028e+135
1.74962e+136
3.25777e+138
1.30638e+138
5.41511e+137
2.71907e+137
5.19673e+137
7.33042e+137
2.81629e+137
-1.68071e+135
-3.30829e+135
2.37199e+136
1.53278e+136
9.71854e+135
6.83746e+135
5.52444e+135
1.41767e+136
6.03917e+138
1.61908e+138
2.55727e+138
2.39058e+138
1.73692e+138
5.09122e+137
-2.14122e+137
-2.00834e+137
-7.3471e+135
3.02564e+136
2.23019e+136
1.37397e+136
8.55163e+135
5.49185e+135
1.20328e+136
-4.68929e+140
-1.18717e+140
-3.78802e+139
-1.5589e+139
-7.16647e+138
-3.73318e+138
-1.48224e+138
-2.0434e+137
7.90944e+136
8.89384e+136
5.2395e+136
2.74081e+136
1.43383e+136
7.64748e+135
1.06977e+136
-3.99665e+141
-1.01885e+141
-5.21004e+140
-2.48253e+140
-1.26134e+140
-6.59995e+139
-2.5129e+139
-5.84832e+138
-1.06403e+138
-1.43675e+137
-4.54752e+135
4.41063e+135
2.15097e+134
-1.50795e+135
-9.49725e+135
1.0613e+143
1.13495e+142
4.08374e+140
-4.40563e+140
-3.71075e+140
-1.79896e+140
-5.33946e+139
-1.2448e+139
-2.80449e+138
-7.42057e+137
-2.80776e+137
-1.52576e+137
-9.56155e+136
-6.20737e+136
-9.59613e+136
-8.72238e+143
2.29192e+142
2.11906e+142
4.03356e+141
2.51485e+140
-1.41098e+140
-5.84189e+139
-1.26321e+139
-2.52213e+138
-2.83816e+137
2.26836e+137
2.71794e+137
1.84833e+137
7.11508e+136
-3.45689e+136
-1.41059e+144
-8.79073e+143
-5.28425e+141
5.13884e+141
4.09241e+139
-5.23811e+139
-4.30019e+139
-1.76641e+139
-7.89899e+138
-6.27597e+138
-5.22173e+138
-3.90302e+138
-2.42452e+138
-1.20278e+138
-6.01244e+137
7.48661e+145
-1.09689e+144
-9.85594e+143
1.10284e+143
-8.85433e+141
-1.27244e+141
-5.59586e+139
-5.1045e+139
-3.33079e+139
-1.51875e+139
-6.52849e+138
-2.82063e+138
-1.75903e+138
-1.53842e+138
-9.12297e+137
8.03392e+146
7.17887e+145
-2.5725e+144
-7.52075e+143
1.29763e+143
-5.45457e+141
3.46283e+141
4.41256e+141
3.97875e+141
3.40557e+141
2.73308e+141
1.98878e+141
1.23847e+141
6.13155e+140
2.14911e+140
-1.04315e+148
7.8278e+146
6.53392e+145
-2.3942e+144
-5.89233e+143
1.95032e+143
5.18425e+142
4.8483e+142
3.91809e+142
2.98335e+142
2.18995e+142
1.52645e+142
9.61566e+141
5.1465e+141
1.92732e+141
5.62679e+148
-9.27895e+147
7.5496e+146
6.32061e+145
-1.99192e+144
-3.72911e+143
2.76793e+143
7.59744e+142
3.4877e+142
5.15815e+141
-1.1222e+142
-1.4961e+142
-1.03243e+142
-3.07071e+141
-5.52269e+140
3.77285e+148
4.74074e+148
-8.44354e+147
7.34587e+146
6.082e+145
-2.83667e+144
-1.03914e+144
-2.12794e+143
-2.29116e+143
-1.22966e+143
-5.58205e+142
-2.4415e+142
-1.19015e+142
-7.09592e+141
-2.84499e+141
-4.45346e+150
5.89183e+148
4.14355e+148
-7.91581e+147
7.13566e+146
5.96094e+145
-3.13059e+144
-1.3625e+144
-6.9179e+143
-8.46864e+143
-7.89581e+143
-6.64818e+143
-4.98108e+143
-3.14357e+143
-1.5397e+143
3.32548e+151
-1.22823e+151
1.24641e+149
1.27517e+149
-2.40211e+148
1.64644e+147
-1.25196e+146
-3.19642e+146
-3.08034e+146
-2.80581e+146
-2.43045e+146
-1.98521e+146
-1.48776e+146
-1.07218e+146
-7.92556e+145
3.77022e+152
3.27127e+151
-1.16577e+151
6.63282e+148
1.31627e+149
-2.74773e+148
-1.063e+147
-2.09348e+147
-1.98759e+147
-1.64346e+147
-1.14856e+147
-7.64644e+146
-5.21308e+146
-3.52579e+146
-2.10391e+146
-1.77638e+153
3.67988e+152
2.63189e+151
-1.14603e+151
-3.63545e+148
1.13082e+149
-3.74351e+148
-9.68293e+147
-7.73696e+147
-5.92375e+147
-4.25782e+147
-2.84536e+147
-1.70134e+147
-9.08356e+146
-5.07101e+146
-3.32205e+154
-1.43587e+153
3.69051e+152
2.9337e+151
-1.15243e+151
-1.24525e+150
6.79204e+148
-7.07103e+148
-4.8533e+148
-2.72084e+148
-1.74793e+148
-1.03509e+148
-5.40356e+147
-2.45118e+147
-1.19873e+147
7.77645e+155
-3.21662e+154
-1.25685e+153
3.46758e+152
2.08324e+151
-8.66645e+150
-1.52596e+148
2.49056e+148
-4.75047e+148
-2.4018e+148
-1.7679e+148
-1.2803e+148
-8.58318e+147
-5.01038e+147
-2.93711e+147
-3.42201e+154
-1.46571e+153
4.0552e+152
3.00633e+151
-1.06541e+151
1.13088e+149
1.54292e+149
-2.67205e+148
-1.3374e+148
-1.41805e+148
-1.25436e+148
-1.14679e+148
-9.24498e+147
-6.75268e+147
-4.77297e+147
-1.91845e+153
3.81112e+152
5.27685e+151
-4.2489e+150
1.68463e+149
2.96159e+149
8.89574e+148
2.2177e+148
-1.28972e+147
-7.48256e+147
-8.48872e+147
-1.05575e+148
-9.5139e+147
-7.90893e+147
-6.06458e+147
2.35321e+152
4.33496e+151
1.01238e+151
2.86697e+150
7.69604e+149
1.85714e+149
2.03423e+148
-2.32325e+148
-2.92523e+148
-2.48664e+148
-2.06245e+148
-2.08877e+148
-1.36493e+148
-8.99896e+147
-5.70992e+147
2.38997e+151
2.97447e+150
-5.65606e+149
-5.55304e+149
-3.68929e+149
-2.37282e+149
-1.50864e+149
-9.5702e+148
-6.117e+148
-4.41167e+148
-3.97504e+148
-4.76241e+148
-4.14044e+147
-6.79654e+146
-1.81922e+146
-3.01174e+150
-8.27521e+149
-3.74417e+149
-2.05229e+149
-1.16294e+149
-6.80438e+148
-4.16872e+148
-2.70323e+148
-2.08051e+148
-4.04595e+148
-1.12534e+148
9.16546e+146
-2.34976e+146
-3.12883e+145
-1.47948e+145
-1.0157e+149
-4.31051e+148
-5.13544e+147
5.09105e+147
6.30086e+147
5.47972e+147
4.43396e+147
3.68836e+147
5.31013e+147
-2.10311e+148
-3.17208e+148
-9.33582e+146
1.25467e+147
6.73644e+146
3.31114e+146
4.00001e+148
1.53545e+148
5.78928e+147
2.63173e+147
1.32083e+147
5.49121e+146
2.71356e+146
2.9798e+145
-8.96664e+146
-4.33185e+147
-2.50916e+148
-1.66706e+148
-9.53036e+147
-5.34491e+147
-2.99569e+147
-5.05107e+147
-1.86508e+147
-8.61458e+146
-5.21079e+146
-3.67282e+146
-2.40946e+146
-9.7936e+145
8.50635e+144
6.55189e+145
3.1101e+146
-1.30116e+147
-3.08027e+147
-3.30083e+147
-2.73354e+147
-2.0779e+147
1.93118e+146
6.68241e+145
4.63404e+145
3.56189e+145
3.01926e+145
2.37065e+145
9.22316e+144
-2.08315e+144
-6.54298e+144
-2.43551e+145
7.80753e+145
1.31584e+146
1.21288e+146
1.00626e+146
8.50184e+145
2.74226e+145
9.87041e+144
5.36278e+144
3.86862e+144
3.12457e+144
2.47457e+144
1.96078e+144
1.42157e+144
3.65669e+143
-1.79989e+144
-9.65369e+144
-8.89767e+144
-5.91928e+144
-4.12022e+144
-3.12479e+144
1.08376e+144
5.88772e+143
9.03866e+142
-9.17665e+142
-1.55126e+143
-1.37217e+143
3.08014e+142
1.99337e+143
3.52764e+143
7.07687e+143
-5.24093e+143
-1.40273e+144
-1.42359e+144
-1.20876e+144
-9.65014e+143
-6.37939e+143
-2.57394e+143
-1.05853e+143
-5.2919e+142
-3.04317e+142
-1.71155e+142
-9.03799e+141
3.68543e+141
4.67098e+142
1.72806e+143
4.01921e+143
4.05813e+143
3.22939e+143
2.48469e+143
1.89576e+143
7.51614e+142
2.84912e+142
1.38929e+142
8.75011e+141
6.2246e+141
3.91415e+141
1.12642e+141
-1.28047e+141
-2.45605e+141
1.26002e+141
1.57225e+142
2.1499e+142
1.93216e+142
1.5473e+142
1.18184e+142
-2.10154e+141
-7.3126e+140
-6.24645e+140
-5.29624e+140
-4.42068e+140
-2.83676e+140
-4.69211e+139
3.92929e+139
-2.78394e+140
-1.33876e+141
-3.00037e+141
-3.14623e+141
-2.58816e+141
-2.02417e+141
-1.5677e+141
-5.83125e+140
-2.14511e+140
-1.10099e+140
-7.55074e+139
-5.85696e+139
-4.33226e+139
-2.36688e+139
1.06851e+139
6.78798e+139
1.15958e+140
1.14371e+140
6.40799e+139
2.06387e+139
-1.87473e+139
-5.60626e+139
-2.13947e+138
-2.43223e+138
2.70143e+138
4.07461e+138
3.7488e+138
1.40674e+138
-2.99823e+138
-6.50937e+138
-5.13167e+138
7.19662e+138
2.66772e+139
2.71113e+139
1.05135e+139
-1.91785e+139
-5.79268e+139
1.02268e+139
3.96112e+138
1.62789e+138
8.60054e+137
5.31938e+137
3.10988e+137
2.31179e+136
-7.31456e+137
-2.38474e+138
-4.27612e+138
-5.53654e+138
-7.21545e+138
-1.51307e+139
-3.53052e+139
-6.92914e+139
-1.02145e+138
-3.75785e+137
-2.00045e+137
-1.39139e+137
-1.02825e+137
-5.82602e+136
7.91374e+134
5.7512e+136
1.64095e+137
7.54922e+137
1.45432e+138
5.05589e+137
-5.41106e+138
-2.24714e+139
-5.54874e+139
-2.02409e+136
-1.02242e+136
1.78537e+135
5.16769e+135
5.56925e+135
3.80951e+135
1.0304e+135
8.65091e+135
1.38181e+137
9.33999e+137
1.83484e+138
2.19683e+138
3.12433e+137
-1.00356e+139
-3.63923e+139
1.69749e+136
6.70507e+135
3.15011e+135
1.90427e+135
1.33018e+135
9.07897e+134
5.3929e+134
7.92052e+135
1.54165e+137
1.13463e+138
2.04835e+138
2.22594e+138
1.1989e+138
-1.9252e+138
-9.21134e+138
-8.81586e+134
-3.2578e+134
-2.24202e+134
-1.79284e+134
-1.43255e+134
-8.77738e+133
1.01428e+134
9.92916e+135
1.94706e+137
1.48513e+138
2.53625e+138
2.57372e+138
1.0884e+138
-2.75356e+138
-1.01186e+139
-1.22182e+134
-5.19357e+133
-2.12233e+133
-1.02289e+133
-5.93864e+132
-4.21771e+132
1.13776e+134
1.16106e+136
2.35654e+137
1.87291e+138
3.0668e+138
2.94925e+138
9.25287e+137
-4.15044e+138
-1.39295e+139
1.61128e+133
6.51042e+132
3.4186e+132
2.23554e+132
1.59223e+132
1.04256e+132
1.28181e+134
1.35948e+136
2.7847e+137
2.24526e+138
3.58432e+138
3.38255e+138
8.41156e+137
-5.62234e+138
-1.83583e+139
-1.87094e+131
-4.91769e+130
-9.13994e+130
-9.79083e+130
-9.66697e+130
-1.4394e+130
1.40154e+134
1.60709e+136
3.22394e+137
2.46781e+138
4.01307e+138
4.08649e+138
1.54338e+138
-5.59324e+138
-2.03759e+139
-1.4449e+131
-6.0663e+130
-3.0555e+130
-1.95288e+130
-2.16576e+130
5.23267e+130
1.52696e+134
1.90945e+136
3.7513e+137
2.40942e+138
4.20811e+138
5.11738e+138
4.0355e+138
-8.77995e+137
-1.24715e+139
5.25973e+129
1.77029e+129
1.91711e+129
1.90356e+129
-4.9817e+129
7.90607e+130
1.59857e+134
2.28554e+136
2.80568e+137
2.03497e+138
4.04575e+138
5.79451e+138
6.71096e+138
5.88148e+138
1.77721e+138
2.10496e+129
1.12136e+129
6.91532e+128
4.5846e+128
-5.67527e+129
8.98339e+130
1.54586e+134
2.81292e+136
2.42112e+137
1.44824e+138
3.22696e+138
5.19701e+138
7.17562e+138
8.97594e+138
1.01886e+139
-1.72783e+128
8.33832e+127
2.50085e+128
2.54315e+128
-5.19378e+129
9.43457e+130
1.35926e+134
3.37902e+136
2.31764e+137
8.42579e+137
1.89388e+138
3.33968e+138
5.11248e+138
7.17956e+138
9.5335e+138
1.29427e+128
2.40607e+128
3.6495e+128
3.34984e+128
-4.74531e+129
9.16588e+130
1.16733e+134
3.89889e+136
1.74019e+137
4.40724e+137
9.10161e+137
1.63744e+138
2.63796e+138
3.92864e+138
5.57998e+138
1.47512e+128
2.81187e+128
4.20118e+128
3.59434e+128
-4.36368e+129
7.84822e+130
1.19844e+134
2.01308e+136
8.68117e+136
2.00086e+137
3.80065e+137
6.51837e+137
1.04238e+138
1.58222e+138
2.31013e+138
1.71576e+128
3.3373e+128
4.94348e+128
3.8119e+128
-3.92458e+129
4.72542e+130
1.31228e+134
7.15734e+135
2.97603e+136
6.62856e+136
1.21098e+137
1.99299e+137
3.09557e+137
4.63714e+137
6.75318e+137
1.99935e+128
3.91893e+128
5.75797e+128
3.90964e+128
-3.66051e+129
-4.30973e+129
1.48519e+134
2.36657e+135
7.25934e+135
1.48961e+136
2.59851e+136
4.14679e+136
6.31284e+136
9.33669e+136
1.35001e+137
2.28934e+128
4.51525e+128
6.57473e+128
3.82483e+128
-3.84299e+129
-5.2313e+130
5.24198e+133
4.15907e+134
1.06998e+135
2.04943e+135
3.42136e+135
5.33266e+135
8.01175e+135
1.1726e+136
1.67994e+136
2.61469e+128
5.18592e+128
7.46935e+128
3.4886e+128
-4.53642e+129
-5.13121e+130
1.60229e+132
3.0408e+133
8.14634e+133
1.51496e+134
2.44612e+134
3.71436e+134
5.48138e+134
7.9081e+134
1.11768e+135
2.97756e+128
5.94983e+128
8.5069e+128
2.9562e+128
-5.79103e+129
-5.01e+130
-4.42923e+131
-8.24515e+131
-3.00264e+131
8.13877e+131
2.40724e+132
4.62218e+132
7.68816e+132
1.18414e+133
1.7367e+133
3.36152e+128
6.75941e+128
9.61018e+128
2.43583e+128
-7.11317e+129
-5.72047e+130
-2.42239e+131
-5.12541e+131
-7.29185e+131
-8.99433e+131
-1.0484e+132
-1.2038e+132
-1.3713e+132
-1.54803e+132
-1.73202e+132
3.71609e+128
7.70999e+128
1.15542e+129
6.11051e+128
-4.03617e+129
-1.85638e+130
-4.59611e+130
-8.13871e+130
-1.17312e+131
-1.50686e+131
-1.82074e+131
-2.13797e+131
-2.46401e+131
-2.79402e+131
-3.12299e+131
3.38272e+128
7.40297e+128
1.31637e+129
1.96626e+129
2.4039e+129
2.18225e+129
9.09012e+128
-1.34606e+129
-4.15222e+129
-7.24341e+129
-1.05279e+130
-1.40248e+130
-1.77257e+130
-2.15718e+130
-2.5525e+130
2.24723e+128
4.93075e+128
8.82138e+128
1.36536e+129
1.87313e+129
2.33574e+129
2.66471e+129
2.81088e+129
2.82837e+129
2.79708e+129
2.74283e+129
2.66456e+129
2.55837e+129
2.42159e+129
2.25518e+129
9.32674e+127
1.98079e+128
3.34448e+128
4.79159e+128
6.04869e+128
7.03865e+128
7.71735e+128
8.08275e+128
8.23595e+128
8.30887e+128
8.3671e+128
8.41339e+128
8.43139e+128
8.41054e+128
8.35023e+128
2.37794e+127
4.71729e+127
7.45416e+127
1.00656e+128
1.20942e+128
1.34917e+128
1.43195e+128
1.46673e+128
1.46903e+128
1.45597e+128
1.43649e+128
1.41162e+128
1.38034e+128
1.34238e+128
1.29871e+128
3.47721e+126
5.53952e+126
8.23154e+126
1.10234e+127
1.33456e+127
1.50968e+127
1.62759e+127
1.69627e+127
1.73203e+127
1.74739e+127
1.74627e+127
1.72891e+127
1.69575e+127
1.64813e+127
1.58852e+127
8.91472e+125
7.54107e+125
5.74211e+125
4.99435e+125
5.04889e+125
5.56712e+125
6.26432e+125
6.96223e+125
7.6113e+125
8.21074e+125
8.7325e+125
9.1411e+125
9.41703e+125
9.55496e+125
9.56718e+125
3.18225e+125
3.25353e+125
2.6425e+125
1.97647e+125
1.39179e+125
9.33865e+124
5.96768e+124
3.58031e+124
1.94641e+124
8.63538e+123
1.74157e+123
-2.37452e+123
-4.52865e+123
-5.31329e+123
-5.0486e+123
5.27395e+124
6.4763e+124
6.47464e+124
5.97449e+124
5.24258e+124
4.4686e+124
3.73984e+124
3.09406e+124
2.56369e+124
2.14161e+124
1.79106e+124
1.49158e+124
1.23522e+124
1.0171e+124
8.33939e+123
3.66619e+123
3.92915e+123
4.24764e+123
4.49992e+123
4.51763e+123
4.33623e+123
4.03049e+123
3.69234e+123
3.38577e+123
3.11038e+123
2.84394e+123
2.57992e+123
2.32135e+123
2.07265e+123
1.83807e+123
4.50749e+122
3.01542e+122
1.05292e+122
1.19924e+121
-2.2145e+121
-2.77727e+121
-2.18718e+121
-1.27861e+121
-3.51496e+120
5.18842e+120
1.27937e+121
1.88998e+121
2.33851e+121
2.63304e+121
2.79983e+121
-2.29465e+121
5.38401e+121
6.25176e+121
5.02903e+121
3.60799e+121
2.4618e+121
1.62223e+121
1.03753e+121
6.34095e+120
3.51126e+120
1.52453e+120
1.64434e+119
-7.23591e+119
-1.26394e+120
-1.55338e+120
-3.49288e+121
-2.05421e+121
-7.05568e+120
-7.6502e+119
1.93096e+120
2.90853e+120
3.12448e+120
3.04192e+120
2.83043e+120
2.55404e+120
2.25358e+120
1.9555e+120
1.67497e+120
1.41995e+120
1.19446e+120
2.47024e+120
-1.3509e+120
-1.90385e+120
-1.60253e+120
-1.18811e+120
-8.48483e+119
-6.02871e+119
-4.32678e+119
-3.11125e+119
-2.20689e+119
-1.53048e+119
-1.03205e+119
-6.71329e+118
-4.15893e+118
-2.3519e+118
2.72103e+120
1.59206e+120
7.7218e+119
3.78644e+119
1.86487e+119
9.02771e+118
4.07203e+118
1.47101e+118
1.2359e+117
-5.44625e+117
-8.45316e+117
-9.44273e+117
-9.32972e+117
-8.64879e+117
-7.63856e+117
2.78444e+119
2.59974e+119
1.7943e+119
1.20288e+119
8.0656e+118
5.54148e+118
3.95601e+118
2.92448e+118
2.20309e+118
1.67249e+118
1.27435e+118
9.73526e+117
7.45414e+117
5.72378e+117
4.41021e+117
-4.04436e+118
-1.56531e+118
-3.60648e+117
5.99305e+116
1.87806e+117
2.14731e+117
2.08915e+117
1.90535e+117
1.66452e+117
1.41339e+117
1.17913e+117
9.72237e+116
7.94938e+116
6.46488e+116
5.22278e+116
-1.13353e+118
-7.46157e+117
-4.28178e+117
-2.55888e+117
-1.59647e+117
-1.04335e+117
-7.14121e+116
-5.07075e+116
-3.67805e+116
-2.69663e+116
-1.98953e+116
-1.47462e+116
-1.09728e+116
-8.1963e+115
-6.17015e+115
-1.13664e+117
-7.37954e+116
-4.54068e+116
-2.94184e+116
-1.99606e+116
-1.41844e+116
-1.05122e+116
-8.01132e+115
-6.18538e+115
-4.79887e+115
-3.7302e+115
-2.902e+115
-2.25877e+115
-1.75964e+115
-1.37385e+115
-9.36064e+115
-4.99962e+115
-2.55699e+115
-1.48827e+115
-9.44628e+114
-6.45028e+114
-4.685e+114
-3.53797e+114
-2.72898e+114
-2.12633e+114
-1.66379e+114
-1.30441e+114
-1.02348e+114
-8.03853e+113
-6.32334e+113
3.95221e+114
-2.49021e+114
-1.71155e+114
-1.04244e+114
-6.11174e+113
-3.769e+113
-2.43152e+113
-1.60494e+113
-1.06476e+113
-7.03735e+112
-4.62678e+112
-3.02488e+112
-1.96432e+112
-1.27214e+112
-8.11537e+111
2.1133e+114
7.10071e+113
2.51801e+113
1.26643e+113
6.64916e+112
3.45064e+112
1.86993e+112
1.07528e+112
6.59395e+111
4.30334e+111
2.97497e+111
2.16645e+111
1.64469e+111
1.27877e+111
1.04124e+111
-7.6502e+113
3.34386e+112
7.51249e+112
5.7554e+112
3.66953e+112
2.39991e+112
1.63429e+112
1.14668e+112
8.19548e+111
5.91744e+111
4.29743e+111
3.13173e+111
2.28857e+111
1.67796e+111
1.24234e+111
-1.0339e+113
-7.50527e+111
1.07441e+112
6.84695e+111
4.32861e+111
2.99881e+111
2.14499e+111
1.5702e+111
1.16645e+111
8.71169e+110
6.50012e+110
4.83509e+110
3.58986e+110
2.6673e+110
1.99871e+110
1.1065e+113
2.11802e+112
5.19301e+111
1.30374e+111
5.01425e+110
2.60315e+110
1.63792e+110
1.17096e+110
8.8102e+109
6.63977e+109
4.93757e+109
3.6363e+109
2.66934e+109
1.96446e+109
1.46618e+109
2.1892e+112
6.67452e+111
1.50724e+111
5.14038e+110
2.1301e+110
9.49147e+109
4.67509e+109
2.54649e+109
1.48951e+109
9.12396e+108
5.82267e+108
3.87105e+108
2.66308e+108
1.89627e+108
1.38917e+108
-6.52054e+111
-1.06454e+111
-1.53655e+110
2.90727e+109
4.05641e+109