/*--------------------------------*- C++ -*----------------------------------*\
  =========                 |
  \\      /  F ield         | OpenFOAM: The Open Source CFD Toolbox
   \\    /   O peration     | Website:  https://openfoam.org
    \\  /    A nd           | Version:  7
     \\/     M anipulation  |
\*---------------------------------------------------------------------------*/
FoamFile
{
    version     2.0;
    format      ascii;
    class       volScalarField;
    location    "2.4";
    object      T;
}
// * * * * * * * * * * * * * * * * * * * * * * * * * * * * * * * * * * * * * //

dimensions      [0 0 0 1 0 0 0];

internalField   nonuniform List<scalar> 
32100
(
4.406e+63
-7.72111e+62
5.15094e+61
4.45313e+60
-7.25255e+59
-5.26123e+58
1.26883e+58
-9.74442e+56
-1.00944e+56
2.0393e+55
2.67906e+53
-2.68302e+52
1.79111e+50
1.26697e+50
4.67975e+49
-8.5735e+62
5.38459e+61
4.83002e+60
-7.44999e+59
-5.59638e+58
1.3136e+58
-9.88933e+56
-1.04511e+56
2.10248e+55
6.1067e+53
2.15035e+52
-3.54125e+52
7.82934e+50
9.78357e+49
3.38334e+49
5.56306e+61
5.38625e+60
-7.74141e+59
-5.98453e+58
1.37708e+58
-1.01502e+57
-1.10733e+56
2.13535e+55
3.76462e+53
-2.01952e+53
-2.39465e+52
-2.14085e+52
9.84401e+50
1.1194e+50
2.72022e+49
6.18252e+60
-8.23183e+59
-6.90002e+58
1.50271e+58
-9.55671e+56
-1.26411e+56
2.00144e+55
4.9965e+53
-1.91854e+53
-1.12788e+52
-1.71469e+52
-9.23722e+51
9.63132e+50
1.4225e+50
1.92195e+49
-8.22152e+59
-9.04858e+58
1.29775e+58
-4.71596e+56
-5.24373e+55
1.09627e+55
-1.36577e+54
-1.18575e+53
3.09655e+51
-6.71115e+51
-5.53333e+51
-2.58026e+51
8.16827e+50
1.42103e+50
9.57759e+48
-7.90559e+58
3.60869e+57
-3.56046e+57
4.04004e+56
9.49368e+55
-9.94773e+54
-2.07471e+54
5.41812e+52
-1.66342e+51
-4.15511e+51
-1.41047e+50
-5.60038e+49
5.8799e+50
1.06553e+50
1.61092e+48
2.84222e+58
-1.32247e+58
-2.67798e+57
5.14424e+56
7.55858e+55
-9.56946e+54
-1.93036e+54
2.91415e+52
-1.94865e+51
-3.14816e+51
6.20723e+50
4.73666e+50
3.43112e+50
5.83917e+49
-3.02542e+48
7.43998e+57
-1.11377e+58
-2.53853e+57
4.4455e+56
7.74833e+55
-8.20283e+54
-1.96922e+54
1.00812e+52
-6.10143e+49
-3.24598e+51
4.18932e+50
3.37737e+50
1.52373e+50
2.07263e+49
-4.39381e+48
7.27252e+57
-9.81781e+57
-2.57193e+57
3.94522e+56
7.97883e+55
-6.96962e+54
-1.98368e+54
-7.09e+51
1.40134e+51
-3.31039e+51
1.48743e+50
1.53366e+50
4.68962e+49
1.72113e+48
-3.64039e+48
6.51489e+57
-8.7453e+57
-2.56524e+57
3.43909e+56
8.13041e+55
-5.68648e+54
-1.9779e+54
-2.51278e+52
2.71191e+51
-3.16453e+51
1.4744e+49
8.38395e+49
8.21146e+48
-3.42952e+48
-2.18677e+48
5.62219e+57
-7.72682e+57
-2.54534e+57
2.92862e+56
8.22601e+55
-4.38417e+54
-1.95459e+54
-4.32752e+52
3.74415e+51
-2.90811e+51
-4.84326e+49
6.59545e+49
1.26273e+48
-2.62867e+48
-9.76066e+47
4.78434e+57
-6.87453e+57
-2.49434e+57
2.42403e+56
8.27152e+55
-3.09001e+54
-1.9147e+54
-6.09801e+52
4.4102e+51
-2.60594e+51
-8.57016e+49
5.59415e+49
2.7883e+48
-9.91198e+47
-2.91467e+47
3.51795e+57
-6.23912e+57
-2.31309e+57
1.99715e+56
8.2177e+55
-1.83658e+54
-1.86055e+54
-7.76288e+52
4.67678e+51
-2.29394e+51
-1.10598e+50
4.51977e+49
3.31548e+48
-2.08075e+47
-4.16289e+46
7.89023e+56
-5.01665e+57
-1.83718e+57
1.42763e+56
7.34603e+55
-7.53248e+53
-1.77324e+54
-9.23508e+52
4.52441e+51
-1.98939e+51
-1.34398e+50
3.82256e+49
2.78574e+48
-6.03519e+46
1.45199e+44
-9.43553e+56
-3.46727e+57
-1.47557e+57
9.00738e+55
6.02753e+55
9.91198e+52
-1.53613e+54
-1.00263e+53
4.10747e+51
-1.73402e+51
-1.64224e+50
3.91961e+49
3.27971e+48
-1.85585e+46
9.71829e+45
2.91673e+56
-2.44582e+57
-1.29922e+57
5.46434e+55
5.18636e+55
8.53345e+53
-1.32097e+54
-1.07743e+53
3.74012e+51
-1.51919e+51
-1.98738e+50
4.05167e+49
4.55629e+48
4.3981e+45
1.43393e+46
8.65006e+56
-1.98312e+57
-1.20017e+57
3.08904e+55
4.82813e+55
1.60224e+54
-1.21071e+54
-1.19168e+53
3.26685e+51
-1.30488e+51
-2.29812e+50
3.72577e+49
5.51676e+48
3.50577e+46
1.61883e+46
6.40959e+56
-1.71058e+57
-1.14779e+57
1.15801e+55
4.64598e+55
2.28851e+54
-1.12678e+54
-1.32431e+53
2.47281e+51
-1.079e+51
-2.55705e+50
3.18937e+49
6.12314e+48
8.0335e+46
1.53741e+46
4.78374e+56
-1.47489e+57
-1.08918e+57
-6.60853e+54
4.44406e+55
2.97754e+54
-1.0412e+54
-1.46817e+53
1.34024e+51
-8.45459e+50
-2.76016e+50
2.54015e+49
6.46586e+48
1.35816e+47
1.27527e+46
3.07345e+56
-1.25762e+57
-1.02377e+57
-2.45221e+55
4.20672e+55
3.67337e+54
-9.43131e+53
-1.61077e+53
-1.57413e+50
-6.12658e+50
-2.9036e+50
1.87038e+49
6.82944e+48
2.02582e+47
9.35803e+45
1.28067e+56
-1.0599e+57
-9.51608e+56
-4.17587e+55
3.93471e+55
4.36378e+54
-8.28866e+53
-1.74474e+53
-2.04153e+51
-3.89027e+50
-2.98327e+50
1.14013e+49
7.00919e+48
2.75366e+47
5.71109e+45
-2.99509e+55
-8.78144e+56
-8.76676e+56
-5.79923e+55
3.62668e+55
5.03814e+54
-6.96604e+53
-1.86832e+53
-4.34346e+51
-1.82157e+50
-3.00366e+50
3.75415e+48
6.83961e+48
3.42238e+47
2.60626e+45
-1.52793e+56
-7.14922e+56
-8.01873e+56
-7.28259e+55
3.28337e+55
5.68018e+54
-5.45572e+53
-1.97882e+53
-7.12089e+51
7.42966e+47
-2.97567e+50
-3.77855e+48
6.6293e+48
4.07591e+47
7.05149e+44
-2.43039e+56
-5.71036e+56
-7.27334e+56
-8.60042e+55
2.9015e+55
6.24862e+54
-3.75651e+53
-2.07248e+53
-1.04441e+52
1.49996e+50
-2.90417e+50
-1.13422e+49
6.46779e+48
4.79424e+47
1.13218e+44
-3.0609e+56
-4.48485e+56
-6.54809e+56
-9.74943e+55
2.4845e+55
6.72617e+54
-1.86488e+53
-2.14073e+53
-1.43896e+52
2.50877e+50
-2.77638e+50
-1.9264e+49
6.31159e+48
5.63744e+47
7.82498e+44
-3.46183e+56
-3.46419e+56
-5.83317e+56
-1.07041e+56
2.03683e+55
7.10451e+54
2.17019e+52
-2.17101e+53
-1.90326e+52
2.83433e+50
-2.57779e+50
-2.80203e+49
6.13457e+48
6.70157e+47
2.80114e+45
-3.67799e+56
-2.60118e+56
-5.13495e+56
-1.14676e+56
1.56162e+55
7.36727e+54
2.48466e+53
-2.1518e+53
-2.44129e+52
2.21021e+50
-2.28512e+50
-3.75328e+49
5.7881e+48
7.95084e+47
6.51078e+45
-3.84077e+56
-1.88147e+56
-4.4828e+56
-1.20738e+56
1.06246e+55
7.49225e+54
4.92993e+53
-2.06865e+53
-3.04596e+52
2.60074e+49
-1.88603e+50
-4.68565e+49
5.07096e+48
9.13986e+47
1.21223e+46
-4.00245e+56
-1.33952e+56
-3.89114e+56
-1.25225e+56
5.43108e+54
7.46275e+54
7.54372e+53
-1.90652e+53
-3.7112e+52
-3.58967e+50
-1.3863e+50
-5.58784e+49
4.03519e+48
1.03181e+48
1.98657e+46
-4.09711e+56
-9.89887e+55
-3.3482e+56
-1.27558e+56
9.54948e+52
7.25423e+54
1.03048e+54
-1.64578e+53
-4.43768e+52
-9.97839e+50
-8.05846e+49
-6.43837e+49
2.64635e+48
1.15335e+48
3.00138e+46
-4.0232e+56
-7.71716e+55
-2.82312e+56
-1.27111e+56
-5.28397e+54
6.83552e+54
1.31793e+54
-1.25975e+53
-5.21214e+52
-1.98153e+51
-1.73878e+49
-7.07087e+49
8.06421e+47
1.2429e+48
4.18828e+46
-3.75913e+56
-5.76803e+55
-2.29677e+56
-1.24148e+56
-1.05785e+55
6.17803e+54
1.60939e+54
-7.14902e+52
-5.99467e+52
-3.42414e+51
4.44152e+49
-7.36325e+49
-1.30771e+48
1.3069e+48
5.59681e+46
-3.44209e+56
-3.71943e+55
-1.81724e+56
-1.18925e+56
-1.56478e+55
5.24942e+54
1.89068e+54
2.46766e+51
-6.69428e+52
-5.47436e+51
9.01793e+49
-7.52449e+49
-3.87393e+48
1.40958e+48
7.68731e+46
-3.20781e+56
-2.32219e+55
-1.4202e+56
-1.11803e+56
-2.04322e+55
4.03022e+54
2.14399e+54
9.79395e+52
-7.16137e+52
-8.27338e+51
9.28419e+49
-7.53921e+49
-7.62958e+48
1.56885e+48
1.12963e+47
-3.01115e+56
-2.16779e+55
-1.09304e+56
-1.03173e+56
-2.48778e+55
2.50443e+54
2.34042e+54
2.14241e+53
-7.19767e+52
-1.19406e+52
5.01049e+48
-6.77145e+49
-1.29676e+49
1.70833e+48
1.74674e+47
-2.78298e+56
-2.60597e+55
-8.0413e+55
-9.33002e+55
-2.88569e+55
6.51821e+53
2.42328e+54
3.47939e+53
-6.56333e+52
-1.64522e+52
-2.57898e+50
-4.76229e+49
-2.0206e+49
1.68053e+48
2.76563e+47
-2.5387e+56
-2.97184e+55
-5.51713e+55
-8.26712e+55
-3.2239e+55
-1.50454e+54
2.36176e+54
4.94194e+53
-5.02092e+52
-2.15102e+52
-8.13179e+50
-1.13395e+49
-2.91349e+49
1.18005e+48
4.34643e+47
-2.29371e+56
-3.43279e+55
-3.47296e+55
-7.13928e+55
-3.4787e+55
-3.86465e+54
2.14638e+54
6.44771e+53
-2.35298e+52
-2.65462e+52
-1.78441e+51
3.44902e+49
-3.691e+49
-2.02024e+47
6.44932e+47
-2.04382e+56
-4.11956e+55
-1.93181e+55
-5.92675e+55
-3.60036e+55
-6.24461e+54
1.75777e+54
7.86936e+53
1.56326e+52
-3.04883e+52
-3.24116e+51
6.56794e+49
-3.99008e+49
-2.81671e+48
8.68343e+47
-1.7854e+56
-4.96718e+55
-9.11911e+54
-4.68789e+55
-3.52086e+55
-8.45577e+54
1.18499e+54
9.02634e+53
6.61263e+52
-3.18514e+52
-5.1496e+51
4.49091e+49
-3.40379e+49
-7.08432e+48
1.00609e+48
-1.5102e+56
-5.79049e+55
-4.20716e+54
-3.49329e+55
-3.26046e+55
-1.03238e+55
4.45854e+53
9.62022e+53
1.2466e+53
-2.95263e+52
-7.35036e+51
-7.22741e+49
-1.25392e+49
-1.30323e+49
8.17948e+47
-1.22391e+56
-6.24467e+55
-3.66269e+54
-2.41591e+55
-2.90152e+55
-1.17181e+55
-4.01772e+53
9.58283e+53
1.89203e+53
-2.31947e+52
-9.48587e+51
-3.24208e+50
2.03843e+49
-1.74208e+49
1.0664e+47
-9.57929e+55
-6.15882e+55
-5.50549e+54
-1.5339e+55
-2.49478e+55
-1.2576e+55
-1.28853e+54
8.70896e+53
2.57839e+53
-1.29196e+52
-1.08893e+52
-6.70979e+50
5.07523e+49
-1.83865e+49
-1.05626e+48
-7.37209e+55
-5.70268e+55
-7.68207e+54
-8.8532e+54
-2.07252e+55
-1.29072e+55
-2.1458e+54
7.13003e+53
3.02172e+53
3.3226e+50
-1.16309e+52
-1.05306e+51
7.21831e+49
-1.63984e+49
-2.48604e+48
-5.64928e+55
-5.13565e+55
-9.72222e+54
-4.54007e+54
-1.663e+55
-1.28011e+55
-2.92471e+54
5.09858e+53
3.22257e+53
1.38973e+52
-1.20291e+52
-1.39346e+51
7.1434e+49
-1.35358e+49
-6.0261e+48
-4.33831e+55
-4.60171e+55
-1.18262e+55
-1.89183e+54
-1.28753e+55
-1.2379e+55
-3.61871e+54
2.84925e+53
3.32203e+53
2.61697e+52
-1.08419e+52
-1.52055e+51
5.23515e+49
-3.70529e+48
-3.99942e+48
-3.32295e+55
-4.11744e+55
-1.39834e+55
-5.14281e+53
-9.57236e+54
-1.17439e+55
-4.24058e+54
5.14639e+52
3.32365e+53
3.73496e+52
-9.25289e+51
-1.53743e+51
3.31551e+49
3.69973e+47
-1.98383e+48
-2.52155e+55
-3.65308e+55
-1.61532e+55
-2.48542e+53
-6.74163e+54
-1.08859e+55
-4.77412e+54
-1.91425e+53
3.33977e+53
4.77295e+52
-8.27744e+51
-1.60518e+51
2.10909e+49
2.14047e+48
-1.46982e+48
-1.8759e+55
-3.18709e+55
-1.7882e+55
-8.03972e+53
-4.35106e+54
-9.75794e+54
-5.15934e+54
-4.47795e+53
3.32085e+53
5.87661e+52
-7.47324e+51
-1.71504e+51
1.11805e+49
3.24399e+48
-1.50407e+48
-1.36643e+55
-2.72074e+55
-1.88955e+55
-1.83929e+54
-2.38593e+54
-8.44256e+54
-5.39164e+54
-7.16966e+53
3.18957e+53
7.0098e+52
-6.63509e+51
-1.83958e+51
5.45662e+47
4.06552e+48
-1.78366e+48
-9.7115e+54
-2.28146e+55
-1.94478e+55
-3.32577e+54
-8.89207e+53
-7.07485e+54
-5.54843e+54
-1.0012e+54
2.94602e+53
8.12767e+52
-5.65644e+51
-1.94194e+51
-1.17596e+49
4.30275e+48
-2.10884e+48
-6.6835e+54
-1.87392e+55
-1.96151e+55
-5.12095e+54
1.25297e+53
-5.66622e+54
-5.63303e+54
-1.31045e+54
2.58096e+53
9.19609e+52
-4.45243e+51
-1.96836e+51
-2.48204e+49
3.5448e+48
-2.3149e+48
-4.47313e+54
-1.49083e+55
-1.8938e+55
-6.85685e+54
6.9818e+53
-4.20866e+54
-5.57999e+54
-1.64152e+54
2.06521e+53
1.01961e+53
-3.10097e+51
-1.9029e+51
-3.6399e+49
1.69144e+48
-2.63483e+48
-2.90621e+54
-1.15109e+55
-1.74979e+55
-8.46858e+54
7.95566e+53
-2.74652e+54
-5.36555e+54
-1.98155e+54
1.36754e+53
1.10455e+53
-1.74327e+51
-1.75359e+51
-4.50141e+49
-1.08092e+48
-3.66774e+48
-1.788e+54
-8.6695e+54
-1.57837e+55
-1.00291e+55
2.85687e+53
-1.33417e+54
-4.95975e+54
-2.31369e+54
4.68047e+52
1.16644e+53
-5.37696e+50
-1.51674e+51
-5.04711e+49
-4.25724e+48
-5.452e+48
-1.00505e+54
-6.27518e+54
-1.38438e+55
-1.14245e+55
-7.88982e+53
-5.41556e+52
-4.34605e+54
-2.61816e+54
-6.4261e+52
1.19717e+53
2.94455e+50
-1.1718e+51
-5.44619e+49
-5.60903e+48
-5.74539e+48
-4.84617e+53
-4.26769e+54
-1.166e+55
-1.23714e+55
-2.30555e+54
9.69007e+53
-3.52846e+54
-2.89024e+54
-1.95829e+53
1.15156e+53
6.08962e+50
-6.99695e+50
-5.18334e+49
-5.21973e+48
-5.26186e+48
-1.76475e+53
-2.67138e+54
-9.32781e+54
-1.27131e+55
-4.15845e+54
1.59914e+54
-2.48375e+54
-3.09517e+54
-3.4391e+53
1.02981e+53
5.14385e+50
-2.24187e+50
-5.69115e+49
-8.09901e+48
-5.40899e+48
-2.47663e+52
-1.4855e+54
-6.97838e+54
-1.23765e+55
-6.14063e+54
1.71591e+54
-1.22119e+54
-3.16166e+54
-5.08397e+53
8.81873e+52
3.9196e+50
6.39361e+49
-8.09111e+49
-1.67452e+49
-7.99425e+48
3.00252e+52
-6.8495e+53
-4.75806e+54
-1.13451e+55
-8.03322e+54
1.19471e+54
1.87652e+53
-2.99973e+54
-6.93057e+53
9.916e+52
1.61422e+51
7.67197e+49
-9.22013e+49
-3.89486e+49
-1.89399e+49
3.26988e+52
-2.07652e+53
-2.79345e+54
-9.69336e+54
-9.68255e+54
-9.83483e+52
1.61406e+54
-2.50658e+54
-8.72988e+53
1.59893e+53
5.90754e+51
-9.07635e+50
-4.16385e+50
-2.72507e+50
-1.05364e+50
1.13322e+52
5.23061e+51
-1.20914e+54
-7.49221e+54
-1.0915e+55
-2.27387e+54
2.80851e+54
-1.64861e+54
-9.95128e+53
1.26087e+53
2.31055e+52
1.51225e+51
2.61649e+51
1.41891e+51
3.5941e+50
-5.63643e+51
1.89443e+52
-1.45877e+53
-4.83548e+54
-1.14178e+55
-5.28159e+54
3.37971e+54
-5.13104e+53
-1.16069e+54
1.21993e+51
4.9775e+52
9.86784e+51
8.4171e+51
8.25038e+51
4.02739e+51
-7.9038e+51
-1.181e+52
2.58307e+53
-1.99468e+54
-1.07249e+55
-8.72609e+54
2.96371e+54
8.70275e+53
-1.21015e+54
-2.23563e+53
-5.79775e+52
-7.14211e+52
-1.13564e+53
-1.44101e+53
-8.02195e+52
-5.65246e+51
-2.08284e+52
2.32022e+53
1.32662e+53
-8.43798e+54
-1.18485e+55
1.43502e+54
2.21727e+54
-8.72089e+53
-2.74345e+53
-3.00529e+53
-3.01247e+53
-3.949e+53
-2.9544e+53
-1.51971e+53
-5.60197e+52
-1.81663e+52
4.01206e+53
3.46564e+53
-5.35408e+54
-1.34334e+55
-7.98362e+53
3.00319e+54
-2.72484e+53
-6.04633e+52
-6.67611e+52
-1.73405e+53
-1.59728e+53
-1.03904e+53
-1.49302e+53
5.79147e+54
2.49352e+54
1.36539e+54
-5.66447e+53
-5.21883e+54
-1.18212e+55
-2.41716e+54
3.06698e+54
3.12619e+53
1.96132e+52
-2.39112e+52
-3.17539e+52
-2.26068e+52
-2.55946e+52
-1.27689e+53
-6.73714e+55
-2.75639e+55
-1.07007e+55
-4.93424e+54
-8.79953e+54
-1.08293e+55
8.14195e+52
3.04765e+54
9.12286e+53
-2.65113e+52
-1.0993e+53
-7.80975e+52
-5.60879e+52
-3.34018e+52
-1.0283e+53
1.22082e+55
1.13575e+55
-3.14544e+55
-3.7369e+55
-2.85534e+55
-4.10391e+54
1.10698e+55
6.25015e+54
1.33747e+54
2.18561e+52
-1.3135e+53
-1.01944e+53
-6.64098e+52
-3.6402e+52
-8.80567e+52
8.76723e+57
2.25511e+57
7.93131e+56
3.58256e+56
1.81019e+56
9.994e+55
4.42003e+55
1.20287e+55
1.75148e+54
-3.2301e+53
-3.93839e+53
-2.30638e+53
-1.21076e+53
-5.8474e+52
-8.50854e+52
2.98753e+58
1.02377e+58
7.28742e+57
3.82025e+57
2.05829e+57
1.12365e+57
4.45495e+56
1.10447e+56
2.27755e+55
4.20806e+54
7.6768e+53
2.21296e+53
1.35425e+53
1.0443e+53
2.69017e+53
-1.63222e+60
-1.97083e+59
-2.0953e+58
1.52061e+57
3.95075e+57
2.39574e+57
8.14004e+56
2.08022e+56
4.92806e+55
1.27379e+55
4.2326e+54
1.98069e+54
1.15222e+54
7.65693e+53
1.26479e+54
1.10278e+61
-5.70566e+59
-3.95667e+59
-8.59153e+58
-1.11007e+58
9.28647e+56
8.00543e+56
1.72178e+56
1.7844e+55
-1.50124e+55
-1.89614e+55
-1.54456e+55
-1.01725e+55
-5.27472e+54
-3.10029e+54
2.89838e+61
1.13298e+61
-3.69852e+59
-1.98769e+59
-1.29774e+58
-6.51023e+56
1.90839e+56
-1.67243e+54
-1.07674e+56
-7.7898e+55
-4.62814e+55
-2.79762e+55
-1.82097e+55
-1.19456e+55
-1.02959e+55
-1.32734e+63
2.04256e+61
1.2324e+61
-1.97753e+60
7.01926e+58
2.00597e+58
-9.8653e+56
-6.16208e+56
-4.80221e+56
-4.8387e+56
-3.93421e+56
-2.88188e+56
-1.83237e+56
-9.65923e+55
-4.33456e+55
-4.96882e+63
-1.2716e+63
4.36405e+61
8.63455e+60
-2.13107e+60
4.68811e+58
-3.74625e+58
-5.49775e+58
-4.87459e+58
-4.11891e+58
-3.28099e+58
-2.37717e+58
-1.48076e+58
-7.39276e+57
-2.61885e+57
1.6622e+65
-5.2854e+63
-1.15728e+63
4.03297e+61
6.86389e+60
-2.66067e+60
-4.171e+59
-3.64057e+59
-2.76034e+59
-1.89146e+59
-1.25506e+59
-8.19201e+58
-5.14137e+58
-2.96745e+58
-1.15959e+58
-9.94674e+65
1.51404e+65
-5.32477e+63
-1.10598e+63
3.97371e+61
8.23083e+60
-3.11925e+59
2.0631e+60
2.06406e+60
1.9135e+60
1.6454e+60
1.26781e+60
8.2425e+59
4.14102e+59
1.53311e+59
7.03261e+65
-8.45375e+65
1.40184e+65
-5.25194e+63
-1.03064e+63
6.83585e+61
2.8554e+61
1.33827e+61
1.03364e+61
6.26401e+60
3.45336e+60
1.87811e+60
1.08918e+60
7.20523e+59
3.31142e+59
4.34263e+67
2.20346e+65
-7.43277e+65
1.33075e+65
-5.12164e+63
-1.03029e+63
3.57719e+61
-2.94889e+60
-1.31165e+61
-9.47694e+60
-7.66279e+60
-6.11168e+60
-4.26252e+60
-2.49005e+60
-1.22536e+60
3.28764e+68
1.19397e+68
1.30017e+66
-2.28088e+66
3.91459e+65
-9.57349e+63
4.16283e+62
3.88805e+63
3.84819e+63
3.59645e+63
3.18162e+63
2.63077e+63
1.98252e+63
1.43332e+63
1.05665e+63
-1.71553e+70
2.83958e+68
1.13157e+68
2.11235e+66
-2.36123e+66
4.28807e+65
2.86194e+64
2.79914e+64
2.72529e+64
2.25378e+64
1.57232e+64
1.04781e+64
7.16209e+63
4.83893e+63
2.88433e+63
1.311e+71
-1.57518e+70
3.14042e+68
1.1443e+68
3.00275e+66
-2.06714e+66
5.6259e+65
1.53068e+65
1.09083e+65
8.36138e+64
6.002e+64
4.00124e+64
2.38421e+64
1.27066e+64
7.1053e+63
-5.14251e+70
1.12534e+71
-1.50892e+70
1.22602e+68
1.46367e+68
1.57702e+67
-1.09539e+66
9.5316e+65
7.29133e+65
3.96007e+65
2.51036e+65
1.48428e+65
7.72699e+64
3.49067e+64
1.70842e+64
-8.25605e+72
2.72272e+70
1.01462e+71
-1.37383e+70
2.67587e+68
8.60058e+67
2.21276e+66
-6.08938e+65
7.20356e+65
3.62927e+65
2.60718e+65
1.87936e+65
1.25349e+65
7.27881e+64
4.25706e+64
-1.75048e+70
1.11667e+71
-1.54443e+70
2.36933e+68
1.05251e+68
1.67321e+66
-2.47258e+66
4.85618e+65
2.46598e+65
2.24495e+65
1.90408e+65
1.70396e+65
1.36552e+65
9.90343e+64
6.96675e+64
1.35394e+71
-1.68189e+70
-2.36438e+68
4.45854e+67
-1.07942e+66
-3.84073e+66
-1.02665e+66
-1.85325e+65
8.41468e+64
1.3932e+65
1.36461e+65
1.58305e+65
1.4101e+65
1.16073e+65
8.83825e+64
-1.15982e+70
-1.04636e+69
-1.67167e+68
-3.92443e+67
-9.64593e+66
-2.04607e+66
-2.20434e+64
4.56403e+65
4.77889e+65
3.84684e+65
3.09954e+65
3.0775e+65
1.99216e+65
1.29932e+65
8.1607e+64
3.53339e+67
2.23002e+67
2.08462e+67
1.11014e+67
6.22853e+66
3.72876e+66
2.28636e+66
1.42009e+66
8.9529e+65
6.38307e+65
5.70068e+65
6.80514e+65
5.62018e+64
8.00646e+63
1.71527e+63
2.55335e+67
6.87009e+66
3.72993e+66
2.30645e+66
1.3729e+66
8.20697e+65
5.08242e+65
3.29251e+65
2.48516e+65
4.9545e+65
1.35088e+65
-1.1156e+64
3.86182e+63
5.11862e+62
1.88317e+62
2.37013e+66
9.40358e+65
1.87336e+65
-2.47761e+64
-6.72317e+64
-6.69313e+64
-5.69607e+64
-4.9715e+64
-7.80059e+64
2.57283e+65
3.87738e+65
3.02475e+63
-1.91101e+64
-1.03115e+64
-5.12748e+63
-6.59911e+65
-2.48512e+65
-9.74603e+64
-4.82814e+64
-2.71807e+64
-1.36381e+64
-7.36734e+63
-1.76951e+63
1.4967e+64
4.52061e+64
3.11092e+65
2.07992e+65
1.18829e+65
6.63705e+64
3.71007e+64
6.90863e+64
2.48714e+64
1.2489e+64
8.17492e+63
6.17563e+63
4.32362e+63
1.80596e+63
-6.81558e+61
-1.13587e+63
-5.08395e+63
1.44473e+64
3.75693e+64
4.12419e+64
3.4386e+64
2.6171e+64
6.1919e+60
1.16911e+62
-1.43551e+62
-1.97734e+62
-2.12363e+62
-1.82711e+62
-1.68575e+61
1.11627e+62
1.16176e+62
3.65342e+62
-1.30103e+63
-2.055e+63
-1.83195e+63
-1.49384e+63
-1.25312e+63
-5.03893e+62
-1.85318e+62
-9.78544e+61
-6.77437e+61
-5.32436e+61
-4.02953e+61
-2.46303e+61
-1.03501e+61
5.62089e+60
6.92176e+61
1.55935e+62
1.04296e+62
5.15427e+61
2.86857e+61
1.86586e+61
-9.62819e+60
-6.09515e+60
-2.94663e+59
1.84058e+60
2.52768e+60
2.15212e+60
-2.39241e+59
-2.4956e+60
-3.67796e+60
-3.75614e+60
2.60522e+61
3.93996e+61
3.58252e+61
2.94079e+61
2.32667e+61
8.5481e+60
3.44559e+60
1.37655e+60
6.71251e+59
3.7131e+59
1.94968e+59
9.07496e+58
-7.69519e+58
-6.21804e+59
-2.13957e+60
-4.59161e+60
-4.45081e+60
-3.46561e+60
-2.63997e+60
-2.0086e+60
-1.08239e+60
-4.046e+59
-2.0802e+59
-1.37797e+59
-1.02326e+59
-6.82801e+58
-2.61019e+58
1.01872e+58
2.69319e+58
-3.85166e+58
-2.67484e+59
-3.53545e+59
-3.1519e+59
-2.5238e+59
-1.93649e+59
1.45396e+57
-5.40477e+56
4.1149e+57
4.78628e+57
4.37692e+57
2.50133e+57
-9.56478e+56
-2.40514e+57
1.87473e+57
1.66819e+58
4.1344e+58
4.40527e+58
3.60734e+58
2.76115e+58
2.04658e+58
1.04512e+58
3.80133e+57
2.03512e+57
1.45011e+57
1.13696e+57
7.91986e+56
3.01113e+56
-4.52462e+56
-1.6189e+57
-2.687e+57
-2.8253e+57
-1.97541e+57
-1.36528e+57
-1.11458e+57
-1.16645e+57
2.73971e+56
1.43869e+56
-7.71261e+54
-5.60941e+55
-6.02055e+55
-2.48874e+55
4.43613e+55
8.6439e+55
2.57644e+55
-2.25323e+56
-5.91867e+56
-6.62331e+56
-6.00535e+56
-5.88268e+56
-7.16998e+56
-2.18827e+56
-8.59223e+55
-3.28996e+55
-1.53497e+55
-8.03011e+54
-3.6933e+54
1.04675e+54
1.32916e+55
4.11327e+55
7.84078e+55
9.5887e+55
6.96539e+55
1.65873e+55
-8.31988e+55
-2.76692e+56
2.85737e+55
1.08539e+55
5.4071e+54
3.45876e+54
2.4467e+54
1.46843e+54
3.56534e+53
-5.22067e+53
-3.48118e+53
2.52081e+54
6.34448e+54
1.76766e+54
-1.81342e+55
-7.60309e+55
-2.10972e+56
-5.49101e+53
-2.03506e+53
-1.77371e+53
-1.46774e+53
-1.14081e+53
-5.60569e+52
2.07268e+52
3.25127e+52
-1.37515e+53
-5.84554e+53
-1.15312e+54
-1.38656e+54
-4.98197e+54
-3.08869e+55
-1.10705e+56
-1.50181e+53
-5.53264e+52
-3.1562e+52
-2.37739e+52
-1.93677e+52
-1.41038e+52
-5.37151e+51
8.82892e+51
2.6741e+52
3.92437e+52
5.92962e+52
8.20133e+52
3.59295e+51
-1.18224e+54
-6.19441e+54
-8.15635e+51
-4.15766e+51
-5.52076e+50
7.2141e+50
1.00093e+51
5.96955e+50
-5.28425e+50
-3.09279e+51
-1.15595e+52
-2.52445e+52
-7.85527e+51
2.33823e+52
7.42348e+52
1.40099e+53
1.32252e+53
4.22708e+51
1.78209e+51
7.47785e+50
3.748e+50
2.14424e+50
1.1694e+50
-9.98607e+49
-2.19496e+51
-1.29934e+52
-3.60361e+52
-2.38312e+52
4.95379e+51
4.8373e+52
1.13092e+53
2.08084e+53
-4.99255e+50
-1.99998e+50
-1.08468e+50
-7.3276e+49
-5.45381e+49
-4.32373e+49
-1.62007e+50
-2.30833e+51
-1.40664e+52
-4.17511e+52
-2.56056e+52
8.73161e+51
5.64271e+52
1.18107e+53
1.94391e+53
-2.46659e+48
-2.00478e+48
1.21002e+48
2.16542e+48
2.11134e+48
-3.83744e+48
-1.51664e+50
-2.63013e+51
-1.58814e+52
-4.90812e+52
-3.35066e+52
3.6794e+51
5.82802e+52
1.2936e+53
2.15107e+53
5.20569e+48
2.21968e+48
1.16557e+48
7.68699e+47
4.71772e+47
-5.0036e+48
-1.61386e+50
-3.0271e+51
-1.90744e+52
-5.50673e+52
-4.65012e+52
-1.62561e+52
3.47668e+52
1.06861e+53
2.00186e+53
-1.66125e+47
-5.50192e+46
-2.91081e+46
2.585e+45
-5.85693e+46
-5.03152e+48
-1.66017e+50
-3.50353e+51
-1.83304e+52
-5.82866e+52
-6.1103e+52
-4.46406e+52
-1.04432e+52
4.30361e+52
1.19826e+53
-2.60445e+46
-3.21574e+45
1.63692e+46
4.65167e+46
1.0175e+46
-4.33574e+48
-1.59477e+50
-4.13736e+51
-1.76501e+52
-5.31364e+52
-6.79316e+52
-6.75948e+52
-5.53414e+52
-3.12803e+52
8.04133e+51
8.31731e+45
1.38261e+46
2.71313e+46
5.69713e+46
4.19452e+46
-3.64268e+48
-1.41308e+50
-4.8207e+51
-1.79798e+52
-4.03479e+52
-5.80195e+52
-6.90113e+52
-7.32027e+52
-7.09309e+52
-6.10135e+52
5.5678e+45
1.43839e+46
3.02219e+46
6.28434e+46
6.3548e+46
-3.16076e+48
-1.22027e+50
-5.7293e+51
-1.59032e+52
-2.76983e+52
-4.03355e+52
-5.24072e+52
-6.239e+52
-6.96788e+52
-7.38457e+52
6.12093e+45
1.68061e+46
3.55698e+46
7.14734e+46
8.86938e+46
-2.84009e+48
-1.24115e+50
-4.20325e+51
-1.12e+52
-1.81097e+52
-2.55776e+52
-3.35585e+52
-4.17741e+52
-4.99664e+52
-5.76716e+52
7.34605e+45
2.02359e+46
4.28374e+46
8.30207e+46
1.19457e+47
-2.31391e+48
-1.30755e+50
-2.43763e+51
-6.25757e+51
-9.97571e+51
-1.39676e+52
-1.82556e+52
-2.29622e+52
-2.8171e+52
-3.3725e+52
8.54997e+45
2.38812e+46
5.07419e+46
9.55224e+46
1.45708e+47
-1.5045e+48
-1.45876e+50
-1.33132e+51
-2.79384e+51
-4.31237e+51
-5.96569e+51
-7.78028e+51
-9.8465e+51
-1.22254e+52
-1.48944e+52
9.78717e+45
2.76464e+46
5.88742e+46
1.08214e+47
1.62104e+47
-7.01832e+47
-9.59431e+49
-5.2966e+50
-9.6837e+50
-1.43269e+51
-1.93782e+51
-2.51491e+51
-3.19734e+51
-3.99828e+51
-4.91633e+51
1.11905e+46
3.1945e+46
6.81601e+46
1.22515e+47
1.70983e+47
-2.86013e+47
-2.47827e+49
-1.5513e+50
-2.66505e+50
-3.74295e+50
-4.88912e+50
-6.22204e+50
-7.84363e+50
-9.77618e+50
-1.20116e+51
1.27487e+46
3.68421e+46
7.90535e+46
1.39878e+47
1.76701e+47
-2.42091e+47
-1.02978e+49
-3.56035e+49
-5.6948e+49
-7.55082e+49
-9.40966e+49
-1.16253e+50
-1.43089e+50
-1.7456e+50
-2.10654e+50
1.43883e+46
4.20421e+46
9.08234e+46
1.59998e+47
2.00672e+47
-2.49353e+47
-2.48693e+48
-6.19513e+48
-9.23126e+48
-1.16363e+49
-1.38426e+49
-1.62688e+49
-1.90283e+49
-2.21155e+49
-2.55365e+49
1.56555e+46
4.741e+46
1.06293e+47
1.95066e+47
2.87634e+47
2.94365e+47
1.19843e+47
-2.68053e+47
-7.05997e+47
-1.07308e+48
-1.3748e+48
-1.6412e+48
-1.88411e+48
-2.10669e+48
-2.31225e+48
1.2103e+46
3.87466e+46
8.87945e+46
1.65504e+47
2.62596e+47
3.57236e+47
4.06471e+47
3.87953e+47
3.31863e+47
2.68949e+47
2.08468e+47
1.5332e+47
1.039e+47
6.01998e+46
2.21427e+46
4.91773e+45
1.86763e+46
4.34185e+46
7.80825e+46
1.17208e+47
1.53578e+47
1.78691e+47
1.88338e+47
1.8725e+47
1.82132e+47
1.75445e+47
1.67609e+47
1.5876e+47
1.49053e+47
1.38782e+47
-6.34069e+44
2.68774e+45
8.73914e+45
1.65217e+46
2.44949e+46
3.1633e+46
3.71699e+46
4.07311e+46
4.26928e+46
4.37578e+46
4.43195e+46
4.44426e+46
4.41012e+46
4.33114e+46
4.21276e+46
-1.7158e+45
-1.692e+45
-1.18951e+45
-4.48911e+44
3.92947e+44
1.22056e+45
1.96842e+45
2.60074e+45
3.11545e+45
3.5375e+45
3.88707e+45
4.16798e+45
4.37833e+45
4.51861e+45
4.58989e+45
-8.85986e+44
-1.07361e+45
-1.11821e+45
-1.09606e+45
-1.02428e+45
-9.31326e+44
-8.31052e+44
-7.31703e+44
-6.39992e+44
-5.58352e+44
-4.85478e+44
-4.19382e+44
-3.5883e+44
-3.03214e+44
-2.53197e+44
-2.65797e+44
-3.15841e+44
-3.20118e+44
-3.09214e+44
-2.89682e+44
-2.67183e+44
-2.43915e+44
-2.2145e+44
-2.01702e+44
-1.85211e+44
-1.70994e+44
-1.58079e+44
-1.45982e+44
-1.34498e+44
-1.23705e+44
-5.42653e+43
-6.2248e+43
-6.09415e+43
-5.70655e+43
-5.19587e+43
-4.66209e+43
-4.14246e+43
-3.65461e+43
-3.23822e+43
-2.90543e+43
-2.62572e+43
-2.37676e+43
-2.15011e+43
-1.94239e+43
-1.7536e+43
-8.48685e+42
-9.07744e+42
-8.51409e+42
-7.78256e+42
-6.96916e+42
-6.16585e+42
-5.41189e+42
-4.72705e+42
-4.15512e+42
-3.69756e+42
-3.30643e+42
-2.95456e+42
-2.63393e+42
-2.34151e+42
-2.07725e+42
-1.14429e+42
-1.09769e+42
-9.25933e+41
-7.87156e+41
-6.70924e+41
-5.72855e+41
-4.89604e+41
-4.21655e+41
-3.69205e+41
-3.27904e+41
-2.92665e+41
-2.61025e+41
-2.32165e+41
-2.05794e+41
-1.81897e+41
-1.03896e+41
-1.15624e+41
-9.51894e+40
-7.51736e+40
-5.87595e+40
-4.61815e+40
-3.66642e+40
-2.96744e+40
-2.46553e+40
-2.0885e+40
-1.78486e+40
-1.53042e+40
-1.3138e+40
-1.12858e+40
-9.70271e+39
1.54549e+40
4.06278e+39
-1.28154e+39
-2.95305e+39
-3.18808e+39
-2.92924e+39
-2.53644e+39
-2.16457e+39
-1.84757e+39
-1.56866e+39
-1.31963e+39
-1.10092e+39
-9.12577e+38
-7.53378e+38
-6.18591e+38
7.10144e+39
5.02169e+39
3.01157e+39
1.83111e+39
1.1358e+39
7.19302e+38
4.64895e+38
3.07617e+38
2.08035e+38
1.42667e+38
9.83069e+37
6.76325e+37
4.62953e+37
3.14544e+37
2.15254e+37
7.62112e+38
7.1385e+38
5.30345e+38
3.83571e+38
2.76948e+38
2.02599e+38
1.51474e+38
1.16526e+38
9.16288e+37
7.27563e+37
5.79469e+37
4.61927e+37
3.68334e+37
2.93874e+37
2.34839e+37
-3.51147e+37
-7.30659e+36
6.0582e+36
1.00584e+37
1.03265e+37
9.39412e+36
8.25747e+36
7.22016e+36
6.26186e+36
5.36604e+36
4.54946e+36
3.82514e+36
3.19477e+36
2.65538e+36
2.19515e+36
-1.63231e+37
-1.18749e+37
-7.60481e+36
-4.92229e+36
-3.24712e+36
-2.207e+36
-1.5589e+36
-1.14134e+36
-8.54828e+35
-6.4781e+35
-4.93986e+35
-3.7811e+35
-2.9019e+35
-2.23172e+35
-1.7276e+35
-2.41858e+36
-1.65484e+36
-1.06091e+36
-7.0987e+35
-4.91626e+35
-3.53984e+35
-2.66294e+35
-2.07223e+35
-1.64003e+35
-1.30675e+35
-1.0441e+35
-8.35174e+34
-6.6827e+34
-5.34832e+34
-4.29027e+34
-3.65093e+35
-2.17179e+35
-1.20329e+35
-7.25598e+34
-4.67969e+34
-3.20432e+34
-2.31896e+34
-1.7516e+34
-1.35608e+34
-1.06282e+34
-8.38504e+33
-6.64201e+33
-5.27549e+33
-4.19944e+33
-3.35677e+33
-4.0156e+34
-2.68724e+34
-1.52604e+34
-9.2217e+33
-5.88024e+33
-3.95711e+33
-2.79603e+33
-2.04492e+33
-1.52421e+33
-1.14716e+33
-8.68658e+32
-6.60903e+32
-5.04856e+32
-3.87269e+32
-2.98653e+32
7.26299e+32
-3.99076e+32
-5.2483e+32
-4.52855e+32
-3.56477e+32
-2.7839e+32
-2.18818e+32
-1.71847e+32
-1.34352e+32
-1.04523e+32
-8.09743e+31
-6.25511e+31
-4.82262e+31
-3.71744e+31
-2.86265e+31
8.62549e+32
4.53436e+32
2.16098e+32
1.11068e+32
6.10624e+31
3.55062e+31
2.16616e+31
1.37367e+31
8.92996e+30
5.87948e+30
3.89509e+30
2.58974e+30
1.72667e+30
1.15421e+30
7.86051e+29
1.17711e+32
7.05262e+31
3.79039e+31
2.19875e+31
1.36533e+31
8.9912e+30
6.20968e+30
4.43436e+30
3.22406e+30
2.36228e+30
1.73663e+30
1.27869e+30
9.42524e+29
6.96086e+29
5.17383e+29
8.763e+30
5.3741e+30
2.94708e+30
1.75329e+30
1.11828e+30
7.55365e+29
5.33691e+29
3.8887e+29
2.87667e+29
2.13905e+29
1.59212e+29
1.18455e+29
8.81058e+28
6.56126e+28
4.91662e+28
4.30074e+29
2.73563e+29
1.49698e+29
8.8666e+28
5.62302e+28
3.77277e+28
2.64268e+28
1.90439e+28
1.39131e+28
1.02127e+28
7.50328e+27
5.51207e+27
4.05188e+27
2.98729e+27
2.22102e+27
8.54197e+26
3.18273e+27
2.70885e+27
2.03177e+27
1.50028e+27
1.11639e+27
8.38113e+26
6.31725e+26
4.74421e+26
3.53728e+26
2.61812e+26
1.92679e+26
1.41398e+26
1.03966e+26
7.69702e+25
-2.28436e+27
-1.40137e+27
-7.36916e+26
-4.10091e+26
-2.42777e+26
-1.51737e+26
-9.90795e+25
-6.68177e+25
-4.59487e+25
-3.19244e+25
-2.23152e+25
-1.56807e+25
-1.10841e+25
-7.89066e+24
-5.69976e+24
-2.81765e+26
-1.54628e+26
-8.47207e+25
-4.98708e+25
-3.16603e+25
-2.129e+25
-1.4926e+25
-1.07573e+25
-7.85921e+24
-5.76493e+24
-4.22853e+24
-3.10078e+24
-2.27739e+24
-1.6813e+24
-1.2558e+24
-5.82841e+25
-2.52669e+25
-1.06389e+25
-5.15604e+24
-2.81101e+24
-1.68e+24
-1.07962e+24
-7.31596e+23
-5.12549e+23
-3.65771e+23
-2.63791e+23
-1.91644e+23
-1.40159e+23
-1.03351e+23
-7.73434e+22
-6.9855e+24
-3.80951e+24
-1.76687e+24
-9.21341e+23
-5.23409e+23
-3.17638e+23
-2.02651e+23
-1.33816e+23
-9.01862e+22
-6.1518e+22
-4.23324e+22
-2.93681e+22
-2.05502e+22
-1.45331e+22
-1.04268e+22
1.12538e+23
-4.15059e+22
-5.30971e+22
-4.21613e+22
-3.08886e+22
-2.22819e+22
-1.60794e+22
-1.16238e+22
-8.38666e+21
-6.03292e+21
-4.3332e+21
-3.1151e+21
-2.24877e+21
-1.63692e+21
-1.20186e+21
6.63376e+22
3.85476e+22
1.78361e+22
8.95245e+21
4.80941e+21
2.74766e+21
1.65105e+21
1.02939e+21
6.5754e+20
4.26907e+20
2.80621e+20
1.8634e+20
1.24819e+20
8.43179e+19
5.77969e+19
2.71957e+21
2.14255e+21
1.36248e+21
8.14845e+20
5.10171e+20
3.34885e+20
2.28081e+20
1.59121e+20
1.12342e+20
7.97626e+19
5.68683e+19
4.07418e+19
2.93693e+19
2.1327e+19
1.56138e+19
1.36402e+21
3.6705e+20
1.0055e+20
2.83502e+19
8.8234e+18
3.0923e+18
1.35767e+18
8.32134e+17
6.51945e+17
5.52979e+17
4.70025e+17
3.94049e+17
3.25967e+17
2.67101e+17
2.19569e+17
2.88892e+20
1.13874e+20
3.90202e+19
1.62423e+19
7.6908e+18
3.98422e+18
2.20346e+18
1.27297e+18
7.55148e+17
4.55635e+17
2.78241e+17
1.71237e+17
1.05908e+17
6.60013e+16
4.15727e+16
-1.55442e+19
-2.08606e+18
1.43169e+17
5.69729e+17
5.12403e+17
3.8527e+17
2.74681e+17
1.91513e+17
1.32086e+17
9.09665e+16
6.28295e+16
4.35589e+16
3.03779e+16
2.13613e+16
1.49935e+16
-8.8368e+18
-3.56772e+18
-1.32251e+18
-5.63222e+17
-2.69455e+17
-1.42173e+17
-8.10168e+16
-4.88231e+16
-3.05685e+16
-1.9659e+16
-1.2892e+16
-8.57224e+15
-5.76415e+15
-3.9215e+15
-2.7185e+15
-7.92494e+17