/*--------------------------------*- C++ -*----------------------------------*\
  =========                 |
  \\      /  F ield         | OpenFOAM: The Open Source CFD Toolbox
   \\    /   O peration     | Website:  https://openfoam.org
    \\  /    A nd           | Version:  8
     \\/     M anipulation  |
\*---------------------------------------------------------------------------*/
FoamFile
{
    version     2.0;
    format      ascii;
    class       volScalarField;
    location    "0.5";
    object      p;
}
// * * * * * * * * * * * * * * * * * * * * * * * * * * * * * * * * * * * * * //

dimensions      [0 2 -2 0 0 0 0];

internalField   nonuniform List<scalar> 
576
(
1.04216e-05
3.72714
3.80756
4.00588
4.0729
4.11303
4.13612
4.15206
4.16536
4.17853
4.19296
4.20955
4.22896
4.25189
4.27925
4.31238
4.3533
4.4054
4.47345
4.57062
4.69968
4.99343
5.16751
9.21147
0.412873
3.57556
3.73568
3.96888
4.0501
4.0982
4.1261
4.1452
4.16068
4.17543
4.19108
4.20869
4.22902
4.2529
4.28134
4.31582
4.35859
4.41342
4.48569
4.59032
4.73216
5.06177
5.30032
8.76858
0.910201
3.43182
3.66706
3.92541
4.02305
4.08005
4.11368
4.13657
4.15472
4.17143
4.1886
4.20747
4.22895
4.25399
4.28375
4.31988
4.36487
4.42289
4.50012
4.61273
4.76956
5.12286
5.41924
8.21384
1.47249
3.33231
3.61927
3.8805
3.99361
4.05919
4.09897
4.12613
4.14735
4.16637
4.18535
4.20573
4.22858
4.25498
4.28626
4.32424
4.37169
4.43312
4.51552
4.63515
4.80637
5.15734
5.49739
7.5821
2.08742
3.30216
3.59825
3.83984
3.96289
4.03568
4.08154
4.11331
4.13805
4.15979
4.18095
4.20316
4.22766
4.25569
4.28872
4.32877
4.37883
4.44369
4.53086
4.65541
4.83582
5.15904
5.51014
6.8986
2.69717
3.35534
3.61195
3.81481
3.93612
4.01207
4.06246
4.09847
4.12681
4.15152
4.17516
4.19948
4.22588
4.25573
4.29065
4.33278
4.38527
4.45287
4.54294
4.66803
4.84568
5.12052
5.43517
6.21702
3.21691
3.48986
3.66843
3.81823
3.92263
3.99427
4.04528
4.08365
4.11475
4.14214
4.1682
4.19469
4.22305
4.25473
4.29138
4.3352
4.38919
4.45764
4.54663
4.6648
4.82313
5.03457
5.26468
5.61284
3.60262
3.67159
3.76414
3.85764
3.93321
3.99137
4.03684
4.07372
4.10527
4.13396
4.16165
4.18982
4.21976
4.25284
4.29061
4.33505
4.38864
4.45456
4.5365
4.63833
4.76273
4.90526
5.03476
5.1372
3.86428
3.85565
3.8854
3.93078
3.97439
4.01271
4.04644
4.07679
4.10503
4.13234
4.15973
4.18815
4.21854
4.25195
4.28955
4.33274
4.38309
4.44211
4.51079
4.58884
4.67341
4.75437
4.80512
4.80272
4.04235
4.0148
4.01215
4.02535
4.04299
4.06166
4.08101
4.10119
4.12244
4.14507
4.16942
4.1958
4.2246
4.2566
4.29208
4.33166
4.37575
4.42426
4.47616
4.52897
4.57813
4.61466
4.6213
4.58868
4.17066
4.14144
4.12623
4.12278
4.12453
4.12923
4.13662
4.14681
4.15993
4.17605
4.19524
4.21752
4.24291
4.27126
4.3026
4.33667
4.37288
4.41003
4.44608
4.47802
4.5019
4.51197
4.49954
4.46439
4.2544
4.2256
4.20654
4.19679
4.19165
4.18947
4.19015
4.19393
4.20103
4.21164
4.22583
4.2436
4.2648
4.28913
4.31619
4.34524
4.37513
4.40415
4.42995
4.44968
4.46034
4.45848
4.43999
4.40795
4.2544
4.2256
4.20654
4.19679
4.19165
4.18947
4.19015
4.19393
4.20103
4.21164
4.22583
4.2436
4.2648
4.28913
4.31619
4.34524
4.37513
4.40415
4.42995
4.44968
4.46034
4.45848
4.43999
4.40795
4.17066
4.14144
4.12622
4.12277
4.12453
4.12923
4.13662
4.14681
4.15992
4.17605
4.19524
4.21752
4.24291
4.27126
4.3026
4.33667
4.37288
4.41003
4.44608
4.47802
4.5019
4.51197
4.49954
4.46439
4.04235
4.0148
4.01215
4.02535
4.04299
4.06166
4.08101
4.10119
4.12244
4.14507
4.16941
4.1958
4.2246
4.2566
4.29208
4.33166
4.37575
4.42426
4.47616
4.52897
4.57813
4.61466
4.6213
4.58868
3.86428
3.85565
3.8854
3.93078
3.97439
4.01271
4.04644
4.07679
4.10503
4.13234
4.15973
4.18815
4.21854
4.25195
4.28955
4.33274
4.38309
4.44211
4.51079
4.58884
4.67341
4.75437
4.80512
4.80272
3.60262
3.67159
3.76414
3.85764
3.93321
3.99137
4.03684
4.07372
4.10527
4.13396
4.16165
4.18981
4.21976
4.25284
4.29061
4.33505
4.38864
4.45456
4.5365
4.63833
4.76273
4.90526
5.03476
5.1372
3.21691
3.48986
3.66844
3.81823
3.92263
3.99427
4.04528
4.08365
4.11475
4.14213
4.1682
4.19469
4.22305
4.25473
4.29138
4.3352
4.38919
4.45764
4.54663
4.6648
4.82313
5.03457
5.26468
5.61284
2.69717
3.35534
3.61195
3.81481
3.93612
4.01207
4.06246
4.09847
4.12681
4.15152
4.17515
4.19948
4.22588
4.25573
4.29065
4.33278
4.38527
4.45287
4.54294
4.66804
4.84568
5.12052
5.43517
6.21703
2.08742
3.30216
3.59825
3.83984
3.96289
4.03568
4.08154
4.11331
4.13805
4.15979
4.18095
4.20316
4.22766
4.25569
4.28872
4.32877
4.37883
4.44369
4.53086
4.65541
4.83582
5.15904
5.51014
6.8986
1.47249
3.33231
3.61927
3.8805
3.99361
4.05919
4.09897
4.12613
4.14735
4.16637
4.18535
4.20572
4.22858
4.25498
4.28626
4.32424
4.37169
4.43312
4.51552
4.63515
4.80637
5.15734
5.49739
7.5821
0.910203
3.43182
3.66706
3.92541
4.02305
4.08005
4.11368
4.13657
4.15472
4.17143
4.1886
4.20746
4.22895
4.25399
4.28374
4.31987
4.36487
4.42289
4.50012
4.61273
4.76956
5.12286
5.41924
8.21384
0.412876
3.57556
3.73568
3.96888
4.0501
4.09821
4.12611
4.1452
4.16068
4.17543
4.19108
4.20868
4.22902
4.2529
4.28133
4.31582
4.35859
4.41342
4.48569
4.59032
4.73216
5.06177
5.30032
8.76858
1.88473e-05
3.72714
3.80756
4.00588
4.0729
4.11303
4.13612
4.15206
4.16536
4.17853
4.19296
4.20955
4.22896
4.25189
4.27925
4.31238
4.3533
4.4054
4.47345
4.57062
4.69968
4.99343
5.16751
9.21147
)
;

boundaryField
{
    movingWall
    {
        type            zeroGradient;
    }
    fixedWalls
    {
        type            zeroGradient;
    }
    frontAndBack
    {
        type            empty;
    }
}


// ************************************************************************* //
