/*--------------------------------*- C++ -*----------------------------------*\
  =========                 |
  \\      /  F ield         | OpenFOAM: The Open Source CFD Toolbox
   \\    /   O peration     | Website:  https://openfoam.org
    \\  /    A nd           | Version:  8
     \\/     M anipulation  |
\*---------------------------------------------------------------------------*/
FoamFile
{
    version     2.0;
    format      ascii;
    class       surfaceScalarField;
    location    "0.5";
    object      phi;
}
// * * * * * * * * * * * * * * * * * * * * * * * * * * * * * * * * * * * * * //

dimensions      [0 3 -1 0 0 0 0];

internalField   nonuniform List<scalar> 
1104
(
0.00105599
-0.00105599
0.00113672
-8.07337e-05
0.0011706
-3.38773e-05
0.00118642
-1.58245e-05
0.00119623
-9.80441e-06
0.0012025
-6.26707e-06
0.0012067
-4.20524e-06
0.00120956
-2.85978e-06
0.0012115
-1.9358e-06
0.00121276
-1.26709e-06
0.00121352
-7.54032e-07
0.00121385
-3.29094e-07
0.00121379
5.96298e-08
0.00121333
4.58669e-07
0.00121241
9.17658e-07
0.00121091
1.5003e-06
0.00120861
2.299e-06
0.00120513
3.48265e-06
0.00119982
5.31168e-06
0.00119114
8.67847e-06
0.00117696
1.4177e-05
0.00114359
3.33669e-05
0.00106294
8.0651e-05
0.00106294
0.000957006
-0.002013
0.00120571
-0.000329433
0.00133578
-0.00016395
0.0014011
-8.11468e-05
0.00144198
-5.06789e-05
0.0014685
-3.27925e-05
0.00148644
-2.21408e-05
0.00149872
-1.51478e-05
0.0015071
-1.03134e-05
0.00151263
-6.79763e-06
0.00151597
-4.0911e-06
0.00151749
-1.84601e-06
0.00151734
2.0634e-07
0.00151549
2.30754e-06
0.00151169
4.71535e-06
0.00150543
7.75918e-06
0.00149582
1.19164e-05
0.00148126
1.80411e-05
0.00145908
2.74859e-05
0.00142328
4.44876e-05
0.00136495
7.25032e-05
0.00123754
0.000160775
0.000989549
0.000328643
0.00205249
0.00072246
-0.00273546
0.00116147
-0.000768441
0.00143105
-0.000433529
0.00158169
-0.000231791
0.00167794
-0.000146929
0.00174176
-9.6617e-05
0.00178542
-6.57914e-05
0.00181561
-4.53412e-05
0.00183637
-3.10739e-05
0.0018502
-2.06298e-05
0.00185866
-1.25513e-05
0.00186265
-5.8322e-06
0.00186254
3.11537e-07
0.00185826
6.58842e-06
0.00184922
1.37555e-05
0.00183421
2.27748e-05
0.00181108
3.50383e-05
0.00177616
5.29623e-05
0.00172314
8.05058e-05
0.00163911
0.00012852
0.00150314
0.00020847
0.00123844
0.000425481
0.000793875
0.000773206
0.00284637
0.000354659
-0.00309012
0.000960301
-0.00137408
0.00139128
-0.000864504
0.00166796
-0.000508472
0.00185213
-0.000331097
0.00197822
-0.000222711
0.00206609
-0.000153662
0.00212774
-0.000106987
0.00217063
-7.39636e-05
0.00219954
-4.95398e-05
0.00221749
-3.05049e-05
0.00222626
-1.45978e-05
0.0022266
-2.8873e-08
0.00221835
1.48331e-05
0.00220037
3.17363e-05
0.00217026
5.28858e-05
0.00212385
8.14527e-05
0.00205408
0.000122728
0.00194901
0.000185578
0.00178698
0.000290547
0.00153073
0.000464715
0.00110053
0.000855684
0.000463768
0.00140997
0.00331014
-6.40216e-05
-0.0030261
0.000586303
-0.00202441
0.0011529
-0.0014311
0.00157947
-0.00093504
0.00188391
-0.000635535
0.00210205
-0.000440856
0.00225863
-0.000310236
0.00237082
-0.000219176
0.00245019
-0.000153332
0.00250449
-0.000103846
0.0025388
-6.48136e-05
0.00255613
-3.19268e-05
0.00255779
-1.68706e-06
0.00254347
2.91483e-05
0.00251114
6.40667e-05
0.0024566
0.000107426
0.00237267
0.000165389
0.00224764
0.000247758
0.00206251
0.000370704
0.00178749
0.000565564
0.00137484
0.000877365
0.000785867
0.00144466
5.68304e-05
0.00213901
0.00336697
-0.000423919
-0.00260218
8.82135e-05
-0.00253654
0.000693827
-0.00203672
0.00124077
-0.00148198
0.00167375
-0.00106851
0.00200467
-0.000771778
0.00225286
-0.000558429
0.00243633
-0.00040264
0.00256923
-0.000286234
0.00266196
-0.000196577
0.00272167
-0.000124527
0.00275275
-6.30008e-05
0.00275705
-5.99003e-06
0.00273397
5.22268e-05
0.0026802
0.000117837
0.00258917
0.000198461
0.00245004
0.000304519
0.00224627
0.00045153
0.00195365
0.000663322
0.00154153
0.000977681
0.000976626
0.00144227
0.000300604
0.00212068
-0.00034149
0.0027811
0.00302548
-0.000587095
-0.00201508
-0.00039571
-0.00272792
7.85862e-05
-0.00251102
0.00063243
-0.00203583
0.00114054
-0.00157663
0.00156612
-0.00119736
0.00190605
-0.000898361
0.00216889
-0.000665479
0.00236574
-0.000483084
0.00250664
-0.000337476
0.00259927
-0.00021716
0.00264853
-0.000112255
0.00265632
-1.37785e-05
0.00262136
8.71841e-05
0.00253886
0.000200336
0.0024
0.00033732
0.00219141
0.000513109
0.00189516
0.000747778
0.00149084
0.00106764
0.000965465
0.00150306
0.000336968
0.00207077
-0.000261779
0.00271943
-0.000589609
0.00310893
0.00243587
-0.000554735
-0.00146035
-0.000727439
-0.00255522
-0.000546795
-0.00269166
-0.000164545
-0.00241808
0.00028002
-0.00202119
0.000707537
-0.00162487
0.00108193
-0.00127275
0.00139082
-0.000974373
0.00163324
-0.0007255
0.0018126
-0.000516842
0.00193302
-0.000337581
0.00199732
-0.000176555
0.002006
-2.24542e-05
0.00195663
0.000136557
0.00184353
0.000313435
0.00165793
0.00052292
0.00138907
0.000781966
0.00102762
0.00110923
0.000573829
0.00152143
5.50291e-05
0.00202186
-0.000445371
0.00257117
-0.000748728
0.00302278
-0.000640206
0.00300041
0.00179566
-0.000434249
-0.0010261
-0.000862756
-0.00212671
-0.00104753
-0.00250688
-0.00100325
-0.00246236
-0.00081334
-0.0022111
-0.000556363
-0.00188185
-0.000286936
-0.00154218
-3.79813e-05
-0.00122333
0.000172602
-0.000936083
0.000335842
-0.000680083
0.000447322
-0.000449061
0.000504308
-0.00023354
0.000504036
-2.21823e-05
0.00044338
0.000197213
0.000318373
0.000438442
0.000126054
0.000715239
-0.000132215
0.00104024
-0.000444483
0.0014215
-0.000778107
0.00185505
-0.00106674
0.00231049
-0.00120165
0.00270608
-0.0010503
0.00287143
-0.000560585
0.00251069
0.00123508
-0.000338877
-0.000687223
-0.000904727
-0.00156086
-0.00142604
-0.00198557
-0.00180322
-0.00208518
-0.00203105
-0.00198327
-0.00214105
-0.00177186
-0.00217178
-0.00151144
-0.00215703
-0.00123809
-0.00212259
-0.000970522
-0.00208687
-0.000715799
-0.00206248
-0.000473454
-0.00205764
-0.000238375
-0.00207859
-1.23252e-06
-0.00212463
0.00024325
-0.00219455
0.00050836
-0.00227953
0.000800227
-0.0023614
0.0011221
-0.00240846
0.00146856
-0.00237237
0.00181896
-0.00219001
0.00212813
-0.00179925
0.00231532
-0.00118336
0.00225555
-0.000460081
0.00178741
0.000774995
-0.000316594
-0.000370629
-0.00100219
-0.000875272
-0.00182817
-0.00115958
-0.00264573
-0.00126762
-0.0033779
-0.0012511
-0.00399491
-0.00115484
-0.00449363
-0.00101272
-0.00488374
-0.000847972
-0.00517943
-0.000674839
-0.0053946
-0.000500625
-0.00554044
-0.000327609
-0.00562414
-0.000154681
-0.00564694
2.15649e-05
-0.00560721
0.00020352
-0.00549462
0.000395774
-0.00529339
0.000598994
-0.00498159
0.000810294
-0.00453334
0.00102031
-0.00392449
0.00121012
-0.00314454
0.00134818
-0.00221783
0.00138862
-0.00123592
0.00127364
-0.000394226
0.000945713
0.000380768
-0.000370631
2.581e-09
-0.00124591
6.40692e-09
-0.0024055
9.18791e-09
-0.00367314
1.09744e-08
-0.00492425
1.17988e-08
-0.0060791
1.17269e-08
-0.00709183
1.08653e-08
-0.00793981
9.34257e-09
-0.00861466
7.30067e-09
-0.00911529
4.88892e-09
-0.0094429
2.25889e-09
-0.00959758
-4.41751e-10
-0.00957601
-3.06402e-09
-0.00937248
-5.49391e-09
-0.0089767
-7.60519e-09
-0.0083777
-9.29518e-09
-0.00756739
-1.04753e-08
-0.00654707
-1.10717e-08
-0.00533695
-1.10295e-08
-0.00398876
-1.03189e-08
-0.00260013
-8.94388e-09
-0.00132649
-6.95077e-09
-0.00038077
-4.43471e-09
-1.53673e-09
-0.000370631
0.000370633
-0.00124591
0.000875282
-0.0024055
0.0011596
-0.00367313
0.00126764
-0.00492423
0.00125112
-0.00607908
0.00115486
-0.00709181
0.00101274
-0.00793979
0.000847989
-0.00861463
0.000674853
-0.00911526
0.000500635
-0.00944288
0.000327614
-0.00959756
0.000154681
-0.00957599
-2.15695e-05
-0.00937247
-0.000203529
-0.00897669
-0.000395787
-0.00837769
-0.00059901
-0.00756738
-0.000810313
-0.00654707
-0.00102033
-0.00533694
-0.00121013
-0.00398876
-0.00134819
-0.00260013
-0.00138863
-0.00132649
-0.00127365
-0.00038077
-0.000945721
-0.000380771
-0.000316592
0.000687225
-0.00100218
0.00156087
-0.00182816
0.00198558
-0.00264571
0.00208519
-0.00337787
0.00198328
-0.00399489
0.00177187
-0.0044936
0.00151145
-0.00488371
0.0012381
-0.00517939
0.000970533
-0.00539456
0.000715807
-0.0055404
0.000473458
-0.0056241
0.000238376
-0.0056469
1.23001e-06
-0.00560717
-0.000243256
-0.00549459
-0.000508369
-0.00529336
-0.000800239
-0.00498156
-0.00112211
-0.00453332
-0.00146857
-0.00392448
-0.00181897
-0.00314453
-0.00212815
-0.00221783
-0.00231533
-0.00123592
-0.00225556
-0.000394226
-0.00178742
-0.000774997
-0.000338876
0.0010261
-0.000904722
0.00212672
-0.00142604
0.00250689
-0.00180321
0.00246237
-0.00203103
0.00221111
-0.00214102
0.00188186
-0.00217176
0.00154219
-0.00215699
0.00122334
-0.00212255
0.000936091
-0.00208683
0.000680089
-0.00206244
0.000449065
-0.0020576
0.000233542
-0.00207856
2.21812e-05
-0.00212459
-0.000197217
-0.00219452
-0.000438448
-0.00227951
-0.000715246
-0.00236137
-0.00104024
-0.00240844
-0.00142151
-0.00237235
-0.00185506
-0.00219
-0.0023105
-0.00179924
-0.00270609
-0.00118336
-0.00287144
-0.000460081
-0.0025107
-0.00123508
-0.000434248
0.00146035
-0.000862753
0.00255522
-0.00104752
0.00269166
-0.00100324
0.00241808
-0.000813327
0.0020212
-0.000556346
0.00162488
-0.000286916
0.00127276
-3.79577e-05
0.000974379
0.000172628
0.000725505
0.00033587
0.000516847
0.000447352
0.000337584
0.000504338
0.000176556
0.000504065
2.24537e-05
0.000443407
-0.000136559
0.000318398
-0.000313438
0.000126077
-0.000522925
-0.000132196
-0.000781971
-0.000444467
-0.00110924
-0.000778095
-0.00152143
-0.00106673
-0.00202186
-0.00120165
-0.00257117
-0.0010503
-0.00302279
-0.000560585
-0.00300041
-0.00179566
-0.000554734
0.00201508
-0.000727437
0.00272792
-0.000546792
0.00251102
-0.000164539
0.00203583
0.000280028
0.00157663
0.000707548
0.00119736
0.00108194
0.000898365
0.00139083
0.000665483
0.00163325
0.000483087
0.00181262
0.000337479
0.00193304
0.000217162
0.00199734
0.000112256
0.00200602
1.37783e-05
0.00195664
-8.71854e-05
0.00184354
-0.000200339
0.00165794
-0.000337323
0.00138908
-0.000513113
0.00102763
-0.000747782
0.000573838
-0.00106764
5.50352e-05
-0.00150306
-0.000445367
-0.00207077
-0.000748726
-0.00271943
-0.000640206
-0.00310893
-0.00243587
-0.000587094
0.00260218
-0.000395709
0.00253654
7.85882e-05
0.00203672
0.000632433
0.00148198
0.00114055
0.00106852
0.00156613
0.00077178
0.00190606
0.000558431
0.0021689
0.000402643
0.00236575
0.000286236
0.00250665
0.000196578
0.00259929
0.000124528
0.00264854
6.30013e-05
0.00265633
5.98985e-06
0.00262137
-5.22275e-05
0.00253887
-0.000117838
0.00240001
-0.000198462
0.00219142
-0.000304521
0.00189517
-0.000451532
0.00149085
-0.000663324
0.000965469
-0.000977683
0.000336971
-0.00144227
-0.000261778
-0.00212068
-0.000589608
-0.0027811
-0.00302548
-0.000423918
0.0030261
8.82142e-05
0.00202441
0.000693828
0.0014311
0.00124077
0.000935041
0.00167375
0.000635536
0.00200467
0.000440857
0.00225287
0.000310237
0.00243633
0.000219177
0.00256924
0.000153333
0.00266197
0.000103847
0.00272168
6.48141e-05
0.00275275
3.1927e-05
0.00275706
1.68693e-06
0.00273398
-2.91487e-05
0.00268021
-6.40673e-05
0.00258917
-0.000107427
0.00245004
-0.00016539
0.00224627
-0.000247759
0.00195365
-0.000370705
0.00154153
-0.000565565
0.000976627
-0.000877366
0.000300605
-0.00144466
-0.000341489
-0.00213901
-0.00336697
-6.40207e-05
0.00309012
0.000586303
0.00137408
0.0011529
0.000864504
0.00157947
0.000508473
0.00188391
0.000331097
0.00210206
0.000222712
0.00225863
0.000153662
0.00237082
0.000106988
0.00245019
7.39642e-05
0.0025045
4.95403e-05
0.00253881
3.05052e-05
0.00255613
1.45979e-05
0.00255779
2.87823e-08
0.00254348
-1.48333e-05
0.00251115
-3.17366e-05
0.00245661
-5.28863e-05
0.00237267
-8.14532e-05
0.00224764
-0.000122729
0.00206251
-0.000185578
0.00178749
-0.000290548
0.00137484
-0.000464716
0.000785868
-0.000855684
5.68305e-05
-0.00140997
-0.00331014
0.00035466
0.00273546
0.000960302
0.00076844
0.00139128
0.000433529
0.00166796
0.000231791
0.00185213
0.000146929
0.00197822
9.66172e-05
0.00206609
6.57917e-05
0.00212774
4.53416e-05
0.00217063
3.10742e-05
0.00219954
2.063e-05
0.00221749
1.25513e-05
0.00222626
5.83221e-06
0.0022266
-3.11597e-07
0.00221835
-6.58855e-06
0.00220037
-1.37557e-05
0.00217026
-2.27749e-05
0.00212385
-3.50385e-05
0.00205408
-5.29625e-05
0.00194901
-8.05061e-05
0.00178698
-0.00012852
0.00153073
-0.00020847
0.00110053
-0.000425481
0.000463768
-0.000773206
-0.00284637
0.000722461
0.002013
0.00116147
0.000329433
0.00143105
0.00016395
0.00158169
8.11469e-05
0.00167794
5.06789e-05
0.00174177
3.27925e-05
0.00178542
2.21409e-05
0.00181561
1.5148e-05
0.00183637
1.03135e-05
0.0018502
6.79768e-06
0.00185866
4.0911e-06
0.00186265
1.846e-06
0.00186254
-2.06376e-07
0.00185826
-2.30761e-06
0.00184922
-4.71544e-06
0.00183421
-7.75926e-06
0.00181108
-1.19165e-05
0.00177616
-1.80411e-05
0.00172314
-2.7486e-05
0.00163911
-4.44877e-05
0.00150314
-7.25033e-05
0.00123844
-0.000160775
0.000793875
-0.000328643
-0.00205249
0.000957007
0.00105599
0.00120571
8.07336e-05
0.00133578
3.38773e-05
0.0014011
1.58245e-05
0.00144198
9.80437e-06
0.0014685
6.26704e-06
0.00148644
4.20526e-06
0.00149872
2.85983e-06
0.0015071
1.93584e-06
0.00151263
1.26709e-06
0.00151597
7.54017e-07
0.00151749
3.29077e-07
0.00151734
-5.96491e-08
0.00151549
-4.58697e-07
0.00151169
-9.17692e-07
0.00150543
-1.50032e-06
0.00149582
-2.29901e-06
0.00148126
-3.48266e-06
0.00145908
-5.3117e-06
0.00142328
-8.67851e-06
0.00136495
-1.41771e-05
0.00123754
-3.33669e-05
0.000989549
-8.0651e-05
-0.00106294
0.00105599
0.00113672
0.0011706
0.00118642
0.00119623
0.0012025
0.0012067
0.00120956
0.0012115
0.00121276
0.00121352
0.00121385
0.00121379
0.00121333
0.00121241
0.00121091
0.00120861
0.00120513
0.00119982
0.00119114
0.00117696
0.00114359
0.00106294
)
;

boundaryField
{
    movingWall
    {
        type            calculated;
        value           uniform 0;
    }
    fixedWalls
    {
        type            calculated;
        value           uniform 0;
    }
    frontAndBack
    {
        type            empty;
        value           nonuniform List<scalar> 0();
    }
}


// ************************************************************************* //
