/*--------------------------------*- C++ -*----------------------------------*\
  =========                 |
  \\      /  F ield         | OpenFOAM: The Open Source CFD Toolbox
   \\    /   O peration     | Website:  https://openfoam.org
    \\  /    A nd           | Version:  8
     \\/     M anipulation  |
\*---------------------------------------------------------------------------*/
FoamFile
{
    version     2.0;
    format      ascii;
    class       volVectorField;
    location    "0.5";
    object      U;
}
// * * * * * * * * * * * * * * * * * * * * * * * * * * * * * * * * * * * * * //

dimensions      [0 1 -1 0 0 0 0];

internalField   nonuniform List<vector> 
576
(
(0.842745 -0.0656905 0)
(0.884817 -0.00445934 0)
(0.937851 -0.00165116 0)
(0.952206 -0.00069133 0)
(0.962271 -0.000424782 0)
(0.968329 -0.000265587 0)
(0.972385 -0.000176381 0)
(0.975134 -0.000118714 0)
(0.977007 -7.95334e-05 0)
(0.978261 -5.1394e-05 0)
(0.979054 -2.99193e-05 0)
(0.979479 -1.21683e-05 0)
(0.979585 4.10112e-06 0)
(0.979382 2.08953e-05 0)
(0.978843 4.03509e-05 0)
(0.977899 6.52404e-05 0)
(0.976417 9.95765e-05 0)
(0.974184 0.000151064 0)
(0.97077 0.000230623 0)
(0.965644 0.000384606 0)
(0.956352 0.0006252 0)
(0.944085 0.00165235 0)
(0.888964 0.00435273 0)
(0.851516 0.0657956 0)
(0.563331 -0.195405 0)
(0.659725 -0.0220779 0)
(0.798757 -0.00983732 0)
(0.844855 -0.00455277 0)
(0.876418 -0.0028128 0)
(0.895907 -0.00179419 0)
(0.909034 -0.00120235 0)
(0.918 -0.000817066 0)
(0.924155 -0.000552722 0)
(0.928307 -0.00036154 0)
(0.930958 -0.000214921 0)
(0.932411 -9.35031e-05 0)
(0.932822 1.75763e-05 0)
(0.932229 0.000131648 0)
(0.930546 0.000262924 0)
(0.927555 0.000429685 0)
(0.922841 0.000658452 0)
(0.915721 0.000998049 0)
(0.904874 0.00152305 0)
(0.888543 0.00249684 0)
(0.859744 0.00407694 0)
(0.820135 0.00970501 0)
(0.675616 0.0217461 0)
(0.591359 0.197077 0)
(0.309787 -0.300343 0)
(0.427251 -0.0638033 0)
(0.630363 -0.0332529 0)
(0.711639 -0.0168387 0)
(0.76748 -0.0105049 0)
(0.803061 -0.00681524 0)
(0.827287 -0.00460401 0)
(0.844009 -0.0031527 0)
(0.855586 -0.00214836 0)
(0.863462 -0.00141751 0)
(0.868544 -0.00085458 0)
(0.871385 -0.000387493 0)
(0.872276 3.94764e-05 0)
(0.871284 0.000476505 0)
(0.868262 0.000977079 0)
(0.862811 0.00160957 0)
(0.854184 0.00247327 0)
(0.84114 0.00374447 0)
(0.821364 0.00570813 0)
(0.791601 0.00921608 0)
(0.740857 0.0150636 0)
(0.669529 0.0325604 0)
(0.457043 0.0635263 0)
(0.352645 0.308094 0)
(0.111706 -0.363643 0)
(0.210987 -0.129782 0)
(0.440891 -0.0764752 0)
(0.553615 -0.0425087 0)
(0.63342 -0.0270657 0)
(0.686593 -0.0179047 0)
(0.723499 -0.0122235 0)
(0.749377 -0.0084425 0)
(0.767513 -0.0057972 0)
(0.779988 -0.0038569 0)
(0.78814 -0.00235389 0)
(0.792795 -0.00110274 0)
(0.79439 4.13999e-05 0)
(0.793033 0.00120993 0)
(0.788501 0.00254287 0)
(0.780194 0.00421823 0)
(0.766995 0.00649376 0)
(0.747051 0.00981057 0)
(0.717059 0.0149084 0)
(0.67218 0.0236593 0)
(0.599132 0.0383894 0)
(0.496244 0.07505 0)
(0.251358 0.131529 0)
(0.156775 0.383463 0)
(-0.0114868 -0.376788 0)
(0.0397524 -0.209727 0)
(0.249354 -0.139198 0)
(0.378831 -0.0858358 0)
(0.476461 -0.0566674 0)
(0.545667 -0.0384996 0)
(0.595268 -0.0267132 0)
(0.63088 -0.018675 0)
(0.656287 -0.0129543 0)
(0.674031 -0.00870583 0)
(0.685802 -0.0053849 0)
(0.692671 -0.00260445 0)
(0.695213 -5.62777e-05 0)
(0.693563 0.00254217 0)
(0.687421 0.00549325 0)
(0.675976 0.0091778 0)
(0.657746 0.0141418 0)
(0.630307 0.0212806 0)
(0.589601 0.0321037 0)
(0.529671 0.049823 0)
(0.437947 0.0790823 0)
(0.31247 0.138447 0)
(0.0803226 0.218084 0)
(0.0214109 0.412363 0)
(-0.0613515 -0.342457 0)
(-0.0640975 -0.283126 0)
(0.0835876 -0.213678 0)
(0.20479 -0.147048 0)
(0.306399 -0.102429 0)
(0.384705 -0.0721663 0)
(0.4437 -0.0512914 0)
(0.487576 -0.03649 0)
(0.519706 -0.0256683 0)
(0.542615 -0.0174718 0)
(0.558096 -0.0109707 0)
(0.567327 -0.00547289 0)
(0.570948 -0.000408575 0)
(0.569093 0.00475433 0)
(0.561375 0.0105897 0)
(0.546807 0.0178108 0)
(0.523643 0.0274165 0)
(0.489139 0.0409581 0)
(0.439103 0.0609417 0)
(0.367874 0.0918112 0)
(0.267265 0.139797 0)
(0.139601 0.218233 0)
(-0.0369115 0.304619 0)
(-0.0474585 0.391228 0)
(-0.0609661 -0.277698 0)
(-0.0994843 -0.325861 0)
(-0.0301545 -0.282482 0)
(0.0561647 -0.217354 0)
(0.142041 -0.162168 0)
(0.216232 -0.11978 0)
(0.276392 -0.0880025 0)
(0.323495 -0.0641505 0)
(0.359309 -0.0459894 0)
(0.385581 -0.0318121 0)
(0.403735 -0.0203065 0)
(0.414777 -0.0104139 0)
(0.419249 -0.0012119 0)
(0.417212 0.00818902 0)
(0.408201 0.0187584 0)
(0.391165 0.0316763 0)
(0.364371 0.0485234 0)
(0.325337 0.0715619 0)
(0.270871 0.104061 0)
(0.197826 0.150581 0)
(0.10526 0.215591 0)
(0.00347134 0.29973 0)
(-0.0932835 0.364922 0)
(-0.0620616 0.330462 0)
(-0.0407116 -0.206794 0)
(-0.0888548 -0.323955 0)
(-0.0832592 -0.323128 0)
(-0.0459227 -0.277419 0)
(0.00640036 -0.223717 0)
(0.0602685 -0.174839 0)
(0.109011 -0.133934 0)
(0.150159 -0.100757 0)
(0.183183 -0.074012 0)
(0.20837 -0.0522008 0)
(0.226246 -0.0338852 0)
(0.237271 -0.0177274 0)
(0.241665 -0.00244924 0)
(0.239329 0.0132425 0)
(0.229782 0.0307766 0)
(0.212145 0.0518263 0)
(0.185197 0.078455 0)
(0.147601 0.11322 0)
(0.0984827 0.159019 0)
(0.0388802 0.218144 0)
(-0.0252236 0.288958 0)
(-0.0784154 0.357729 0)
(-0.0997315 0.376898 0)
(-0.0479078 0.252999 0)
(-0.0218892 -0.146701 0)
(-0.0630862 -0.283619 0)
(-0.0915228 -0.320637 0)
(-0.0975301 -0.304167 0)
(-0.0852746 -0.265149 0)
(-0.0633959 -0.220122 0)
(-0.0383999 -0.176728 0)
(-0.0141828 -0.137895 0)
(0.00709023 -0.104188 0)
(0.0243038 -0.0750522 0)
(0.0369229 -0.0494174 0)
(0.044669 -0.0259732 0)
(0.0473162 -0.00327532 0)
(0.0446058 0.0202244 0)
(0.0362043 0.0462536 0)
(0.0217499 0.0766783 0)
(0.00107963 0.113452 0)
(-0.0253606 0.158332 0)
(-0.0557987 0.212068 0)
(-0.0859659 0.272565 0)
(-0.10758 0.331226 0)
(-0.108483 0.366747 0)
(-0.0803989 0.336877 0)
(-0.028776 0.179473 0)
(-0.0112375 -0.100767 0)
(-0.0424952 -0.221314 0)
(-0.0819658 -0.274637 0)
(-0.114649 -0.282216 0)
(-0.135692 -0.263218 0)
(-0.146823 -0.231105 0)
(-0.151073 -0.194209 0)
(-0.151116 -0.157144 0)
(-0.149029 -0.122062 0)
(-0.146327 -0.0895653 0)
(-0.144061 -0.0593255 0)
(-0.142941 -0.0304579 0)
(-0.143448 -0.00174648 0)
(-0.145784 0.0282138 0)
(-0.1499 0.0608762 0)
(-0.155481 0.0975819 0)
(-0.161646 0.139246 0)
(-0.166723 0.185792 0)
(-0.167971 0.235184 0)
(-0.161382 0.281931 0)
(-0.141914 0.315071 0)
(-0.105753 0.316135 0)
(-0.0574343 0.25914 0)
(-0.0156632 0.118005 0)
(-0.00696615 -0.0624446 0)
(-0.0322212 -0.145909 0)
(-0.0735802 -0.191474 0)
(-0.118983 -0.2075 0)
(-0.160954 -0.203158 0)
(-0.196914 -0.186153 0)
(-0.226395 -0.162182 0)
(-0.249759 -0.135062 0)
(-0.267724 -0.107058 0)
(-0.281081 -0.0792635 0)
(-0.29052 -0.0519406 0)
(-0.296534 -0.0248081 0)
(-0.299357 0.0027398 0)
(-0.298984 0.0314458 0)
(-0.295094 0.0619326 0)
(-0.286996 0.0945281 0)
(-0.27367 0.128935 0)
(-0.253809 0.163796 0)
(-0.226009 0.196157 0)
(-0.189135 0.220882 0)
(-0.143054 0.230226 0)
(-0.0904396 0.214058 0)
(-0.0404755 0.161733 0)
(-0.00890158 0.0669405 0)
(-0.00584049 -0.0220508 0)
(-0.0292392 -0.0527295 0)
(-0.071221 -0.0709703 0)
(-0.122023 -0.0789793 0)
(-0.174079 -0.0793426 0)
(-0.223275 -0.0744216 0)
(-0.267329 -0.0661257 0)
(-0.305001 -0.0558672 0)
(-0.335747 -0.0445927 0)
(-0.359441 -0.0328558 0)
(-0.376128 -0.0209064 0)
(-0.385857 -0.00878482 0)
(-0.388576 0.00358732 0)
(-0.384101 0.0163168 0)
(-0.37209 0.0294592 0)
(-0.352085 0.0429112 0)
(-0.323648 0.0562985 0)
(-0.286578 0.0688464 0)
(-0.241223 0.0792498 0)
(-0.188892 0.0855883 0)
(-0.13235 0.0853722 0)
(-0.0767089 0.0758491 0)
(-0.0309027 0.0547568 0)
(-0.00593134 0.0215961 0)
(-0.00584047 0.0220514 0)
(-0.0292391 0.052731 0)
(-0.0712208 0.0709725 0)
(-0.122023 0.0789819 0)
(-0.174078 0.0793454 0)
(-0.223274 0.0744244 0)
(-0.267328 0.0661283 0)
(-0.305 0.0558694 0)
(-0.335747 0.0445945 0)
(-0.35944 0.0328569 0)
(-0.376127 0.0209069 0)
(-0.385856 0.00878471 0)
(-0.388575 -0.00358806 0)
(-0.3841 -0.0163181 0)
(-0.37209 -0.0294611 0)
(-0.352084 -0.0429135 0)
(-0.323648 -0.056301 0)
(-0.286577 -0.0688491 0)
(-0.241222 -0.0792524 0)
(-0.188892 -0.0855907 0)
(-0.13235 -0.0853744 0)
(-0.0767089 -0.0758508 0)
(-0.0309027 -0.0547579 0)
(-0.00593134 -0.0215965 0)
(-0.00696612 0.062445 0)
(-0.032221 0.14591 0)
(-0.0735797 0.191475 0)
(-0.118982 0.207502 0)
(-0.160953 0.20316 0)
(-0.196913 0.186155 0)
(-0.226393 0.162184 0)
(-0.249757 0.135064 0)
(-0.267722 0.10706 0)
(-0.281079 0.0792646 0)
(-0.290518 0.0519413 0)
(-0.296532 0.0248082 0)
(-0.299355 -0.00274022 0)
(-0.298982 -0.0314468 0)
(-0.295092 -0.061934 0)
(-0.286995 -0.0945298 0)
(-0.273668 -0.128936 0)
(-0.253808 -0.163798 0)
(-0.226008 -0.19616 0)
(-0.189135 -0.220884 0)
(-0.143053 -0.230227 0)
(-0.0904395 -0.21406 0)
(-0.0404754 -0.161734 0)
(-0.00890157 -0.0669408 0)
(-0.0112375 0.100768 0)
(-0.042495 0.221314 0)
(-0.0819654 0.274638 0)
(-0.114649 0.282218 0)
(-0.135691 0.263219 0)
(-0.146821 0.231107 0)
(-0.151072 0.19421 0)
(-0.151114 0.157145 0)
(-0.149026 0.122063 0)
(-0.146325 0.0895662 0)
(-0.144058 0.0593261 0)
(-0.142938 0.0304581 0)
(-0.143445 0.00174628 0)
(-0.145781 -0.0282144 0)
(-0.149898 -0.0608771 0)
(-0.155479 -0.097583 0)
(-0.161644 -0.139247 0)
(-0.166721 -0.185794 0)
(-0.16797 -0.235185 0)
(-0.161381 -0.281932 0)
(-0.141913 -0.315072 0)
(-0.105753 -0.316136 0)
(-0.0574342 -0.259141 0)
(-0.0156631 -0.118005 0)
(-0.0218892 0.146701 0)
(-0.063086 0.283619 0)
(-0.0915223 0.320637 0)
(-0.0975294 0.304167 0)
(-0.0852735 0.26515 0)
(-0.0633945 0.220123 0)
(-0.0383982 0.176729 0)
(-0.0141808 0.137896 0)
(0.00709251 0.104189 0)
(0.0243063 0.0750528 0)
(0.0369256 0.0494178 0)
(0.0446717 0.0259733 0)
(0.0473189 0.00327523 0)
(0.0446084 -0.0202247 0)
(0.0362067 -0.0462541 0)
(0.0217521 -0.076679 0)
(0.00108156 -0.113453 0)
(-0.025359 -0.158333 0)
(-0.0557975 -0.212069 0)
(-0.085965 -0.272566 0)
(-0.107579 -0.331227 0)
(-0.108482 -0.366748 0)
(-0.0803988 -0.336877 0)
(-0.028776 -0.179473 0)
(-0.0407116 0.206794 0)
(-0.0888547 0.323955 0)
(-0.0832589 0.323128 0)
(-0.0459222 0.277419 0)
(0.00640116 0.223717 0)
(0.0602696 0.17484 0)
(0.109012 0.133934 0)
(0.150161 0.100757 0)
(0.183185 0.0740126 0)
(0.208372 0.0522012 0)
(0.226249 0.0338854 0)
(0.237273 0.0177276 0)
(0.241668 0.0024492 0)
(0.239332 -0.0132427 0)
(0.229785 -0.0307769 0)
(0.212147 -0.0518268 0)
(0.185199 -0.0784556 0)
(0.147603 -0.11322 0)
(0.0984839 -0.159019 0)
(0.0388811 -0.218144 0)
(-0.025223 -0.288958 0)
(-0.0784151 -0.357729 0)
(-0.0997314 -0.376898 0)
(-0.0479077 -0.252999 0)
(-0.060966 0.277697 0)
(-0.0994842 0.325861 0)
(-0.0301543 0.282482 0)
(0.0561651 0.217354 0)
(0.142041 0.162168 0)
(0.216233 0.11978 0)
(0.276394 0.0880029 0)
(0.323496 0.0641509 0)
(0.359311 0.0459898 0)
(0.385582 0.0318124 0)
(0.403737 0.0203066 0)
(0.414779 0.010414 0)
(0.419251 0.00121187 0)
(0.417214 -0.00818914 0)
(0.408203 -0.0187586 0)
(0.391167 -0.0316765 0)
(0.364372 -0.0485238 0)
(0.325338 -0.0715622 0)
(0.270872 -0.104061 0)
(0.197827 -0.150582 0)
(0.10526 -0.215591 0)
(0.00347163 -0.299731 0)
(-0.0932833 -0.364922 0)
(-0.0620616 -0.330462 0)
(-0.0613513 0.342457 0)
(-0.0640973 0.283126 0)
(0.0835878 0.213678 0)
(0.204791 0.147048 0)
(0.306399 0.102429 0)
(0.384705 0.0721665 0)
(0.443701 0.0512917 0)
(0.487577 0.0364902 0)
(0.519708 0.0256685 0)
(0.542616 0.017472 0)
(0.558097 0.0109708 0)
(0.567328 0.00547293 0)
(0.570949 0.000408556 0)
(0.569095 -0.0047544 0)
(0.561377 -0.0105898 0)
(0.546808 -0.0178109 0)
(0.523644 -0.0274167 0)
(0.48914 -0.0409582 0)
(0.439104 -0.0609418 0)
(0.367874 -0.0918114 0)
(0.267265 -0.139798 0)
(0.139601 -0.218233 0)
(-0.0369114 -0.304619 0)
(-0.0474584 -0.391228 0)
(-0.0114867 0.376788 0)
(0.0397526 0.209727 0)
(0.249354 0.139198 0)
(0.378831 0.0858358 0)
(0.476461 0.0566675 0)
(0.545668 0.0384997 0)
(0.595269 0.0267133 0)
(0.630881 0.0186751 0)
(0.656288 0.0129544 0)
(0.674032 0.00870591 0)
(0.685803 0.00538494 0)
(0.692673 0.00260446 0)
(0.695214 5.62643e-05 0)
(0.693565 -0.00254221 0)
(0.687422 -0.00549331 0)
(0.675977 -0.00917788 0)
(0.657747 -0.0141419 0)
(0.630308 -0.0212806 0)
(0.589601 -0.0321038 0)
(0.529672 -0.0498231 0)
(0.437947 -0.0790824 0)
(0.31247 -0.138447 0)
(0.0803227 -0.218084 0)
(0.0214109 -0.412363 0)
(0.111706 0.363642 0)
(0.210988 0.129782 0)
(0.440892 0.0764751 0)
(0.553615 0.0425087 0)
(0.63342 0.0270657 0)
(0.686593 0.0179047 0)
(0.7235 0.0122236 0)
(0.749378 0.00844256 0)
(0.767513 0.00579725 0)
(0.779989 0.00385694 0)
(0.788141 0.00235391 0)
(0.792796 0.00110275 0)
(0.794391 -4.14087e-05 0)
(0.793034 -0.00120995 0)
(0.788502 -0.00254291 0)
(0.780195 -0.00421826 0)
(0.766996 -0.0064938 0)
(0.747052 -0.00981061 0)
(0.717059 -0.0149085 0)
(0.67218 -0.0236593 0)
(0.599132 -0.0383894 0)
(0.496244 -0.07505 0)
(0.251358 -0.131529 0)
(0.156775 -0.383463 0)
(0.309787 0.300343 0)
(0.427251 0.0638032 0)
(0.630363 0.0332529 0)
(0.711639 0.0168387 0)
(0.76748 0.0105049 0)
(0.803062 0.00681526 0)
(0.827288 0.00460403 0)
(0.84401 0.00315273 0)
(0.855587 0.00214839 0)
(0.863462 0.00141752 0)
(0.868545 0.000854584 0)
(0.871386 0.000387492 0)
(0.872276 -3.94815e-05 0)
(0.871284 -0.000476516 0)
(0.868262 -0.000977093 0)
(0.862811 -0.00160959 0)
(0.854184 -0.00247329 0)
(0.84114 -0.00374449 0)
(0.821365 -0.00570815 0)
(0.791601 -0.0092161 0)
(0.740858 -0.0150636 0)
(0.669529 -0.0325604 0)
(0.457043 -0.0635263 0)
(0.352645 -0.308094 0)
(0.563331 0.195404 0)
(0.659725 0.0220779 0)
(0.798757 0.00983732 0)
(0.844855 0.00455277 0)
(0.876418 0.00281279 0)
(0.895907 0.00179419 0)
(0.909034 0.00120235 0)
(0.918 0.000817077 0)
(0.924156 0.00055273 0)
(0.928307 0.000361542 0)
(0.930958 0.000214919 0)
(0.932411 9.35005e-05 0)
(0.932823 -1.75798e-05 0)
(0.932229 -0.000131653 0)
(0.930547 -0.00026293 0)
(0.927555 -0.000429691 0)
(0.922842 -0.000658454 0)
(0.915721 -0.000998052 0)
(0.904874 -0.00152306 0)
(0.888543 -0.00249685 0)
(0.859744 -0.00407694 0)
(0.820135 -0.00970501 0)
(0.675616 -0.0217461 0)
(0.591359 -0.197077 0)
(0.842745 0.0656902 0)
(0.884818 0.00445934 0)
(0.937851 0.00165116 0)
(0.952206 0.00069133 0)
(0.962271 0.000424783 0)
(0.968329 0.000265588 0)
(0.972385 0.000176382 0)
(0.975134 0.000118715 0)
(0.977007 7.95341e-05 0)
(0.978261 5.13944e-05 0)
(0.979054 2.99194e-05 0)
(0.979479 1.21683e-05 0)
(0.979585 -4.10127e-06 0)
(0.979382 -2.08957e-05 0)
(0.978843 -4.03515e-05 0)
(0.977899 -6.52411e-05 0)
(0.976418 -9.95771e-05 0)
(0.974184 -0.000151065 0)
(0.97077 -0.000230623 0)
(0.965644 -0.000384607 0)
(0.956352 -0.0006252 0)
(0.944085 -0.00165235 0)
(0.888964 -0.00435273 0)
(0.851516 -0.0657956 0)
)
;

boundaryField
{
    movingWall
    {
        type            fixedValue;
        value           uniform (1 0 0);
    }
    fixedWalls
    {
        type            noSlip;
    }
    frontAndBack
    {
        type            empty;
    }
}


// ************************************************************************* //
