/*--------------------------------*- C++ -*----------------------------------*\
  =========                 |
  \\      /  F ield         | OpenFOAM: The Open Source CFD Toolbox
   \\    /   O peration     | Website:  https://openfoam.org
    \\  /    A nd           | Version:  8
     \\/     M anipulation  |
\*---------------------------------------------------------------------------*/
FoamFile
{
    version     2.0;
    format      ascii;
    class       volScalarField;
    location    "600";
    object      k;
}
// * * * * * * * * * * * * * * * * * * * * * * * * * * * * * * * * * * * * * //

dimensions      [0 2 -2 0 0 0 0];

internalField   nonuniform List<scalar> 
7320
(
6.07652
5.55942
5.24732
5.04165
4.8942
4.78178
4.69211
4.61825
4.55602
4.50265
4.45625
4.41545
4.37924
4.34686
4.31771
4.29132
4.26733
4.24542
4.22534
4.20689
4.18987
4.17415
4.15959
4.14608
4.13352
4.12184
4.11095
4.10079
4.0913
4.08244
4.07414
4.06638
4.05912
4.05231
4.04594
4.03997
4.03438
4.02914
4.02423
4.01964
4.01535
4.01134
4.00759
4.0041
4.00084
3.99782
3.995
3.9924
3.98999
3.98776
3.98571
3.98384
3.98212
3.98056
3.97915
3.97789
3.97675
3.97575
3.97488
3.97412
3.97348
3.97296
3.97253
3.97222
3.972
3.97187
3.97184
3.9719
3.97204
3.97226
3.97257
3.97295
3.97341
3.97393
3.97453
3.9752
3.97593
3.97672
3.97758
3.97849
3.97946
3.98049
3.98157
3.98271
3.98389
3.98513
3.98641
3.98774
3.98912
3.99054
3.992
3.9935
3.99505
3.99663
3.99824
3.9999
4.00159
4.00331
4.00506
4.00684
4.00865
4.01049
4.01235
4.01423
4.01614
4.01807
4.02001
4.02197
4.02394
4.02593
4.02792
4.02992
4.03192
4.03393
4.03593
4.03793
4.03993
4.04191
4.04388
4.04584
4.04773
4.04965
4.84215
5.67924
5.54001
5.36046
5.21715
5.10399
5.01225
4.93597
4.87129
4.81558
4.76697
4.72412
4.68601
4.65186
4.62109
4.59321
4.56782
4.54462
4.52335
4.50378
4.48573
4.46904
4.45358
4.43924
4.4259
4.41348
4.40191
4.39111
4.38103
4.3716
4.36278
4.35453
4.34681
4.33957
4.33279
4.32645
4.3205
4.31493
4.30972
4.30484
4.30028
4.29602
4.29204
4.28833
4.28488
4.28167
4.27869
4.27593
4.27337
4.27102
4.26886
4.26688
4.26508
4.26344
4.26196
4.26063
4.25945
4.25841
4.25751
4.25673
4.25608
4.25555
4.25514
4.25483
4.25463
4.25454
4.25454
4.25464
4.25483
4.25511
4.25547
4.25592
4.25645
4.25705
4.25773
4.25849
4.25932
4.26021
4.26117
4.2622
4.26328
4.26443
4.26564
4.2669
4.26822
4.2696
4.27102
4.2725
4.27403
4.2756
4.27722
4.27889
4.2806
4.28235
4.28414
4.28597
4.28784
4.28974
4.29168
4.29365
4.29565
4.29768
4.29974
4.30183
4.30394
4.30607
4.30821
4.31038
4.31256
4.31475
4.31696
4.31917
4.32138
4.3236
4.32581
4.32802
4.33022
4.33242
4.3346
4.33676
4.33887
4.34095
3.59581
5.0514
5.15997
5.06781
4.96411
4.87324
4.79598
4.72999
4.67307
4.62344
4.57977
4.541
4.50635
4.47517
4.44698
4.42135
4.39797
4.37656
4.35689
4.33877
4.32204
4.30655
4.29219
4.27885
4.26644
4.25488
4.2441
4.23404
4.22463
4.21584
4.20762
4.19993
4.19272
4.18597
4.17965
4.17373
4.16819
4.163
4.15814
4.1536
4.14935
4.14538
4.14169
4.13824
4.13504
4.13206
4.1293
4.12675
4.1244
4.12224
4.12026
4.11845
4.11681
4.11532
4.11399
4.11281
4.11176
4.11085
4.11007
4.10941
4.10887
4.10844
4.10813
4.10792
4.10782
4.10781
4.1079
4.10808
4.10835
4.1087
4.10914
4.10966
4.11025
4.11092
4.11167
4.11249
4.11337
4.11432
4.11534
4.11642
4.11756
4.11877
4.12002
4.12134
4.12271
4.12413
4.12561
4.12713
4.12871
4.13033
4.132
4.13371
4.13546
4.13726
4.1391
4.14097
4.14289
4.14484
4.14682
4.14884
4.15088
4.15296
4.15507
4.1572
4.15935
4.16153
4.16372
4.16593
4.16816
4.1704
4.17265
4.17491
4.17717
4.17943
4.18169
4.18394
4.18619
4.18843
4.19065
4.19286
4.19502
4.19712
2.74725
4.48339
4.83294
4.83938
4.78111
4.71517
4.65355
4.59832
4.54927
4.50567
4.46677
4.43188
4.40045
4.372
4.34614
4.32254
4.30093
4.28108
4.2628
4.24593
4.23032
4.21585
4.20241
4.18991
4.17828
4.16743
4.15731
4.14786
4.13902
4.13075
4.12302
4.11578
4.109
4.10265
4.0967
4.09113
4.08592
4.08104
4.07648
4.07221
4.06823
4.06451
4.06105
4.05782
4.05483
4.05206
4.04949
4.04713
4.04495
4.04296
4.04114
4.03948
4.03799
4.03665
4.03546
4.0344
4.03349
4.0327
4.03204
4.0315
4.03108
4.03077
4.03056
4.03046
4.03046
4.03056
4.03075
4.03103
4.0314
4.03185
4.03238
4.033
4.03369
4.03445
4.03529
4.03619
4.03717
4.03821
4.03932
4.04049
4.04172
4.04301
4.04436
4.04576
4.04722
4.04874
4.0503
4.05192
4.05358
4.0553
4.05706
4.05886
4.06071
4.0626
4.06454
4.06651
4.06852
4.07056
4.07265
4.07476
4.07691
4.07909
4.08129
4.08352
4.08578
4.08806
4.09036
4.09267
4.095
4.09734
4.0997
4.10205
4.10442
4.10678
4.10914
4.1115
4.11385
4.11619
4.11851
4.12082
4.12309
4.12525
2.10346
3.90602
4.48941
4.61127
4.60898
4.57387
4.53133
4.489
4.44924
4.41265
4.37922
4.34873
4.32092
4.29549
4.27219
4.2508
4.23111
4.21295
4.19616
4.18061
4.16619
4.15279
4.14032
4.12871
4.11788
4.10777
4.09833
4.08951
4.08125
4.07353
4.06629
4.05952
4.05318
4.04724
4.04168
4.03647
4.0316
4.02704
4.02278
4.0188
4.01509
4.01163
4.00841
4.00542
4.00265
4.00009
3.99772
3.99555
3.99356
3.99175
3.9901
3.98862
3.98729
3.9861
3.98506
3.98416
3.98339
3.98274
3.98222
3.98181
3.98152
3.98134
3.98126
3.98129
3.98141
3.98163
3.98195
3.98235
3.98283
3.9834
3.98405
3.98477
3.98558
3.98645
3.9874
3.98842
3.98951
3.99067
3.99189
3.99317
3.99452
3.99592
3.99738
3.9989
4.00048
4.00211
4.00379
4.00552
4.00731
4.00914
4.01102
4.01294
4.01492
4.01693
4.01898
4.02108
4.02322
4.02539
4.0276
4.02984
4.03212
4.03442
4.03676
4.03912
4.04151
4.04392
4.04635
4.0488
4.05126
4.05373
4.05622
4.05871
4.0612
4.0637
4.06619
4.06868
4.07115
4.07362
4.07607
4.07849
4.08089
4.08316
1.61624
3.30894
4.10161
4.35522
4.42201
4.42574
4.40724
4.38106
4.35281
4.32483
4.29808
4.27292
4.24944
4.22762
4.20738
4.18859
4.17115
4.15496
4.13991
4.1259
4.11285
4.10069
4.08934
4.07874
4.06884
4.05958
4.05091
4.0428
4.03521
4.0281
4.02144
4.0152
4.00935
4.00388
3.99875
3.99395
3.98946
3.98527
3.98135
3.9777
3.97429
3.97113
3.96819
3.96546
3.96295
3.96063
3.9585
3.95655
3.95477
3.95316
3.95172
3.95042
3.94928
3.94828
3.94741
3.94668
3.94608
3.94559
3.94523
3.94498
3.94484
3.94481
3.94488
3.94505
3.94532
3.94568
3.94614
3.94668
3.9473
3.948
3.94878
3.94965
3.95058
3.95159
3.95268
3.95383
3.95505
3.95634
3.95769
3.9591
3.96058
3.96212
3.96371
3.96537
3.96708
3.96884
3.97066
3.97253
3.97445
3.97642
3.97844
3.98051
3.98262
3.98477
3.98697
3.98921
3.99149
3.99381
3.99616
3.99855
4.00098
4.00343
4.00591
4.00843
4.01096
4.01352
4.0161
4.0187
4.02131
4.02393
4.02657
4.02921
4.03185
4.03449
4.03712
4.03975
4.04237
4.04498
4.04757
4.05013
4.05267
4.05505
1.26812
2.7064
3.65726
4.05358
4.20386
4.25636
4.26838
4.26267
4.24897
4.23181
4.21339
4.19484
4.17674
4.15936
4.14285
4.12725
4.11255
4.09875
4.0858
4.07365
4.06226
4.05158
4.04157
4.03219
4.02339
4.01514
4.0074
4.00014
3.99333
3.98695
3.98097
3.97536
3.9701
3.96518
3.96057
3.95625
3.95222
3.94846
3.94495
3.94168
3.93864
3.93582
3.93321
3.9308
3.92858
3.92655
3.92469
3.923
3.92148
3.92012
3.91891
3.91784
3.91691
3.91612
3.91547
3.91493
3.91452
3.91423
3.91406
3.91399
3.91403
3.91417
3.91442
3.91476
3.91519
3.91572
3.91633
3.91703
3.91781
3.91867
3.91961
3.92062
3.92171
3.92288
3.92411
3.92541
3.92678
3.92822
3.92972
3.93129
3.93291
3.9346
3.93635
3.93815
3.94001
3.94193
3.94389
3.94592
3.94799
3.95011
3.95229
3.95451
3.95677
3.95908
3.96144
3.96384
3.96627
3.96875
3.97126
3.97381
3.9764
3.97901
3.98166
3.98433
3.98702
3.98974
3.99248
3.99524
3.99801
4.0008
4.00359
4.00638
4.00918
4.01197
4.01476
4.01755
4.02031
4.02306
4.0258
4.0285
4.03118
4.03369
1.04443
2.13048
3.15609
3.69382
3.94125
4.05401
4.10457
4.12487
4.12967
4.12622
4.11833
4.10811
4.09673
4.0849
4.07304
4.06139
4.0501
4.03924
4.02888
4.01901
4.00966
4.0008
3.99243
3.98452
3.97707
3.97005
3.96343
3.95721
3.95136
3.94586
3.9407
3.93585
3.9313
3.92705
3.92306
3.91933
3.91585
3.91261
3.90959
3.90678
3.90418
3.90178
3.89956
3.89753
3.89567
3.89398
3.89246
3.89108
3.88987
3.88879
3.88786
3.88706
3.8864
3.88586
3.88545
3.88515
3.88497
3.8849
3.88494
3.88509
3.88534
3.88569
3.88613
3.88667
3.88729
3.88801
3.88881
3.88969
3.89065
3.89169
3.89281
3.894
3.89526
3.89659
3.898
3.89947
3.90101
3.90261
3.90428
3.90601
3.9078
3.90965
3.91157
3.91353
3.91556
3.91764
3.91977
3.92196
3.9242
3.92649
3.92883
3.93122
3.93365
3.93613
3.93865
3.94121
3.94382
3.94647
3.94915
3.95187
3.95462
3.9574
3.96022
3.96306
3.96592
3.96881
3.97172
3.97464
3.97758
3.98053
3.98348
3.98644
3.9894
3.99235
3.99529
3.99823
4.00115
4.00405
4.00692
4.00977
4.0126
4.01523
0.919762
1.62589
2.61278
3.26901
3.62244
3.80741
3.90596
3.95917
3.98746
4.00145
4.00694
4.00725
4.00438
3.99954
3.99352
3.98681
3.97977
3.97259
3.96544
3.95842
3.95158
3.94497
3.93862
3.93255
3.92675
3.92124
3.91601
3.91106
3.90638
3.90196
3.8978
3.89389
3.89022
3.88677
3.88354
3.88053
3.87772
3.87511
3.87269
3.87045
3.86838
3.86648
3.86475
3.86317
3.86175
3.86048
3.85935
3.85836
3.8575
3.85678
3.85618
3.85571
3.85535
3.85512
3.85499
3.85498
3.85507
3.85527
3.85557
3.85596
3.85645
3.85704
3.85771
3.85848
3.85933
3.86026
3.86127
3.86237
3.86354
3.86478
3.8661
3.86749
3.86894
3.87047
3.87206
3.87372
3.87545
3.87724
3.87909
3.88101
3.88298
3.88502
3.88711
3.88926
3.89146
3.89372
3.89603
3.8984
3.90082
3.90328
3.9058
3.90836
3.91098
3.91363
3.91633
3.91907
3.92186
3.92468
3.92754
3.93043
3.93336
3.93632
3.93931
3.94233
3.94536
3.94843
3.9515
3.9546
3.9577
3.96082
3.96394
3.96706
3.97018
3.97329
3.97639
3.97948
3.98255
3.9856
3.98862
3.9916
3.99457
3.99732
0.860369
1.23773
2.06198
2.78202
3.23846
3.50547
3.66218
3.75644
3.81442
3.85055
3.87304
3.88674
3.89464
3.89864
3.89999
3.89953
3.89781
3.89526
3.89213
3.88865
3.88496
3.88115
3.87732
3.87352
3.86978
3.86614
3.86263
3.85925
3.85601
3.85293
3.85001
3.84724
3.84464
3.84219
3.83991
3.83777
3.83578
3.83395
3.83226
3.8307
3.82929
3.82801
3.82687
3.82585
3.82496
3.82419
3.82354
3.82301
3.8226
3.82229
3.8221
3.82202
3.82204
3.82216
3.82238
3.8227
3.82312
3.82363
3.82423
3.82493
3.8257
3.82657
3.82751
3.82854
3.82965
3.83084
3.8321
3.83344
3.83485
3.83632
3.83787
3.83948
3.84116
3.84291
3.84471
3.84659
3.84852
3.85052
3.85258
3.85469
3.85687
3.8591
3.86139
3.86374
3.86614
3.86859
3.8711
3.87365
3.87626
3.87892
3.88163
3.88438
3.88718
3.89002
3.89291
3.89584
3.89881
3.90181
3.90486
3.90794
3.91105
3.91419
3.91735
3.92055
3.92377
3.927
3.93025
3.93352
3.9368
3.94008
3.94337
3.94665
3.94993
3.9532
3.95645
3.95969
3.96291
3.9661
3.96926
3.97238
3.97548
3.97836
0.836787
0.98815
1.55966
2.25312
2.7872
3.13869
3.36248
3.50657
3.60152
3.66555
3.70958
3.74028
3.76187
3.77709
3.78779
3.79521
3.80023
3.80349
3.80544
3.80641
3.80665
3.80636
3.80568
3.8047
3.80353
3.80223
3.80084
3.79942
3.79798
3.79655
3.79516
3.79382
3.79254
3.79133
3.7902
3.78914
3.78817
3.78729
3.7865
3.78579
3.78518
3.78466
3.78424
3.7839
3.78366
3.78351
3.78345
3.78348
3.7836
3.78381
3.78411
3.7845
3.78497
3.78553
3.78617
3.78689
3.7877
3.78858
3.78955
3.79059
3.79171
3.7929
3.79417
3.79551
3.79692
3.7984
3.79995
3.80157
3.80326
3.805
3.80681
3.80868
3.81062
3.81261
3.81466
3.81677
3.81894
3.82117
3.82346
3.8258
3.8282
3.83065
3.83316
3.83572
3.83833
3.841
3.84371
3.84648
3.84929
3.85216
3.85507
3.85802
3.86102
3.86406
3.86714
3.87027
3.87343
3.87663
3.87987
3.88313
3.88643
3.88976
3.89311
3.89649
3.89989
3.9033
3.90673
3.91017
3.91362
3.91707
3.92052
3.92397
3.9274
3.93083
3.93423
3.93762
3.94097
3.9443
3.94759
3.95084
3.95407
3.95707
0.830413
0.857509
1.16926
1.7285
2.28148
2.70333
2.99742
3.19899
3.33861
3.4372
3.50825
3.56042
3.59936
3.62883
3.65138
3.6688
3.68236
3.69298
3.70133
3.70792
3.71312
3.71725
3.72051
3.7231
3.72514
3.72675
3.72803
3.72904
3.72984
3.73048
3.731
3.73142
3.73179
3.73211
3.7324
3.73269
3.73298
3.73327
3.73359
3.73394
3.73431
3.73473
3.73519
3.73569
3.73625
3.73686
3.73752
3.73824
3.73901
3.73985
3.74075
3.74171
3.74273
3.74381
3.74496
3.74617
3.74744
3.74878
3.75018
3.75164
3.75317
3.75475
3.7564
3.75811
3.75988
3.76171
3.7636
3.76555
3.76755
3.76962
3.77173
3.7739
3.77613
3.77841
3.78074
3.78312
3.78556
3.78805
3.7906
3.79319
3.79584
3.79854
3.80129
3.80409
3.80694
3.80983
3.81278
3.81577
3.81881
3.82189
3.82502
3.82819
3.8314
3.83466
3.83795
3.84128
3.84465
3.84805
3.85149
3.85495
3.85845
3.86197
3.86551
3.86908
3.87266
3.87626
3.87986
3.88348
3.8871
3.89072
3.89433
3.89794
3.90153
3.9051
3.90866
3.91218
3.91568
3.91913
3.92255
3.92592
3.92926
3.93238
0.831632
0.801461
0.924682
1.27902
1.76057
2.20994
2.5635
2.82478
3.0153
3.15518
3.2594
3.33832
3.39906
3.44651
3.48408
3.51418
3.53856
3.5585
3.57496
3.58866
3.60014
3.60984
3.61808
3.62514
3.63123
3.63651
3.64113
3.64519
3.6488
3.65202
3.65492
3.65755
3.65997
3.6622
3.66427
3.66622
3.66807
3.66983
3.67153
3.67317
3.67477
3.67635
3.6779
3.67944
3.68098
3.68252
3.68408
3.68564
3.68722
3.68883
3.69046
3.69212
3.69381
3.69554
3.6973
3.69911
3.70095
3.70283
3.70476
3.70673
3.70874
3.7108
3.71291
3.71506
3.71726
3.7195
3.72179
3.72413
3.72652
3.72895
3.73143
3.73395
3.73651
3.73912
3.74178
3.74448
3.74723
3.75002
3.75286
3.75575
3.75868
3.76166
3.76468
3.76775
3.77086
3.77401
3.77721
3.78045
3.78374
3.78707
3.79043
3.79384
3.79728
3.80077
3.80429
3.80784
3.81143
3.81504
3.81869
3.82237
3.82607
3.82979
3.83353
3.83729
3.84106
3.84485
3.84864
3.85243
3.85622
3.86001
3.86379
3.86755
3.8713
3.87502
3.87872
3.88238
3.88601
3.88959
3.89312
3.89661
3.90005
3.90327
0.835915
0.782667
0.803403
0.968303
1.29566
1.69673
2.07275
2.38225
2.62383
2.80953
2.95259
3.06386
3.15146
3.22133
3.27774
3.32383
3.3619
3.39365
3.42038
3.44308
3.46251
3.47926
3.49381
3.50652
3.51771
3.52762
3.53645
3.54435
3.55148
3.55795
3.56384
3.56924
3.57422
3.57884
3.58314
3.58717
3.59096
3.59455
3.59796
3.60122
3.60435
3.60736
3.61028
3.61311
3.61586
3.61856
3.62121
3.62382
3.6264
3.62896
3.6315
3.63402
3.63654
3.63906
3.64158
3.64411
3.64665
3.6492
3.65177
3.65436
3.65697
3.6596
3.66226
3.66495
3.66766
3.6704
3.67318
3.67598
3.67882
3.6817
3.6846
3.68754
3.69051
3.69351
3.69655
3.69962
3.70273
3.70588
3.70906
3.71228
3.71554
3.71883
3.72217
3.72554
3.72895
3.7324
3.73589
3.73941
3.74298
3.74657
3.75021
3.75387
3.75758
3.76131
3.76508
3.76887
3.7727
3.77655
3.78042
3.78432
3.78824
3.79218
3.79613
3.8001
3.80407
3.80805
3.81203
3.816
3.81998
3.82394
3.82788
3.83181
3.83571
3.83958
3.84341
3.84721
3.85096
3.85466
3.85831
3.86189
3.86544
3.86876
0.841165
0.780282
0.755
0.801817
0.962762
1.23783
1.56799
1.88853
2.16639
2.39488
2.57903
2.72692
2.8462
2.94318
3.02278
3.08874
3.14394
3.19054
3.23023
3.26431
3.29379
3.31947
3.34199
3.36187
3.37951
3.39527
3.40942
3.42218
3.43376
3.44431
3.45397
3.46285
3.47106
3.47868
3.48577
3.49241
3.49864
3.50452
3.51008
3.51536
3.52039
3.52519
3.5298
3.53424
3.53852
3.54266
3.54668
3.55059
3.55441
3.55814
3.5618
3.5654
3.56894
3.57244
3.57589
3.57932
3.58272
3.58609
3.58945
3.5928
3.59614
3.59948
3.60281
3.60615
3.60949
3.61284
3.61621
3.61958
3.62297
3.62637
3.62979
3.63323
3.63668
3.64016
3.64365
3.64716
3.6507
3.65426
3.65785
3.66147
3.66511
3.66878
3.67248
3.67621
3.67997
3.68376
3.68758
3.69143
3.6953
3.69921
3.70315
3.70711
3.7111
3.71512
3.71916
3.72323
3.72731
3.73142
3.73555
3.7397
3.74386
3.74803
3.75221
3.75639
3.76058
3.76477
3.76895
3.77312
3.77728
3.78142
3.78554
3.78963
3.79368
3.7977
3.80168
3.80561
3.80948
3.8133
3.81705
3.82073
3.82436
3.82778
0.846372
0.784571
0.740866
0.731421
0.780818
0.913761
1.13036
1.39676
1.66969
1.92048
2.13792
2.32135
2.47447
2.60211
2.70889
2.79873
2.87484
2.93979
2.99561
3.04393
3.08604
3.12297
3.15556
3.18449
3.2103
3.23346
3.25433
3.27324
3.29044
3.30616
3.32058
3.33386
3.34615
3.35755
3.36816
3.37809
3.38739
3.39614
3.4044
3.41221
3.41963
3.42669
3.43343
3.43987
3.44605
3.452
3.45773
3.46326
3.46863
3.47383
3.47889
3.48382
3.48864
3.49336
3.49798
3.50252
3.50698
3.51138
3.51572
3.52001
3.52425
3.52846
3.53263
3.53677
3.54089
3.54498
3.54906
3.55313
3.55719
3.56124
3.56529
3.56933
3.57338
3.57742
3.58147
3.58552
3.58957
3.59364
3.59771
3.6018
3.6059
3.61002
3.61415
3.6183
3.62247
3.62666
3.63087
3.6351
3.63934
3.64361
3.6479
3.6522
3.65653
3.66087
3.66523
3.6696
3.67399
3.67839
3.68281
3.68723
3.69166
3.69609
3.70052
3.70495
3.70937
3.71379
3.71819
3.72257
3.72693
3.73127
3.73557
3.73983
3.74406
3.74823
3.75235
3.75642
3.76042
3.76435
3.7682
3.77198
3.77569
3.7792
0.851011
0.791143
0.741126
0.708367
0.70346
0.741579
0.838108
0.996907
1.20263
1.4285
1.65059
1.85477
2.03555
2.19259
2.3279
2.44426
2.54449
2.63115
2.70642
2.77214
2.82983
2.88074
2.9259
2.96617
3.00226
3.03473
3.0641
3.09077
3.11508
3.13733
3.15777
3.17661
3.19405
3.21023
3.2253
3.23937
3.25255
3.26493
3.27659
3.2876
3.29803
3.30792
3.31733
3.3263
3.33488
3.34309
3.35097
3.35855
3.36585
3.3729
3.37972
3.38632
3.39274
3.39898
3.40506
3.41099
3.41679
3.42246
3.42802
3.43349
3.43885
3.44414
3.44935
3.45449
3.45957
3.46459
3.46956
3.47449
3.47938
3.48423
3.48905
3.49384
3.49861
3.50335
3.50808
3.51278
3.51747
3.52215
3.52682
3.53148
3.53614
3.5408
3.54546
3.55011
3.55478
3.55945
3.56412
3.5688
3.57349
3.57818
3.58288
3.58759
3.59231
3.59704
3.60177
3.6065
3.61124
3.61598
3.62073
3.62547
3.6302
3.63494
3.63966
3.64437
3.64906
3.65373
3.65838
3.663
3.66759
3.67214
3.67664
3.6811
3.6855
3.68984
3.69412
3.69833
3.70246
3.70651
3.71047
3.71434
3.71814
3.72173
0.854799
0.797919
0.746862
0.705362
0.677885
0.670753
0.692779
0.753704
0.85933
1.00619
1.18133
1.368
1.55204
1.72458
1.88152
2.02185
2.14624
2.2561
2.35311
2.43889
2.51496
2.58264
2.64308
2.69726
2.74603
2.79009
2.83005
2.86643
2.89967
2.93014
2.95817
2.98403
3.00797
3.03019
3.05088
3.0702
3.08828
3.10525
3.12121
3.13626
3.15049
3.16396
3.17675
3.18891
3.20051
3.21158
3.22217
3.23232
3.24206
3.25144
3.26047
3.26919
3.27762
3.28577
3.29369
3.30137
3.30884
3.31612
3.32322
3.33015
3.33694
3.34358
3.35009
3.35648
3.36276
3.36894
3.37503
3.38103
3.38695
3.3928
3.39858
3.4043
3.40997
3.41558
3.42114
3.42666
3.43213
3.43757
3.44297
3.44834
3.45369
3.45901
3.46431
3.4696
3.47486
3.48012
3.48536
3.49059
3.49581
3.50103
3.50623
3.51143
3.51662
3.52181
3.52698
3.53215
3.53731
3.54245
3.54759
3.55271
3.55781
3.5629
3.56796
3.57299
3.578
3.58298
3.58791
3.59281
3.59766
3.60245
3.60719
3.61187
3.61648
3.62101
3.62546
3.62983
3.63411
3.63829
3.64237
3.64634
3.65023
3.65391
0.857613
0.803838
0.754023
0.710069
0.674015
0.648368
0.636594
0.64348
0.674826
0.73588
0.828724
0.950234
1.09243
1.24518
1.3992
1.54782
1.68713
1.81538
1.93217
2.03791
2.13338
2.21952
2.29731
2.36768
2.43146
2.48942
2.54224
2.59051
2.63474
2.67539
2.71286
2.74748
2.77957
2.80937
2.83713
2.86305
2.88731
2.91006
2.93145
2.95161
2.97064
2.98863
3.00569
3.02189
3.0373
3.05199
3.066
3.07941
3.09224
3.10456
3.11639
3.12777
3.13874
3.14932
3.15955
3.16945
3.17904
3.18834
3.19738
3.20617
3.21474
3.22309
3.23124
3.23921
3.24701
3.25464
3.26213
3.26948
3.2767
3.2838
3.29079
3.29768
3.30447
3.31117
3.31779
3.32432
3.33078
3.33716
3.34348
3.34974
3.35594
3.36209
3.36819
3.37425
3.38027
3.38625
3.39219
3.39811
3.40399
3.40984
3.41567
3.42147
3.42724
3.43299
3.43871
3.4444
3.45007
3.45571
3.46132
3.4669
3.47245
3.47796
3.48344
3.48887
3.49425
3.49959
3.50487
3.5101
3.51526
3.52035
3.52537
3.5303
3.53515
3.53991
3.54458
3.54913
3.55358
3.55792
3.56213
3.56622
3.57021
3.574
0.859482
0.808378
0.760626
0.716973
0.678334
0.645749
0.620512
0.604371
0.599722
0.609658
0.637654
0.686738
0.758296
0.851094
0.961178
1.08279
1.20982
1.33698
1.46042
1.57773
1.68766
1.78972
1.88396
1.9707
2.05043
2.12369
2.19105
2.25304
2.31019
2.36297
2.41179
2.45705
2.49909
2.53822
2.57472
2.60884
2.64079
2.67077
2.69896
2.72551
2.75057
2.77426
2.7967
2.81799
2.83821
2.85746
2.87581
2.89332
2.91007
2.9261
2.94147
2.95623
2.97041
2.98407
2.99723
3.00993
3.0222
3.03407
3.04557
3.05671
3.06754
3.07805
3.08829
3.09825
3.10797
3.11745
3.12671
3.13577
3.14464
3.15332
3.16184
3.1702
3.17841
3.18648
3.19442
3.20224
3.20993
3.21752
3.22499
3.23237
3.23965
3.24684
3.25395
3.26099
3.26795
3.27484
3.28167
3.28844
3.29515
3.3018
3.3084
3.31495
3.32145
3.3279
3.3343
3.34065
3.34695
3.3532
3.35941
3.36556
3.37165
3.37769
3.38368
3.38959
3.39545
3.40123
3.40694
3.41257
3.41811
3.42356
3.42892
3.43418
3.43933
3.44437
3.44929
3.45408
3.45874
3.46327
3.46765
3.47189
3.476
3.47992
0.860565
0.811411
0.765711
0.723439
0.684828
0.650242
0.620147
0.595142
0.57603
0.563904
0.56022
0.566795
0.585676
0.618805
0.66751
0.731993
0.81102
0.902008
1.00149
1.10577
1.21146
1.31586
1.41705
1.51381
1.60547
1.69173
1.77257
1.84814
1.91867
1.98447
2.04585
2.10314
2.15665
2.20669
2.25354
2.29746
2.33869
2.37746
2.41396
2.44838
2.48088
2.51163
2.54075
2.56838
2.59462
2.61958
2.64336
2.66604
2.6877
2.70841
2.72825
2.74726
2.76551
2.78305
2.79992
2.81617
2.83183
2.84696
2.86157
2.8757
2.88939
2.90266
2.91553
2.92803
2.94019
2.95201
2.96353
2.97476
2.98572
2.99641
3.00687
3.0171
3.02712
3.03693
3.04655
3.05599
3.06526
3.07436
3.08331
3.09211
3.10076
3.10928
3.11767
3.12594
3.1341
3.14215
3.1501
3.15795
3.1657
3.17337
3.18095
3.18845
3.19586
3.2032
3.21045
3.21763
3.22474
3.23176
3.23871
3.24558
3.25236
3.25907
3.26569
3.27222
3.27866
3.285
3.29125
3.29738
3.30341
3.30932
3.31511
3.32077
3.3263
3.33169
3.33693
3.34202
3.34695
3.35172
3.35633
3.36076
3.36504
3.36912
0.861099
0.813133
0.76901
0.728261
0.690673
0.656203
0.624916
0.596953
0.57254
0.551996
0.535764
0.524447
0.518835
0.519919
0.528854
0.546863
0.575059
0.614217
0.664541
0.725514
0.795886
0.873821
0.957145
1.04364
1.13129
1.21842
1.30375
1.3864
1.4658
1.54163
1.61374
1.68211
1.74682
1.80798
1.86575
1.92032
1.97186
2.02057
2.06662
2.11021
2.15149
2.19063
2.22777
2.26305
2.29661
2.32855
2.35899
2.38803
2.41577
2.44229
2.46768
2.492
2.51533
2.53773
2.55925
2.57996
2.5999
2.61912
2.63767
2.65558
2.67289
2.68964
2.70585
2.72157
2.73682
2.75162
2.766
2.77999
2.7936
2.80686
2.81979
2.8324
2.84471
2.85674
2.8685
2.88001
2.89128
2.90231
2.91313
2.92374
2.93415
2.94437
2.9544
2.96425
2.97394
2.98346
2.99284
3.00207
3.01117
3.02013
3.02896
3.03766
3.04624
3.05471
3.06306
3.07129
3.07941
3.08742
3.09532
3.1031
3.11077
3.11832
3.12575
3.13306
3.14025
3.14731
3.15423
3.16102
3.16766
3.17415
3.18049
3.18667
3.19269
3.19853
3.20419
3.20967
3.21496
3.22005
3.22494
3.22963
3.23415
3.23846
0.861317
0.813942
0.770775
0.731184
0.694718
0.661081
0.630095
0.601662
0.575754
0.552397
0.531673
0.513721
0.498751
0.487049
0.478999
0.475087
0.475905
0.482135
0.494504
0.513718
0.540366
0.574817
0.617121
0.666953
0.72361
0.786067
0.853079
0.923307
0.995441
1.06829
1.14087
1.21238
1.28223
1.35001
1.41546
1.47842
1.53881
1.59663
1.65191
1.7047
1.75509
1.80318
1.84906
1.89286
1.93467
1.9746
2.01277
2.04927
2.0842
2.11764
2.14969
2.18042
2.20991
2.23823
2.26546
2.29165
2.31687
2.34116
2.36459
2.3872
2.40903
2.43013
2.45054
2.47029
2.48943
2.50798
2.52598
2.54345
2.56042
2.57692
2.59298
2.60861
2.62384
2.63869
2.65317
2.66731
2.68112
2.69462
2.70782
2.72073
2.73338
2.74576
2.75789
2.76977
2.78141
2.79284
2.80405
2.81505
2.82586
2.83648
2.84691
2.85717
2.86725
2.87716
2.88691
2.8965
2.90593
2.9152
2.92431
2.93326
2.94206
2.95069
2.95917
2.96748
2.97562
2.9836
2.9914
2.99902
3.00645
3.0137
3.02075
3.0276
3.03424
3.04068
3.04689
3.05288
3.05864
3.06416
3.06945
3.07449
3.07933
3.08394
0.861389
0.814244
0.77153
0.732597
0.696917
0.664079
0.633769
0.605753
0.579862
0.555979
0.53403
0.513979
0.495828
0.479611
0.4654
0.453309
0.443493
0.436161
0.431574
0.430052
0.431968
0.437737
0.4478
0.462586
0.482477
0.507758
0.538578
0.574904
0.616512
0.66298
0.713718
0.768009
0.825062
0.88407
0.94426
1.00493
1.06548
1.12542
1.18435
1.242
1.29815
1.35267
1.40547
1.45651
1.50578
1.55328
1.59905
1.64312
1.68554
1.72636
1.76565
1.80347
1.83988
1.87494
1.90873
1.94129
1.97268
2.00297
2.03221
2.06044
2.08772
2.11409
2.13959
2.16428
2.18819
2.21135
2.23381
2.2556
2.27675
2.29729
2.31726
2.33667
2.35556
2.37394
2.39185
2.40931
2.42633
2.44293
2.45914
2.47497
2.49044
2.50556
2.52035
2.53481
2.54897
2.56282
2.57637
2.58965
2.60265
2.61539
2.62788
2.64013
2.65213
2.66391
2.67545
2.68678
2.69788
2.70877
2.71944
2.7299
2.74015
2.75018
2.75999
2.76959
2.77897
2.78812
2.79705
2.80574
2.8142
2.82242
2.83039
2.83811
2.84557
2.85277
2.8597
2.86636
2.87275
2.87885
2.88466
2.89019
2.89547
2.9005
0.861406
0.814329
0.771776
0.733121
0.697834
0.665476
0.635686
0.608168
0.582682
0.559037
0.53708
0.516692
0.497782
0.480288
0.464168
0.449403
0.435996
0.423969
0.413369
0.404262
0.396745
0.390937
0.38699
0.385084
0.385432
0.38827
0.393857
0.402461
0.414344
0.429749
0.448872
0.471851
0.498741
0.5295
0.563988
0.601962
0.643088
0.68696
0.73312
0.781085
0.830369
0.880509
0.931076
0.981694
1.03204
1.08185
1.13091
1.17907
1.2262
1.27222
1.31708
1.36073
1.40317
1.4444
1.48441
1.52322
1.56086
1.59735
1.63272
1.667
1.70022
1.73243
1.76366
1.79394
1.82332
1.85183
1.87949
1.90636
1.93246
1.95781
1.98246
2.00643
2.02975
2.05244
2.07454
2.09605
2.11702
2.13746
2.15739
2.17684
2.19581
2.21434
2.23244
2.25013
2.26741
2.28431
2.30083
2.31698
2.33277
2.34821
2.36331
2.37808
2.39254
2.40668
2.42051
2.43405
2.44729
2.46025
2.47291
2.48529
2.49739
2.5092
2.52072
2.53196
2.54292
2.55358
2.56395
2.57402
2.58379
2.59326
2.60241
2.61125
2.61977
2.62797
2.63583
2.64337
2.65057
2.65743
2.66395
2.67013
2.67601
2.68161
0.861407
0.814342
0.77183
0.73326
0.698113
0.665954
0.636417
0.609191
0.584014
0.560665
0.538959
0.518737
0.499869
0.482247
0.46578
0.450397
0.43604
0.422666
0.410246
0.398762
0.388209
0.378592
0.36993
0.362255
0.355609
0.350053
0.345657
0.342512
0.340722
0.340409
0.341709
0.344772
0.349759
0.356833
0.366159
0.377891
0.392166
0.409093
0.428747
0.451159
0.476312
0.504134
0.534503
0.567246
0.602145
0.638949
0.677381
0.717149
0.75796
0.799527
0.841579
0.883868
0.926172
0.9683
1.01009
1.0514
1.09214
1.13222
1.17157
1.21015
1.24793
1.28489
1.32102
1.35632
1.39077
1.4244
1.45721
1.48921
1.5204
1.55082
1.58048
1.60939
1.63757
1.66505
1.69184
1.71797
1.74345
1.76832
1.79258
1.81626
1.83938
1.86195
1.884
1.90553
1.92657
1.94714
1.96723
1.98687
2.00607
2.02483
2.04316
2.06106
2.07855
2.09563
2.11231
2.1286
2.14451
2.16004
2.17519
2.18997
2.20438
2.21842
2.2321
2.2454
2.25833
2.27089
2.28307
2.29487
2.30629
2.31733
2.32798
2.33824
2.3481
2.35757
2.36664
2.3753
2.38357
2.39143
2.39888
2.40594
2.41264
2.41902
0.861405
0.814337
0.771831
0.733277
0.698164
0.666062
0.636607
0.60949
0.584448
0.561253
0.53971
0.519653
0.500935
0.483431
0.467033
0.451647
0.437194
0.423603
0.410816
0.398785
0.387468
0.376832
0.366852
0.357508
0.348789
0.340687
0.333204
0.326348
0.32013
0.314572
0.309702
0.305553
0.30217
0.299604
0.297915
0.29717
0.297449
0.298836
0.301424
0.305311
0.3106
0.317392
0.325787
0.335882
0.34776
0.361492
0.377132
0.394713
0.414243
0.435703
0.459048
0.484206
0.511076
0.539538
0.569448
0.600647
0.632966
0.666227
0.700254
0.734872
0.769912
0.805217
0.840643
0.876059
0.911351
0.946421
0.981184
1.01557
1.04953
1.08301
1.11597
1.14841
1.18029
1.2116
1.24234
1.2725
1.30208
1.33108
1.3595
1.38735
1.41462
1.44134
1.46749
1.4931
1.51816
1.54268
1.56668
1.59015
1.61311
1.63557
1.65754
1.67901
1.7
1.72048
1.74048
1.76
1.77903
1.7976
1.81569
1.83332
1.85049
1.86719
1.88342
1.89919
1.9145
1.92934
1.94371
1.95762
1.97105
1.98401
1.9965
2.00851
2.02005
2.03111
2.0417
2.05181
2.06146
2.07063
2.07934
2.08758
2.09542
2.10289
0.861402
0.814329
0.77182
0.733266
0.698157
0.666065
0.636627
0.609537
0.584532
0.561385
0.539902
0.519913
0.50127
0.483846
0.467525
0.45221
0.437813
0.424257
0.411474
0.399403
0.387993
0.377196
0.366972
0.357284
0.348103
0.339402
0.331157
0.323351
0.315968
0.308997
0.302429
0.296259
0.290486
0.285112
0.280141
0.275581
0.271446
0.267749
0.264512
0.261758
0.259514
0.257813
0.256693
0.256195
0.256365
0.257255
0.258919
0.261417
0.264811
0.269163
0.274539
0.281001
0.288613
0.297431
0.307508
0.318889
0.33161
0.345696
0.361161
0.378004
0.396213
0.415758
0.436597
0.458674
0.48192
0.506254
0.531586
0.557818
0.584845
0.612561
0.640857
0.669623
0.698755
0.728152
0.757717
0.787361
0.817002
0.846568
0.875992
0.905217
0.934193
0.962878
0.991235
1.01923
1.04685
1.07407
1.10087
1.12723
1.15315
1.17863
1.20364
1.22819
1.25226
1.27587
1.299
1.32163
1.34375
1.36535
1.38643
1.40699
1.42702
1.44653
1.4655
1.48394
1.50184
1.51921
1.53604
1.55233
1.56807
1.58329
1.59796
1.6121
1.62571
1.63879
1.65134
1.66338
1.6749
1.68591
1.69642
1.70644
1.71601
1.72517
0.8614
0.814321
0.77181
0.733253
0.698143
0.66605
0.636614
0.609527
0.584528
0.561391
0.53992
0.519948
0.501326
0.483926
0.467634
0.45235
0.437986
0.424462
0.411709
0.399665
0.388273
0.377484
0.367254
0.35754
0.348309
0.339526
0.331164
0.323195
0.315596
0.308347
0.301429
0.294824
0.288519
0.282502
0.27676
0.271286
0.266072
0.261113
0.256403
0.251941
0.247725
0.243758
0.24004
0.236576
0.233372
0.230436
0.227778
0.225408
0.223341
0.221593
0.220181
0.219128
0.218455
0.218189
0.218357
0.218991
0.220124
0.221791
0.22403
0.226878
0.230377
0.234566
0.239486
0.245177
0.251678
0.259025
0.267251
0.276386
0.286455
0.297478
0.309468
0.322434
0.336373
0.351279
0.367137
0.383922
0.401604
0.420143
0.439496
0.459609
0.480425
0.501883
0.523916
0.546455
0.56943
0.59277
0.616403
0.64026
0.664271
0.688372
0.7125
0.736596
0.760606
0.78448
0.808172
0.831642
0.85486
0.877788
0.900387
0.922625
0.944477
0.965927
0.986957
1.00755
1.02771
1.04741
1.06665
1.08543
1.10374
1.12158
1.13895
1.15584
1.17226
1.1882
1.20367
1.21866
1.23318
1.24724
1.26082
1.27395
1.28663
1.29889
0.861399
0.814317
0.771804
0.733245
0.698133
0.666039
0.636602
0.609515
0.584516
0.561379
0.53991
0.51994
0.501322
0.483926
0.46764
0.452363
0.438006
0.424492
0.411749
0.399716
0.388335
0.377557
0.367336
0.357631
0.348405
0.339625
0.331258
0.323279
0.315662
0.308383
0.301421
0.294758
0.288376
0.282259
0.276392
0.270762
0.265357
0.260167
0.25518
0.250389
0.245786
0.241363
0.237113
0.233033
0.229117
0.225362
0.221765
0.218323
0.215035
0.211902
0.208922
0.206098
0.203431
0.200924
0.198581
0.196407
0.194407
0.192589
0.19096
0.18953
0.188308
0.187307
0.186538
0.186017
0.185758
0.185779
0.186099
0.186737
0.187716
0.189057
0.190785
0.192925
0.195505
0.19855
0.202089
0.206149
0.210759
0.215947
0.221739
0.228162
0.235239
0.242994
0.251446
0.260612
0.270506
0.281138
0.292513
0.304633
0.317495
0.331089
0.345404
0.36042
0.376115
0.392461
0.409426
0.426973
0.445065
0.463657
0.482708
0.502171