/*--------------------------------*- C++ -*----------------------------------*\
  =========                 |
  \\      /  F ield         | OpenFOAM: The Open Source CFD Toolbox
   \\    /   O peration     | Website:  https://openfoam.org
    \\  /    A nd           | Version:  8
     \\/     M anipulation  |
\*---------------------------------------------------------------------------*/
FoamFile
{
    version     2.0;
    format      ascii;
    class       volScalarField;
    location    "600";
    object      nut;
}
// * * * * * * * * * * * * * * * * * * * * * * * * * * * * * * * * * * * * * //

dimensions      [0 2 -1 0 0 0 0];

internalField   nonuniform List<scalar> 
7320
(
0.000286299
0.000273847
0.000266049
0.000260783
0.000256941
0.000253973
0.00025158
0.000249592
0.000247905
0.000246449
0.000245176
0.000244051
0.000243048
0.000242148
0.000241334
0.000240596
0.000239922
0.000239306
0.000238739
0.000238217
0.000237735
0.000237288
0.000236874
0.000236489
0.000236131
0.000235797
0.000235485
0.000235194
0.000234922
0.000234667
0.000234429
0.000234205
0.000233996
0.0002338
0.000233616
0.000233443
0.000233282
0.00023313
0.000232988
0.000232855
0.000232731
0.000232615
0.000232506
0.000232405
0.00023231
0.000232222
0.00023214
0.000232064
0.000231994
0.00023193
0.00023187
0.000231815
0.000231765
0.00023172
0.000231679
0.000231642
0.000231609
0.00023158
0.000231555
0.000231533
0.000231514
0.000231499
0.000231487
0.000231477
0.000231471
0.000231468
0.000231467
0.000231469
0.000231473
0.00023148
0.000231489
0.0002315
0.000231514
0.000231529
0.000231547
0.000231566
0.000231588
0.000231611
0.000231637
0.000231664
0.000231692
0.000231723
0.000231754
0.000231788
0.000231823
0.000231859
0.000231897
0.000231936
0.000231976
0.000232018
0.000232061
0.000232105
0.000232151
0.000232197
0.000232245
0.000232293
0.000232343
0.000232393
0.000232445
0.000232497
0.000232551
0.000232604
0.000232659
0.000232715
0.000232771
0.000232827
0.000232884
0.000232942
0.000233
0.000233058
0.000233117
0.000233175
0.000233234
0.000233293
0.000233352
0.000233411
0.000233469
0.000233528
0.000233586
0.000233643
0.000233699
0.000233755
0.000562815
0.000740638
0.000767571
0.000767651
0.000763096
0.000757975
0.000753148
0.000748779
0.000744861
0.00074135
0.000738193
0.000735345
0.000732764
0.000730416
0.000728271
0.000726307
0.000724501
0.000722838
0.000721301
0.000719879
0.00071856
0.000717334
0.000716194
0.000715131
0.00071414
0.000713215
0.00071235
0.000711541
0.000710784
0.000710076
0.000709412
0.00070879
0.000708207
0.000707661
0.000707148
0.000706669
0.000706219
0.000705799
0.000705405
0.000705037
0.000704693
0.000704372
0.000704073
0.000703795
0.000703536
0.000703297
0.000703076
0.000702872
0.000702685
0.000702514
0.000702357
0.000702216
0.000702088
0.000701974
0.000701873
0.000701784
0.000701708
0.000701642
0.000701588
0.000701545
0.000701512
0.000701488
0.000701475
0.00070147
0.000701474
0.000701487
0.000701509
0.000701538
0.000701574
0.000701618
0.00070167
0.000701728
0.000701794
0.000701866
0.000701944
0.000702029
0.00070212
0.000702217
0.00070232
0.000702428
0.000702542
0.000702661
0.000702786
0.000702915
0.00070305
0.000703189
0.000703333
0.000703481
0.000703634
0.000703791
0.000703952
0.000704117
0.000704287
0.00070446
0.000704637
0.000704817
0.000705001
0.000705188
0.000705378
0.000705571
0.000705767
0.000705966
0.000706168
0.000706371
0.000706577
0.000706785
0.000706995
0.000707206
0.000707418
0.000707632
0.000707847
0.000708062
0.000708277
0.000708493
0.000708708
0.000708923
0.000709137
0.00070935
0.000709562
0.000709772
0.00070998
0.000710173
0.00076108
0.00115457
0.00127125
0.00130573
0.00131552
0.00131688
0.00131508
0.00131204
0.00130855
0.00130497
0.00130147
0.00129811
0.00129493
0.00129193
0.00128913
0.0012865
0.00128405
0.00128176
0.00127961
0.00127761
0.00127574
0.00127398
0.00127234
0.0012708
0.00126936
0.00126801
0.00126674
0.00126556
0.00126444
0.0012634
0.00126242
0.0012615
0.00126064
0.00125984
0.00125908
0.00125838
0.00125772
0.0012571
0.00125652
0.00125599
0.00125549
0.00125502
0.00125459
0.0012542
0.00125383
0.0012535
0.00125319
0.00125291
0.00125266
0.00125243
0.00125223
0.00125205
0.0012519
0.00125177
0.00125165
0.00125156
0.00125149
0.00125144
0.00125141
0.0012514
0.0012514
0.00125142
0.00125146
0.00125151
0.00125158
0.00125167
0.00125176
0.00125188
0.001252
0.00125214
0.00125229
0.00125245
0.00125263
0.00125282
0.00125302
0.00125323
0.00125345
0.00125368
0.00125393
0.00125418
0.00125445
0.00125472
0.001255
0.0012553
0.0012556
0.00125591
0.00125623
0.00125656
0.0012569
0.00125725
0.0012576
0.00125796
0.00125833
0.00125871
0.00125909
0.00125949
0.00125988
0.00126029
0.0012607
0.00126112
0.00126154
0.00126197
0.0012624
0.00126284
0.00126328
0.00126372
0.00126417
0.00126462
0.00126508
0.00126553
0.00126599
0.00126645
0.00126691
0.00126737
0.00126783
0.00126828
0.00126874
0.00126919
0.00126964
0.00127008
0.00127053
0.00127093
0.00094219
0.00154866
0.00180331
0.00190635
0.0019512
0.00197187
0.00198147
0.00198555
0.00198668
0.00198617
0.00198472
0.00198276
0.00198051
0.00197813
0.00197571
0.00197331
0.00197095
0.00196867
0.00196648
0.00196438
0.00196238
0.00196047
0.00195867
0.00195695
0.00195534
0.00195381
0.00195237
0.00195101
0.00194973
0.00194853
0.0019474
0.00194634
0.00194534
0.00194441
0.00194354
0.00194273
0.00194197
0.00194127
0.00194062
0.00194001
0.00193945
0.00193894
0.00193847
0.00193804
0.00193765
0.0019373
0.00193699
0.00193672
0.00193648
0.00193628
0.00193611
0.00193597
0.00193587
0.00193579
0.00193575
0.00193574
0.00193575
0.00193579
0.00193586
0.00193596
0.00193608
0.00193622
0.00193639
0.00193658
0.0019368
0.00193704
0.0019373
0.00193757
0.00193787
0.00193819
0.00193853
0.00193889
0.00193927
0.00193966
0.00194008
0.00194051
0.00194095
0.00194142
0.0019419
0.0019424
0.00194292
0.00194345
0.00194399
0.00194455
0.00194513
0.00194572
0.00194633
0.00194695
0.00194758
0.00194823
0.00194889
0.00194956
0.00195025
0.00195095
0.00195166
0.00195238
0.00195311
0.00195386
0.00195461
0.00195537
0.00195615
0.00195693
0.00195772
0.00195852
0.00195932
0.00196013
0.00196095
0.00196177
0.0019626
0.00196343
0.00196426
0.00196509
0.00196592
0.00196675
0.00196758
0.0019684
0.00196922
0.00197004
0.00197085
0.00197165
0.00197245
0.00197316
0.00110978
0.00189233
0.00232606
0.0025368
0.00264438
0.00270313
0.00273713
0.00275765
0.00277031
0.00277817
0.00278296
0.00278574
0.00278718
0.00278769
0.00278758
0.00278703
0.00278618
0.00278514
0.00278397
0.00278273
0.00278144
0.00278014
0.00277885
0.00277758
0.00277635
0.00277515
0.002774
0.0027729
0.00277186
0.00277086
0.00276993
0.00276904
0.00276822
0.00276744
0.00276672
0.00276606
0.00276544
0.00276487
0.00276436
0.00276389
0.00276346
0.00276309
0.00276275
0.00276247
0.00276222
0.00276202
0.00276186
0.00276175
0.00276167
0.00276164
0.00276164
0.00276168
0.00276176
0.00276188
0.00276204
0.00276223
0.00276246
0.00276272
0.00276301
0.00276334
0.0027637
0.0027641
0.00276452
0.00276498
0.00276546
0.00276598
0.00276652
0.0027671
0.00276769
0.00276832
0.00276897
0.00276965
0.00277035
0.00277108
0.00277183
0.00277261
0.00277341
0.00277424
0.00277509
0.00277596
0.00277686
0.00277778
0.00277872
0.00277968
0.00278067
0.00278168
0.0027827
0.00278375
0.00278482
0.00278591
0.00278702
0.00278815
0.0027893
0.00279047
0.00279165
0.00279285
0.00279407
0.0027953
0.00279655
0.00279781
0.00279909
0.00280038
0.00280169
0.002803
0.00280432
0.00280566
0.002807
0.00280834
0.00280969
0.00281105
0.00281241
0.00281376
0.00281512
0.00281647
0.00281782
0.00281916
0.0028205
0.00282182
0.00282314
0.00282443
0.00282573
0.00282688
0.00129926
0.00216764
0.00280717
0.00316585
0.00336954
0.00349116
0.00356775
0.00361825
0.00365279
0.00367709
0.00369457
0.00370734
0.00371679
0.00372385
0.00372913
0.0037331
0.00373607
0.00373829
0.00373993
0.00374111
0.00374196
0.00374253
0.0037429
0.00374312
0.00374321
0.00374322
0.00374316
0.00374306
0.00374293
0.00374278
0.00374263
0.00374247
0.00374233
0.0037422
0.00374209
0.003742
0.00374193
0.00374189
0.00374188
0.00374189
0.00374194
0.00374201
0.00374213
0.00374227
0.00374245
0.00374267
0.00374292
0.00374321
0.00374354
0.00374391
0.00374431
0.00374475
0.00374524
0.00374576
0.00374632
0.00374692
0.00374756
0.00374823
0.00374895
0.0037497
0.00375049
0.00375131
0.00375218
0.00375308
0.00375401
0.00375498
0.00375598
0.00375702
0.00375809
0.0037592
0.00376033
0.0037615
0.0037627
0.00376393
0.00376519
0.00376649
0.00376782
0.00376917
0.00377056
0.00377198
0.00377343
0.00377491
0.00377642
0.00377796
0.00377953
0.00378113
0.00378276
0.00378441
0.00378609
0.0037878
0.00378954
0.00379131
0.00379309
0.00379491
0.00379675
0.00379861
0.00380049
0.0038024
0.00380433
0.00380628
0.00380825
0.00381023
0.00381223
0.00381425
0.00381627
0.00381831
0.00382036
0.00382242
0.00382448
0.00382655
0.00382861
0.00383068
0.00383274
0.0038348
0.00383684
0.00383888
0.0038409
0.0038429
0.00384488
0.00384684
0.0038488
0.00385052
0.00158937
0.00236976
0.00321596
0.00375923
0.00409609
0.00431112
0.00445413
0.00455312
0.00462407
0.00467641
0.00471597
0.00474649
0.00477044
0.00478951
0.00480489
0.00481744
0.00482777
0.00483636
0.00484356
0.00484964
0.00485482
0.00485926
0.00486309
0.00486643
0.00486936
0.00487194
0.00487425
0.00487631
0.00487818
0.00487989
0.00488146
0.00488292
0.00488429
0.00488558
0.00488681
0.00488798
0.00488911
0.00489022
0.00489129
0.00489235
0.00489339
0.00489443
0.00489546
0.0048965
0.00489755
0.00489861
0.00489968
0.00490077
0.00490188
0.00490301
0.00490417
0.00490536
0.00490657
0.00490782
0.0049091
0.00491041
0.00491176
0.00491314
0.00491455
0.00491601
0.0049175
0.00491902
0.00492059
0.00492219
0.00492383
0.0049255
0.00492722
0.00492897
0.00493076
0.00493258
0.00493444
0.00493633
0.00493826
0.00494023
0.00494224
0.00494428
0.00494636
0.00494848
0.00495063
0.00495282
0.00495505
0.00495732
0.00495962
0.00496196
0.00496434
0.00496675
0.0049692
0.00497168
0.0049742
0.00497676
0.00497935
0.00498197
0.00498463
0.00498732
0.00499004
0.00499279
0.00499556
0.00499837
0.00500121
0.00500407
0.00500695
0.00500985
0.00501278
0.00501572
0.00501868
0.00502165
0.00502463
0.00502762
0.00503062
0.00503361
0.00503661
0.0050396
0.00504257
0.00504554
0.00504849
0.00505142
0.00505433
0.00505721
0.00506006
0.00506286
0.00506567
0.00506813
0.00212976
0.00251869
0.00352583
0.00427893
0.00478634
0.00512981
0.00536872
0.00554022
0.00566706
0.00576335
0.00583815
0.00589739
0.00594512
0.00598413
0.00601645
0.00604352
0.00606643
0.00608601
0.00610288
0.00611753
0.00613035
0.00614164
0.00615166
0.00616061
0.00616864
0.0061759
0.00618249
0.00618851
0.00619404
0.00619915
0.00620389
0.00620831
0.00621245
0.00621635
0.00622003
0.00622353
0.00622686
0.00623005
0.00623311
0.00623607
0.00623892
0.00624169
0.00624439
0.00624703
0.00624961
0.00625216
0.00625467
0.00625715
0.00625961
0.00626207
0.00626451
0.00626695
0.0062694
0.00627185
0.00627432
0.00627679
0.00627929
0.0062818
0.00628434
0.0062869
0.00628949
0.00629211
0.00629475
0.00629743
0.00630014
0.00630289
0.00630566
0.00630848
0.00631132
0.0063142
0.00631711
0.00632006
0.00632305
0.00632608
0.00632914
0.00633224
0.00633539
0.00633857
0.00634179
0.00634506
0.00634837
0.00635172
0.00635511
0.00635855
0.00636203
0.00636555
0.00636911
0.00637271
0.00637636
0.00638005
0.00638378
0.00638755
0.00639136
0.00639521
0.0063991
0.00640302
0.00640698
0.00641097
0.00641499
0.00641905
0.00642313
0.00642723
0.00643136
0.00643551
0.00643968
0.00644386
0.00644804
0.00645224
0.00645643
0.00646062
0.00646481
0.00646898
0.00647314
0.00647727
0.00648137
0.00648545
0.00648948
0.00649347
0.00649741
0.00650129
0.00650516
0.00650856
0.0031541
0.00268382
0.00372393
0.00468584
0.00539542
0.00590413
0.0062731
0.00654666
0.00675434
0.00691556
0.00704326
0.00714624
0.00723059
0.00730064
0.00735953
0.00740959
0.00745254
0.00748974
0.00752221
0.00755076
0.00757604
0.00759856
0.00761875
0.00763694
0.00765342
0.00766843
0.00768216
0.00769478
0.00770643
0.00771723
0.00772728
0.00773667
0.00774547
0.00775374
0.00776156
0.00776895
0.00777598
0.00778267
0.00778906
0.00779518
0.00780105
0.00780671
0.00781217
0.00781746
0.00782259
0.00782759
0.00783246
0.00783723
0.0078419
0.00784649
0.00785101
0.00785547
0.00785989
0.00786426
0.00786859
0.0078729
0.00787719
0.00788147
0.00788574
0.00789
0.00789426
0.00789853
0.00790281
0.0079071
0.00791141
0.00791573
0.00792007
0.00792444
0.00792883
0.00793324
0.00793767
0.00794214
0.00794663
0.00795116
0.00795572
0.00796031
0.00796494
0.00796961
0.00797432
0.00797908
0.00798387
0.00798871
0.00799359
0.00799851
0.00800348
0.0080085
0.00801356
0.00801867
0.00802383
0.00802903
0.00803428
0.00803957
0.00804491
0.00805028
0.00805571
0.00806117
0.00806667
0.00807221
0.00807778
0.00808339
0.00808902
0.00809468
0.00810037
0.00810607
0.00811179
0.00811752
0.00812326
0.00812899
0.00813472
0.00814044
0.00814614
0.00815181
0.00815745
0.00816306
0.00816862
0.00817413
0.00817958
0.00818496
0.00819027
0.00819549
0.00820067
0.00820524
0.00493181
0.00302612
0.0038337
0.00494834
0.00587406
0.00658116
0.00711649
0.00752622
0.00784508
0.00809766
0.00830115
0.00846767
0.00860586
0.00872199
0.00882068
0.0089054
0.00897879
0.0090429
0.00909931
0.0091493
0.00919387
0.00923384
0.00926988
0.00930255
0.00933229
0.0093595
0.00938449
0.00940753
0.00942886
0.00944867
0.00946714
0.00948441
0.00950061
0.00951585
0.00953022
0.00954382
0.00955671
0.00956897
0.00958065
0.0095918
0.00960247
0.00961271
0.00962255
0.00963204
0.0096412
0.00965006
0.00965865
0.009667
0.00967513
0.00968306
0.00969081
0.00969841
0.00970586
0.00971318
0.0097204
0.00972751
0.00973453
0.00974148
0.00974836
0.00975518
0.00976196
0.00976869
0.00977539
0.00978206
0.00978871
0.00979535
0.00980197
0.00980859
0.00981521
0.00982182
0.00982843
0.00983505
0.00984169
0.00984833
0.009855
0.00986169
0.0098684
0.00987513
0.0098819
0.0098887
0.00989553
0.0099024
0.00990931
0.00991626
0.00992326
0.00993029
0.00993737
0.0099445
0.00995167
0.00995888
0.00996615
0.00997345
0.00998081
0.0099882
0.00999564
0.0100031
0.0100106
0.0100182
0.0100258
0.0100334
0.0100411
0.0100487
0.0100564
0.0100641
0.0100718
0.0100795
0.0100873
0.010095
0.0101026
0.0101103
0.0101179
0.0101255
0.010133
0.0101405
0.0101479
0.0101552
0.0101624
0.0101695
0.0101765
0.0101834
0.0101902
0.0101962
0.00765447
0.00384129
0.0039599
0.0050637
0.00617752
0.00710148
0.0078361
0.00841791
0.00888249
0.00925803
0.00956562
0.00982082
0.0100351
0.0102171
0.0103732
0.0105082
0.0106262
0.0107298
0.0108217
0.0109035
0.0109768
0.0110429
0.0111028
0.0111573
0.011207
0.0112527
0.0112948
0.0113337
0.0113697
0.0114033
0.0114346
0.011464
0.0114915
0.0115174
0.0115418
0.0115649
0.0115868
0.0116076
0.0116274
0.0116462
0.0116643
0.0116815
0.0116981
0.011714
0.0117293
0.0117441
0.0117583
0.0117722
0.0117855
0.0117986
0.0118112
0.0118236
0.0118356
0.0118474
0.0118589
0.0118702
0.0118814
0.0118923
0.011903
0.0119137
0.0119241
0.0119345
0.0119447
0.0119549
0.011965
0.011975
0.0119849
0.0119947
0.0120046
0.0120143
0.012024
0.0120337
0.0120434
0.012053
0.0120626
0.0120723
0.0120819
0.0120915
0.0121011
0.0121107
0.0121203
0.01213
0.0121397
0.0121494
0.0121591
0.0121689
0.0121787
0.0121885
0.0121984
0.0122083
0.0122182
0.0122282
0.0122383
0.0122483
0.0122584
0.0122685
0.0122787
0.0122889
0.0122991
0.0123094
0.0123196
0.0123299
0.0123402
0.0123505
0.0123607
0.012371
0.0123812
0.0123914
0.0124016
0.0124117
0.0124218
0.0124318
0.0124417
0.0124515
0.0124612
0.0124707
0.0124802
0.0124894
0.0124986
0.0125075
0.0125163
0.0125241
0.0113266
0.00551803
0.00435849
0.00510578
0.00628855
0.00740978
0.00836168
0.0091471
0.00979278
0.0103264
0.0107711
0.0111453
0.0114634
0.0117362
0.0119723
0.0121782
0.0123592
0.0125193
0.0126619
0.0127896
0.0129046
0.0130086
0.0131032
0.0131896
0.0132687
0.0133415
0.0134088
0.0134711
0.0135289
0.0135829
0.0136333
0.0136805
0.0137248
0.0137666
0.013806
0.0138433
0.0138786
0.0139121
0.013944
0.0139744
0.0140034
0.0140312
0.0140577
0.0140832
0.0141078
0.0141313
0.0141541
0.0141761
0.0141973
0.0142179
0.0142378
0.0142572
0.0142761
0.0142945
0.0143124
0.0143299
0.014347
0.0143638
0.0143803
0.0143964
0.0144123
0.014428
0.0144434
0.0144586
0.0144736
0.0144884
0.0145031
0.0145176
0.014532
0.0145462
0.0145603
0.0145744
0.0145883
0.0146021
0.0146159
0.0146296
0.0146433
0.0146569
0.0146704
0.014684
0.0146975
0.0147109
0.0147244
0.0147379
0.0147514
0.0147648
0.0147783
0.0147918
0.0148053
0.0148188
0.0148323
0.0148459
0.0148595
0.0148731
0.0148867
0.0149003
0.0149139
0.0149276
0.0149413
0.0149549
0.0149686
0.0149823
0.0149959
0.0150095
0.0150231
0.0150366
0.0150501
0.0150636
0.0150769
0.0150902
0.0151033
0.0151164
0.0151293
0.015142
0.0151546
0.015167
0.0151792
0.0151912
0.015203
0.0152145
0.0152258
0.0152358
0.0157248
0.0083437
0.00547916
0.00531275
0.00627167
0.00748282
0.00862975
0.00963244
0.0104877
0.0112134
0.0118305
0.0123582
0.0128125
0.0132064
0.0135504
0.0138528
0.0141205
0.0143588
0.0145721
0.0147641
0.0149377
0.0150955
0.0152394
0.0153712
0.0154923
0.0156041
0.0157075
0.0158035
0.0158928
0.0159762
0.0160543
0.0161275
0.0161963
0.0162611
0.0163223
0.0163803
0.0164352
0.0164873
0.0165369
0.0165841
0.0166292
0.0166723
0.0167136
0.0167531
0.0167911
0.0168276
0.0168628
0.0168967
0.0169294
0.016961
0.0169917
0.0170214
0.0170502
0.0170782
0.0171054
0.017132
0.0171579
0.0171832
0.0172079
0.0172321
0.0172558
0.0172791
0.0173019
0.0173244
0.0173464
0.0173682
0.0173896
0.0174108
0.0174316
0.0174522
0.0174726
0.0174928
0.0175127
0.0175325
0.0175521
0.0175715
0.0175908
0.01761
0.017629
0.0176479
0.0176668
0.0176855
0.0177042
0.0177228
0.0177414
0.0177599
0.0177784
0.0177968
0.0178152
0.0178336
0.017852
0.0178703
0.0178886
0.0179069
0.0179252
0.0179435
0.0179617
0.01798
0.0179982
0.0180163
0.0180345
0.0180526
0.0180706
0.0180886
0.0181064
0.0181242
0.0181419
0.0181595
0.018177
0.0181943
0.0182114
0.0182284
0.0182451
0.0182616
0.0182779
0.0182939
0.0183096
0.018325
0.01834
0.0183547
0.0183692
0.0183819
0.0204365
0.0122987
0.00781877
0.0061763
0.00638132
0.00739745
0.00862145
0.00980678
0.0108762
0.0118169
0.0126375
0.0133529
0.0139782
0.0145273
0.0150118
0.0154416
0.0158248
0.0161683
0.0164775
0.0167573
0.0170115
0.0172433
0.0174556
0.0176506
0.0178304
0.0179968
0.018151
0.0182945
0.0184283
0.0185535
0.0186707
0.0187808
0.0188845
0.0189823
0.0190746
0.0191621
0.019245
0.0193238
0.0193988
0.0194702
0.0195384
0.0196036
0.0196659
0.0197257
0.0197831
0.0198382
0.0198912
0.0199423
0.0199916
0.0200392
0.0200852
0.0201298
0.0201729
0.0202148
0.0202555
0.020295
0.0203335
0.020371
0.0204076
0.0204433
0.0204783
0.0205124
0.0205459
0.0205787
0.0206108
0.0206424
0.0206735
0.020704
0.0207341
0.0207637
0.0207929
0.0208217
0.0208501
0.0208781
0.0209059
0.0209333
0.0209605
0.0209874
0.021014
0.0210404
0.0210667
0.0210927
0.0211185
0.0211442
0.0211698
0.0211952
0.0212205
0.0212456
0.0212707
0.0212957
0.0213205
0.0213453
0.02137
0.0213947
0.0214192
0.0214437
0.0214681
0.0214924
0.0215166
0.0215407
0.0215647
0.0215887
0.0216125
0.0216361
0.0216596
0.021683
0.0217062
0.0217292
0.0217519
0.0217744
0.0217967
0.0218187
0.0218403
0.0218616
0.0218826
0.0219032
0.0219233
0.0219431
0.0219623
0.021981
0.0219994
0.0220156
0.024966
0.017029
0.011559
0.0083344
0.00718515
0.00746836
0.008455
0.00967289
0.0108973
0.0120408
0.0130773
0.0140053
0.014833
0.0155712
0.0162309
0.0168222
0.0173542
0.0178345
0.01827
0.0186661
0.0190279
0.0193593
0.0196641
0.0199451
0.020205
0.0204461
0.0206704
0.0208794
0.0210748
0.0212579
0.0214297
0.0215913
0.0217436
0.0218875
0.0220236
0.0221525
0.0222749
0.0223912
0.0225019
0.0226075
0.0227083
0.0228047
0.022897
0.0229854
0.0230703
0.0231518
0.0232302
0.0233058
0.0233786
0.0234488
0.0235167
0.0235824
0.0236459
0.0237076
0.0237673
0.0238253
0.0238817
0.0239366
0.02399
0.0240421
0.024093
0.0241426
0.0241911
0.0242385
0.0242849
0.0243305
0.0243751
0.0244189
0.0244619
0.0245041
0.0245457
0.0245866
0.0246269
0.0246665
0.0247057
0.0247443
0.0247824
0.02482
0.0248572
0.0248941
0.0249305
0.0249665
0.0250023
0.0250377
0.0250728
0.0251077
0.0251423
0.0251766
0.0252108
0.0252447
0.0252784
0.0253119
0.0253452
0.0253784
0.0254114
0.0254441
0.0254768
0.0255092
0.0255414
0.0255735
0.0256053
0.025637
0.0256684
0.0256996
0.0257305
0.0257612
0.0257915
0.0258216
0.0258513
0.0258806
0.0259095
0.025938
0.0259661
0.0259936
0.0260206
0.0260471
0.026073
0.0260982
0.0261228
0.0261466
0.0261699
0.0261906
0.0288721
0.0219727
0.0163572
0.0121026
0.00944208
0.00839318
0.00856599
0.00943681
0.0106072
0.0118514
0.0130626
0.0141965
0.0152393
0.0161903
0.0170549
0.0178406
0.0185555
0.0192071
0.0198026
0.0203481
0.0208492
0.0213109
0.0217373
0.0221321
0.0224988
0.02284
0.0231583
0.0234559
0.0237347
0.0239965
0.0242428
0.0244748
0.0246939
0.0249011
0.0250973
0.0252835
0.0254604
0.0256287
0.0257891
0.0259421
0.0260883
0.0262282
0.0263621
0.0264905
0.0266138
0.0267322
0.0268462
0.0269559
0.0270617
0.0271638
0.0272623
0.0273576
0.0274499
0.0275392
0.0276258
0.0277098
0.0277914
0.0278707
0.0279478
0.0280229
0.028096
0.0281674
0.028237
0.028305
0.0283715
0.0284365
0.0285002
0.0285625
0.0286237
0.0286836
0.0287425
0.0288003
0.0288571
0.028913
0.0289679
0.0290221
0.0290754
0.029128
0.0291798
0.029231
0.0292815
0.0293314
0.0293808
0.0294296
0.0294779
0.0295257
0.029573
0.02962
0.0296665
0.0297126
0.0297583
0.0298037
0.0298487
0.0298933
0.0299377
0.0299817
0.0300253
0.0300687
0.0301117
0.0301544
0.0301967
0.0302386
0.0302802
0.0303214
0.0303621
0.0304024
0.0304423
0.0304817
0.0305205
0.0305588
0.0305964
0.0306335
0.0306698
0.0307055
0.0307404
0.0307745
0.0308077
0.0308401
0.0308716
0.030902
0.0309317
0.0309581
0.0318859
0.0265354
0.0215162
0.0170871
0.0134893
0.0110289
0.00983786
0.0097379
0.0103766
0.011418
0.0126294
0.0138773
0.0150935
0.0162465
0.0173241
0.0183239
0.0192482
0.0201018
0.0208901
0.0216189
0.0222936
0.0229193
0.0235006
0.0240417
0.0245463
0.025018
0.0254596
0.0258738
0.0262631
0.0266295
0.0269751
0.0273015
0.0276103
0.0279028
0.0281804
0.0284441
0.0286951
0.0289341
0.0291622
0.02938
0.0295883
0.0297877
0.0299788
0.0301621
0.0303382
0.0305076
0.0306705
0.0308275
0.0309788
0.0311249
0.0312659
0.0314023
0.0315343
0.0316621
0.0317859
0.031906
0.0320226
0.0321358
0.0322459
0.032353
0.0324573
0.0325588
0.0326579
0.0327545
0.0328489
0.032941
0.0330311
0.0331193
0.0332056
0.0332902
0.0333731
0.0334544
0.0335342
0.0336124
0.0336894
0.033765
0.0338394
0.0339125
0.0339846
0.0340556
0.0341256
0.0341946
0.0342627
0.0343299
0.0343962
0.0344618
0.0345266
0.0345907
0.0346541
0.0347168
0.0347789
0.0348404
0.0349013
0.0349615
0.0350213
0.0350804
0.035139
0.035197
0.0352545
0.0353114
0.0353678
0.0354235
0.0354786
0.0355332
0.035587
0.0356402
0.0356927
0.0357444
0.0357953
0.0358454
0.0358946
0.0359429
0.0359902
0.0360365
0.0360818
0.0361259
0.0361688
0.0362105
0.0362509
0.03629
0.0363279
0.0363618
0.0339568
0.0302574
0.0262964
0.0224018
0.0187493
0.0155657
0.0131348
0.01166
0.0111401
0.0113925
0.0121663
0.0132379
0.014448
0.0156984
0.0169334
0.0181236
0.0192549
0.0203216
0.0213231
0.0222613
0.0231394
0.0239613
0.0247308
0.0254521
0.0261288
0.0267645
0.0273626
0.0279259
0.0284573
0.0289593
0.0294341
0.0298838
0.0303103
0.0307154
0.0311005
0.0314672
0.0318167
0.0321502
0.0324688
0.0327735
0.0330652
0.0333448
0.0336131
0.0338707
0.0341184
0.0343567
0.0345862
0.0348073
0.0350207
0.0352268
0.0354258
0.0356183
0.0358047
0.0359851
0.0361599
0.0363295
0.0364942
0.036654
0.0368094
0.0369605
0.0371076
0.0372508
0.0373903
0.0375264
0.0376591
0.0377887
0.0379153
0.0380391
0.0381601
0.0382786
0.0383946
0.0385082
0.0386196
0.0387288
0.038836
0.0389411
0.0390445
0.039146
0.0392459
0.0393441
0.0394408
0.0395359
0.0396297
0.0397221
0.0398132
0.0399031
0.0399917
0.0400793
0.0401657
0.0402511
0.0403354
0.0404188
0.0405012
0.0405827
0.0406632
0.0407429
0.0408216
0.0408995
0.0409765
0.0410526
0.0411278
0.041202
0.0412754
0.0413478
0.0414191
0.0414895
0.0415588
0.041627
0.041694
0.0417598
0.0418243
0.0418876
0.0419494
0.0420098
0.0420687
0.042126
0.0421816
0.0422356
0.0422879
0.0423382
0.0423869
0.0424308
0.0352156
0.0329264
0.0301548
0.0271692
0.0241079
0.0210828
0.0182539
0.0158401
0.0140585
0.0130304
0.012737
0.0130508
0.0138009
0.0148263
0.0160022
0.0172434
0.018496
0.0197278
0.0209204
0.0220639
0.0231539
0.024189
0.0251702
0.026099
0.026978
0.0278099
0.0285976
0.0293438
0.0300512
0.0307225
0.03136
0.0319661
0.0325428
0.0330922
0.033616
0.0341159
0.0345934
0.0350501
0.0354873
0.0359061
0.0363078
0.0366934
0.0370638
0.03742
0.0377628
0.0380929
0.0384112
0.0387183
0.0390148
0.0393013
0.0395783
0.0398463
0.0401058
0.0403573
0.0406011
0.0408376
0.0410673
0.0412903
0.0415071
0.041718
0.0419232
0.042123
0.0423177
0.0425074
0.0426925
0.0428731
0.0430495
0.0432218
0.0433902
0.043555
0.0437162
0.043874
0.0440286
0.04418
0.0443285
0.0444741
0.044617
0.0447573
0.0448951
0.0450305
0.0451636
0.0452945
0.0454232
0.04555
0.0456748
0.0457978
0.0459189
0.0460383
0.0461561
0.0462722
0.0463868
0.0464999
0.0466115
0.0467216
0.0468304
0.0469377
0.0470437
0.0471484
0.0472516
0.0473535
0.0474541
0.0475533
0.047651
0.0477473
0.0478422
0.0479355
0.0480273
0.0481175
0.048206
0.0482928
0.0483777
0.0484608
0.048542
0.0486211
0.0486981
0.0487729
0.0488455
0.0489158
0.0489836
0.0490489
0.049112
0.0491691
0.0358864
0.034593
0.0328633
0.0308401
0.0286213
0.0262674
0.0238358
0.0214144
0.0191386
0.0171788
0.0156958
0.0147878
0.0144645
0.0146594
0.0152639
0.0161609
0.0172464
0.01844
0.0196844
0.0209414
0.0221859
0.0234025
0.0245816
0.025718
0.0268092
0.0278544
0.0288541
0.0298095
0.0307221
0.0315937
0.0324264
0.033222
0.0339826
0.0347102
0.0354065
0.0360733
0.0367123
0.0373251
0.0379132
0.038478
0.0390209
0.039543
0.0400456
0.0405296
0.0409962
0.0414463
0.0418808
0.0423005
0.0427063
0.0430987
0.0434785
0.0438464
0.0442029
0.0445486
0.0448839
0.0452095
0.0455258
0.0458332
0.0461321
0.0464229
0.046706
0.0469817
0.0472503
0.0475122
0.0477677
0.048017
0.0482604
0.0484982
0.0487305
0.0489578
0.04918
0.0493975
0.0496105
0.0498191
0.0500235
0.0502239
0.0504203
0.050613
0.0508022
0.0509879
0.0511703
0.0513496
0.0515258
0.0516991
0.0518696
0.0520373
0.0522024
0.052365
0.0525251
0.0526828
0.0528383
0.0529915
0.0531425
0.0532913
0.0534381
0.0535828
0.0537254
0.0538661
0.0540047
0.0541413
0.0542759
0.0544085
0.054539
0.0546674
0.0547937
0.0549178
0.0550397
0.0551592
0.0552764
0.0553912
0.0555034
0.0556129
0.0557198
0.0558238
0.055925
0.0560232
0.0561183
0.0562102
0.0562989
0.0563841
0.0564663
0.0565413
0.0361963
0.0354884
0.0345011
0.0332718
0.0318469
0.0302605
0.0285351
0.0266917
0.024764
0.0228124
0.0209309
0.0192398
0.0178631
0.0168966
0.0163857
0.0163216
0.0166534
0.0173069
0.0182017
0.0192644
0.020434
0.0216643
0.0229216
0.0241827
0.0254314
0.0266568
0.0278519
0.0290122
0.0301354
0.0312202
0.0322664
0.0332744
0.0342451
0.0351794
0.0360787
0.0369442
0.0377774
0.0385797
0.0393525
0.0400972
0.0408152
0.0415077
0.0421759
0.0428211
0.0434443
0.0440468
0.0446294
0.0451932
0.0457391
0.0462679
0.0467804
0.0472774
0.0477597
0.0482278
0.0486825
0.0491244
0.049554
0.0499718
0.0503785
0.0507744
0.05116
0.0515358
0.0519022
0.0522595
0.0526082
0.0529485
0.0532809
0.0536057
0.0539231
0.0542335
0.0545371
0.0548343
0.0551252
0.0554101
0.0556892
0.0559628
0.056231
0.056494
0.056752
0.0570052
0.0572538
0.0574979
0.0577378
0.0579735
0.0582053
0.0584331
0.0586573
0.0588777
0.0590947
0.0593083
0.0595186
0.0597256
0.0599295
0.0601302
0.060328
0.0605227
0.0607145
0.0609034
0.0610893
0.0612724
0.0614525
0.0616297
0.061804
0.0619753
0.0621435
0.0623087
0.0624706
0.0626294
0.0627848
0.0629367
0.0630852
0.06323
0.0633711
0.0635084
0.0636417
0.0637709
0.063896
0.0640168
0.0641332
0.0642451
0.0643528
0.0644519
0.0363185
0.0358964
0.035342
0.0346443
0.0338099
0.0328502
0.0317745
0.0305881
0.0292942
0.0278982
0.0264145
0.0248739
0.0233287
0.0218531
0.0205352
0.0194615
0.0187
0.018288
0.0182293
0.0184992
0.0190539
0.0198402
0.0208041
0.0218958
0.0230737
0.0243048
0.0255638
0.0268321
0.0280964
0.0293469
0.0305765
0.0317805
0.0329556
0.0340999
0.0352121
0.0362918
0.0373391
0.0383544
0.0393381
0.0402911
0.0412142
0.0421084
0.0429746
0.0438139
0.0446272
0.0454158
0.0461805
0.0469223
0.0476422
0.0483411
0.0490198
0.0496792
0.0503201
0.0509433
0.0515494
0.0521393
0.0527136
0.0532729
0.0538178
0.0543489
0.0548668
0.0553719
0.0558647
0.0563458
0.0568155
0.0572744
0.0577228
0.0581611
0.0585897
0.059009
0.0594194
0.059821
0.0602144
0.0605997
0.0609773
0.0613474
0.0617103
0.0620661
0.0624153
0.0627578
0.0630939
0.063424
0.0637482
0.0640668
0.0643798
0.0646875
0.06499
0.0652875
0.0655801
0.0658679
0.066151
0.0664296
0.0667038
0.0669736
0.0672391
0.0675004
0.0677575
0.0680105
0.0682593
0.0685041
0.0687447
0.0689812
0.0692136
0.0694418
0.0696657
0.0698852
0.0701004
0.070311
0.0705171
0.0707185
0.070915
0.0711065
0.071293
0.0714743
0.0716502
0.0718207
0.0719855
0.0721447
0.072298
0.0724453
0.0725871
0.0727187
0.0363591
0.0360515
0.0357024
0.0352937
0.0348163
0.0342669
0.0336458
0.0329534
0.032189
0.0313505
0.0304344
0.0294384
0.0283636
0.0272185
0.0260225
0.0248094
0.0236274
0.0225355
0.0215963
0.0208663
0.020387
0.0201807
0.0202495
0.0205783
0.0211397
0.021899
0.0228189
0.0238634
0.0249997
0.0262001
0.027442
0.0287077
0.0299834
0.0312589
0.0325261
0.0337793
0.0350139
0.0362266
0.0374152
0.038578
0.039714
0.0408228
0.0419042
0.0429584
0.0439857
0.0449864
0.0459611
0.0469105
0.0478351
0.0487358
0.0496131
0.0504678
0.0513007
0.0521126
0.0529041
0.053676
0.0544289
0.0551635
0.0558805
0.0565804
0.0572638
0.0579314
0.0585836
0.0592211
0.0598442
0.0604536
0.0610496
0.0616329
0.0622037
0.0627625
0.0633098
0.063846
0.0643713
0.0648861
0.0653909
0.0658859
0.0663714
0.0668477
0.0673152
0.067774
0.0682245
0.0686667
0.069101
0.0695278
0.0699471
0.0703593
0.0707644
0.0711628
0.0715545
0.0719397
0.0723185
0.0726911
0.0730576
0.0734181
0.0737727
0.0741215
0.0744645
0.0748018
0.0751333
0.0754592
0.0757794
0.0760939
0.0764026
0.0767056
0.0770027
0.0772938
0.0775789
0.0778578
0.0781305
0.0783967
0.0786564
0.0789094
0.0791556
0.0793948
0.0796269
0.0798517
0.0800691
0.0802789
0.0804811
0.0806755
0.0808625
0.0810377
0.0363702
0.0360998
0.0358287
0.035546
0.0352425
0.0349115
0.0345487
0.0341513