/*--------------------------------*- C++ -*----------------------------------*\
  =========                 |
  \\      /  F ield         | OpenFOAM: The Open Source CFD Toolbox
   \\    /   O peration     | Website:  https://openfoam.org
    \\  /    A nd           | Version:  8
     \\/     M anipulation  |
\*---------------------------------------------------------------------------*/
FoamFile
{
    version     2.0;
    format      ascii;
    class       volScalarField;
    location    "600";
    object      p;
}
// * * * * * * * * * * * * * * * * * * * * * * * * * * * * * * * * * * * * * //

dimensions      [0 2 -2 0 0 0 0];

internalField   nonuniform List<scalar> 
7320
(
160.205
154.349
152.439
150.654
148.945
147.249
145.585
143.961
142.369
140.803
139.259
137.735
136.23
134.741
133.267
131.807
130.36
128.924
127.5
126.085
124.681
123.285
121.899
120.52
119.149
117.786
116.429
115.079
113.736
112.399
111.067
109.741
108.421
107.106
105.796
104.49
103.189
101.893
100.601
99.313
98.0293
96.7494
95.4734
94.201
92.9323
91.667
90.4051
89.1465
87.8911
86.6388
85.3895
84.1432
82.8998
81.6591
80.4212
79.1859
77.9532
76.723
75.4953
74.27
73.0469
71.8261
70.6076
69.3911
68.1768
66.9644
65.7541
64.5456
63.339
62.1342
60.9312
59.7299
58.5302
57.3321
56.1356
54.9406
53.747
52.5548
51.364
50.1745
48.9862
47.7991
46.6132
45.4284
44.2447
43.0619
41.8801
40.6992
39.5191
38.3398
37.1613
35.9833
34.806
33.6292
32.4529
31.277
30.1015
28.9262
27.7511
26.5761
25.4012
24.2263
23.0512
21.876
20.7005
19.5247
18.3484
17.1716
15.9943
14.8163
13.6376
12.458
11.2776
10.0962
8.91378
7.73027
6.54558
5.35968
4.17242
2.98427
1.79328
0.615138
159.407
154.336
152.439
150.654
148.945
147.25
145.586
143.961
142.369
140.803
139.259
137.736
136.23
134.741
133.267
131.807
130.36
128.924
127.5
126.085
124.681
123.285
121.899
120.52
119.149
117.786
116.429
115.079
113.736
112.399
111.067
109.741
108.421
107.106
105.796
104.49
103.189
101.893
100.601
99.3131
98.0293
96.7494
95.4734
94.201
92.9323
91.667
90.4051
89.1465
87.8911
86.6388
85.3895
84.1432
82.8998
81.6591
80.4212
79.1859
77.9532
76.723
75.4953
74.27
73.0469
71.8262
70.6076
69.3911
68.1768
66.9644
65.7541
64.5456
63.339
62.1342
60.9312
59.7299
58.5302
57.3321
56.1356
54.9406
53.747
52.5548
51.364
50.1745
48.9862
47.7991
46.6132
45.4284
44.2447
43.0619
41.8801
40.6992
39.5191
38.3398
37.1613
35.9833
34.806
33.6292
32.4529
31.277
30.1015
28.9262
27.7511
26.5761
25.4012
24.2263
23.0512
21.876
20.7005
19.5247
18.3484
17.1716
15.9943
14.8163
13.6376
12.458
11.2776
10.0962
8.91377
7.73026
6.54557
5.35968
4.17242
2.98427
1.79328
0.615136
159.202
154.341
152.44
150.655
148.946
147.25
145.586
143.962
142.37
140.803
139.259
137.736
136.23
134.741
133.267
131.807
130.36
128.924
127.5
126.085
124.681
123.286
121.899
120.52
119.149
117.786
116.429
115.079
113.736
112.399
111.067
109.741
108.421
107.106
105.796
104.49
103.189
101.893
100.601
99.3131
98.0293
96.7494
95.4734
94.201
92.9323
91.667
90.4051
89.1465
87.8911
86.6388
85.3895
84.1432
82.8998
81.6591
80.4212
79.1859
77.9532
76.723
75.4953
74.27
73.0469
71.8262
70.6076
69.3911
68.1768
66.9644
65.7541
64.5456
63.339
62.1342
60.9312
59.7299
58.5302
57.3321
56.1356
54.9406
53.747
52.5548
51.364
50.1745
48.9862
47.7991
46.6132
45.4284
44.2447
43.0619
41.8801
40.6992
39.5191
38.3398
37.1612
35.9833
34.806
33.6292
32.4529
31.277
30.1015
28.9262
27.7511
26.5761
25.4012
24.2263
23.0512
21.876
20.7005
19.5246
18.3484
17.1716
15.9943
14.8163
13.6376
12.458
11.2776
10.0962
8.91377
7.73026
6.54557
5.35967
4.17241
2.98426
1.79327
0.615132
159.188
154.348
152.442
150.656
148.946
147.25
145.586
143.962
142.37
140.804
139.26
137.736
136.23
134.741
133.267
131.807
130.36
128.924
127.5
126.085
124.681
123.286
121.899
120.52
119.149
117.786
116.429
115.08
113.736
112.399
111.067
109.742
108.421
107.106
105.796
104.49
103.189
101.893
100.601
99.3131
98.0293
96.7495
95.4734
94.2011
92.9323
91.667
90.4051
89.1465
87.8911
86.6388
85.3895
84.1432
82.8998
81.6591
80.4212
79.1859
77.9532
76.723
75.4953
74.27
73.0469
71.8262
70.6076
69.3911
68.1768
66.9644
65.7541
64.5456
63.339
62.1342
60.9312
59.7299
58.5302
57.3321
56.1356
54.9406
53.747
52.5548
51.364
50.1745
48.9862
47.7991
46.6132
45.4284
44.2447
43.0619
41.8801
40.6992
39.5191
38.3398
37.1612
35.9833
34.806
33.6292
32.4529
31.277
30.1015
28.9262
27.7511
26.5761
25.4012
24.2263
23.0512
21.876
20.7005
19.5246
18.3484
17.1716
15.9943
14.8163
13.6375
12.458
11.2776
10.0962
8.91376
7.73025
6.54556
5.35966
4.17241
2.98426
1.79327
0.615128
159.161
154.352
152.444
150.657
148.947
147.251
145.587
143.962
142.37
140.804
139.26
137.736
136.231
134.742
133.268
131.807
130.36
128.924
127.5
126.086
124.681
123.286
121.899
120.52
119.149
117.786
116.429
115.08
113.736
112.399
111.067
109.742
108.421
107.106
105.796
104.49
103.189
101.893
100.601
99.3131
98.0293
96.7495
95.4734
94.2011
92.9323
91.667
90.4051
89.1465
87.8911
86.6388
85.3895
84.1432
82.8998
81.6591
80.4212
79.1859
77.9532
76.7231
75.4953
74.27
73.0469
71.8262
70.6076
69.3911
68.1768
66.9644
65.7541
64.5456
63.339
62.1342
60.9312
59.7299
58.5302
57.3321
56.1356
54.9405
53.747
52.5548
51.364
50.1744
48.9862
47.7991
46.6132
45.4284
44.2447
43.0619
41.8801
40.6992
39.5191
38.3398
37.1612
35.9833
34.806
33.6292
32.4529
31.277
30.1015
28.9262
27.7511
26.5761
25.4012
24.2262
23.0512
21.876
20.7005
19.5246
18.3484
17.1716
15.9943
14.8163
13.6375
12.458
11.2776
10.0962
8.91375
7.73024
6.54555
5.35965
4.1724
2.98425
1.79326
0.615123
159.119
154.357
152.446
150.659
148.948
147.252
145.587
143.963
142.371
140.804
139.26
137.736
136.231
134.742
133.268
131.808
130.36
128.925
127.5
126.086
124.681
123.286
121.899
120.52
119.149
117.786
116.429
115.08
113.736
112.399
111.067
109.742
108.421
107.106
105.796
104.49
103.189
101.893
100.601
99.3132
98.0294
96.7495
95.4735
94.2011
92.9323
91.667
90.4051
89.1465
87.8911
86.6388
85.3896
84.1432
82.8998
81.6591
80.4212
79.1859
77.9532
76.7231
75.4953
74.27
73.0469
71.8262
70.6076
69.3911
68.1768
66.9645
65.7541
64.5456
63.339
62.1342
60.9312
59.7299
58.5302
57.3321
56.1356
54.9405
53.747
52.5548
51.364
50.1744
48.9862
47.7991
46.6132
45.4284
44.2447
43.0619
41.8801
40.6992
39.5191
38.3398
37.1612
35.9833
34.806
33.6292
32.4529
31.277
30.1014
28.9262
27.7511
26.5761
25.4012
24.2262
23.0512
21.876
20.7005
19.5246
18.3484
17.1716
15.9943
14.8163
13.6375
12.458
11.2776
10.0962
8.91374
7.73023
6.54554
5.35964
4.17239
2.98424
1.79325
0.615117
159.084
154.362
152.449
150.661
148.95
147.253
145.588
143.964
142.371
140.805
139.261
137.737
136.231
134.742
133.268
131.808
130.36
128.925
127.5
126.086
124.681
123.286
121.899
120.52
119.15
117.786
116.43
115.08
113.736
112.399
111.068
109.742
108.421
107.106
105.796
104.49
103.189
101.893
100.601
99.3132
98.0294
96.7495
95.4735
94.2011
92.9324
91.6671
90.4052
89.1465
87.8911
86.6388
85.3896
84.1433
82.8998
81.6592
80.4212
79.186
77.9533
76.7231
75.4953
74.27
73.047
71.8262
70.6076
69.3912
68.1768
66.9645
65.7541
64.5456
63.339
62.1342
60.9312
59.7299
58.5302
57.3321
56.1356
54.9405
53.747
52.5548
51.364
50.1744
48.9862
47.7991
46.6132
45.4284
44.2447
43.0619
41.8801
40.6992
39.5191
38.3398
37.1612
35.9833
34.806
33.6292
32.4529
31.277
30.1014
28.9261
27.7511
26.5761
25.4012
24.2262
23.0512
21.8759
20.7004
19.5246
18.3483
17.1716
15.9942
14.8163
13.6375
12.458
11.2775
10.0962
8.91373
7.73022
6.54553
5.35963
4.17237
2.98422
1.79324
0.615108
159.056
154.367
152.452
150.663
148.951
147.254
145.589
143.964
142.372
140.805
139.261
137.737
136.232
134.742
133.268
131.808
130.361
128.925
127.5
126.086
124.682
123.286
121.899
120.521
119.15
117.786
116.43
115.08
113.736
112.399
111.068
109.742
108.421
107.106
105.796
104.49
103.189
101.893
100.601
99.3132
98.0295
96.7496
95.4735
94.2012
92.9324
91.6671
90.4052
89.1466
87.8912
86.6389
85.3896
84.1433
82.8998
81.6592
80.4213
79.186
77.9533
76.7231
75.4954
74.27
73.047
71.8262
70.6076
69.3912
68.1768
66.9645
65.7541
64.5456
63.339
62.1342
60.9312
59.7299
58.5302
57.3321
56.1356
54.9405
53.747
52.5548
51.364
50.1744
48.9862
47.7991
46.6132
45.4284
44.2446
43.0619
41.8801
40.6992
39.5191
38.3398
37.1612
35.9833
34.806
33.6292
32.4529
31.277
30.1014
28.9261
27.751
26.5761
25.4012
24.2262
23.0512
21.8759
20.7004
19.5246
18.3483
17.1716
15.9942
14.8162
13.6375
12.458
11.2775
10.0961
8.91371
7.7302
6.54551
5.35961
4.17236
2.98421
1.79322
0.615098
159.034
154.373
152.454
150.665
148.953
147.256
145.59
143.965
142.373
140.806
139.262
137.738
136.232
134.743
133.269
131.808
130.361
128.925
127.501
126.086
124.682
123.286
121.899
120.521
119.15
117.786
116.43
115.08
113.737
112.399
111.068
109.742
108.421
107.106
105.796
104.49
103.19
101.893
100.601
99.3133
98.0295
96.7497
95.4736
94.2012
92.9324
91.6671
90.4052
89.1466
87.8912
86.6389
85.3896
84.1433
82.8999
81.6592
80.4213
79.186
77.9533
76.7231
75.4954
74.27
73.047
71.8262
70.6076
69.3912
68.1768
66.9645
65.7541
64.5456
63.339
62.1343
60.9312
59.7299
58.5302
57.3321
56.1356
54.9405
53.747
52.5548
51.364
50.1744
48.9862
47.7991
46.6132
45.4284
44.2446
43.0619
41.8801
40.6992
39.5191
38.3398
37.1612
35.9833
34.806
33.6292
32.4529
31.277
30.1014
28.9261
27.751
26.5761
25.4011
24.2262
23.0511
21.8759
20.7004
19.5246
18.3483
17.1716
15.9942
14.8162
13.6375
12.4579
11.2775
10.0961
8.91369
7.73018
6.54549
5.3596
4.17234
2.98419
1.7932
0.615084
159.014
154.38
152.457
150.668
148.955
147.257
145.592
143.967
142.374
140.807
139.262
137.738
136.233
134.743
133.269
131.809
130.361
128.926
127.501
126.087
124.682
123.287
121.9
120.521
119.15
117.787
116.43
115.08
113.737
112.399
111.068
109.742
108.422
107.106
105.796
104.49
103.19
101.893
100.601
99.3134
98.0296
96.7497
95.4737
94.2013
92.9325
91.6672
90.4053
89.1467
87.8912
86.6389
85.3897
84.1433
82.8999
81.6592
80.4213
79.186
77.9533
76.7231
75.4954
74.27
73.047
71.8262
70.6076
69.3912
68.1768
66.9645
65.7541
64.5457
63.3391
62.1343
60.9312
59.7299
58.5302
57.3321
56.1356
54.9405
53.747
52.5548
51.364
50.1744
48.9862
47.7991
46.6132
45.4284
44.2446
43.0619
41.8801
40.6991
39.5191
38.3398
37.1612
35.9833
34.8059
33.6292
32.4529
31.277
30.1014
28.9261
27.751
26.576
25.4011
24.2262
23.0511
21.8759
20.7004
19.5246
18.3483
17.1715
15.9942
14.8162
13.6375
12.4579
11.2775
10.0961
8.91367
7.73016
6.54547
5.35958
4.17232
2.98417
1.79318
0.615066
158.994
154.388
152.459
150.67
148.958
147.259
145.594
143.968
142.375
140.808
139.263
137.739
136.233
134.744
133.27
131.809
130.362
128.926
127.501
126.087
124.682
123.287
121.9
120.521
119.15
117.787
116.43
115.08
113.737
112.4
111.068
109.742
108.422
107.106
105.796
104.491
103.19
101.893
100.601
99.3135
98.0297
96.7498
95.4738
94.2014
92.9326
91.6673
90.4054
89.1467
87.8913
86.639
85.3897
84.1434
82.8999
81.6593
80.4214
79.1861
77.9534
76.7232
75.4954
74.2701
73.047
71.8262
70.6077
69.3912
68.1768
66.9645
65.7541
64.5457
63.3391
62.1343
60.9312
59.7299
58.5302
57.3321
56.1356
54.9405
53.747
52.5548
51.3639
50.1744
48.9862
47.7991
46.6132
45.4284
44.2446
43.0619
41.8801
40.6991
39.5191
38.3398
37.1612
35.9833
34.8059
33.6291
32.4528
31.2769
30.1014
28.9261
27.751
26.576
25.4011
24.2262
23.0511
21.8759
20.7004
19.5245
18.3483
17.1715
15.9942
14.8162
13.6374
12.4579
11.2775
10.0961
8.91365
7.73014
6.54545
5.35955
4.17229
2.98415
1.79316
0.615043
158.971
154.397
152.461
150.672
148.96
147.262
145.595
143.97
142.376
140.809
139.265
137.74
136.234
134.745
133.271
131.81
130.362
128.927
127.502
126.087
124.683
123.287
121.9
120.522
119.151
117.787
116.431
115.081
113.737
112.4
111.068
109.742
108.422
107.107
105.796
104.491
103.19
101.894
100.602
99.3136
98.0298
96.7499
95.4739
94.2015
92.9327
91.6674
90.4055
89.1468
87.8914
86.6391
85.3898
84.1435
82.9
81.6593
80.4214
79.1861
77.9534
76.7232
75.4955
74.2701
73.0471
71.8263
70.6077
69.3912
68.1769
66.9645
65.7542
64.5457
63.3391
62.1343
60.9312
59.7299
58.5302
57.3321
56.1356
54.9405
53.747
52.5548
51.364
50.1744
48.9862
47.7991
46.6132
45.4284
44.2446
43.0619
41.88
40.6991
39.519
38.3397
37.1612
35.9832
34.8059
33.6291
32.4528
31.2769
30.1014
28.9261
27.751
26.576
25.4011
24.2261
23.0511
21.8758
20.7003
19.5245
18.3482
17.1715
15.9941
14.8161
13.6374
12.4579
11.2774
10.096
8.91362
7.73011
6.54542
5.35952
4.17227
2.98412
1.79313
0.615012
158.944
154.408
152.462
150.674
148.962
147.264
145.598
143.972
142.378
140.811
139.266
137.741
136.235
134.746
133.271
131.811
130.363
128.927
127.503
126.088
124.683
123.288
121.901
120.522
119.151
117.787
116.431
115.081
113.737
112.4
111.069
109.743
108.422
107.107
105.797
104.491
103.19
101.894
100.602
99.3138
98.03
96.7501
95.474
94.2016
92.9328
91.6675
90.4056
89.1469
87.8915
86.6392
85.3899
84.1436
82.9001
81.6594
80.4215
79.1862
77.9535
76.7233
75.4955
74.2702
73.0471
71.8263
70.6077
69.3913
68.1769
66.9646
65.7542
64.5457
63.3391
62.1343
60.9313
59.7299
58.5302
57.3321
56.1356
54.9406
53.747
52.5548
51.364
50.1744
48.9862
47.7991
46.6132
45.4284
44.2446
43.0618
41.88
40.6991
39.519
38.3397
37.1611
35.9832
34.8059
33.6291
32.4528
31.2769
30.1013
28.926
27.751
26.576
25.4011
24.2261
23.0511
21.8758
20.7003
19.5245
18.3482
17.1715
15.9941
14.8161
13.6374
12.4578
11.2774
10.096
8.91359
7.73008
6.54539
5.35949
4.17223
2.98408
1.7931
0.61497
158.914
154.42
152.464
150.676
148.964
147.266
145.6
143.974
142.38
140.812
139.267
137.743
136.237
134.747
133.272
131.812
130.364
128.928
127.503
126.089
124.684
123.288
121.901
120.523
119.152
117.788
116.431
115.081
113.738
112.4
111.069
109.743
108.422
107.107
105.797
104.491
103.19
101.894
100.602
99.314
98.0302
96.7503
95.4742
94.2018
92.933
91.6676
90.4057
89.1471
87.8916
86.6393
85.39
84.1437
82.9002
81.6595
80.4216
79.1863
77.9536
76.7233
75.4956
74.2702
73.0472
71.8264
70.6078
69.3913
68.1769
66.9646
65.7542
64.5458
63.3391
62.1343
60.9313
59.7299
58.5302
57.3322
56.1356
54.9406
53.747
52.5548
51.364
50.1744
48.9862
47.7991
46.6132
45.4284
44.2446
43.0618
41.88
40.6991
39.519
38.3397
37.1611
35.9832
34.8059
33.6291
32.4528
31.2769
30.1013
28.926
27.7509
26.576
25.401
24.2261
23.051
21.8758
20.7003
19.5245
18.3482
17.1714
15.9941
14.8161
13.6373
12.4578
11.2774
10.096
8.91355
7.73004
6.54535
5.35945
4.17219
2.98404
1.79306
0.614914
158.878
154.433
152.465
150.677
148.965
147.268
145.602
143.976
142.382
140.814
139.269
137.744
136.238
134.748
133.274
131.813
130.365
128.929
127.504
126.09
124.685
123.289
121.902
120.523
119.152
117.789
116.432
115.082
113.738
112.401
111.069
109.743
108.423
107.108
105.797
104.492
103.191
101.894
100.602
99.3143
98.0304
96.7505
95.4744
94.202
92.9332
91.6678
90.4059
89.1472
87.8918
86.6395
85.3902
84.1438
82.9003
81.6596
80.4217
79.1864
77.9537
76.7235
75.4957
74.2703
73.0473
71.8265
70.6079
69.3914
68.177
66.9647
65.7543
64.5458
63.3392
62.1344
60.9313
59.73
58.5303
57.3322
56.1356
54.9406
53.747
52.5548
51.364
50.1744
48.9862
47.7991
46.6132
45.4284
44.2446
43.0618
41.88
40.6991
39.519
38.3397
37.1611
35.9832
34.8059
33.6291
32.4528
31.2769
30.1013
28.926
27.7509
26.5759
25.401
24.2261
23.051
21.8758
20.7003
19.5244
18.3482
17.1714
15.9941
14.816
13.6373
12.4578
11.2773
10.0959
8.91351
7.73
6.54531
5.35941
4.17215
2.984
1.79302
0.614837
158.837
154.45
152.466
150.678
148.966
147.269
145.603
143.977
142.384
140.816
139.271
137.746
136.24
134.75
133.275
131.814
130.366
128.93
127.505
126.091
124.686
123.29
121.903
120.524
119.153
117.789
116.433
115.083
113.739
112.401
111.07
109.744
108.423
107.108
105.798
104.492
103.191
101.895
100.603
99.3146
98.0308
96.7508
95.4747
94.2023
92.9335
91.6681
90.4061
89.1475
87.892
86.6397
85.3904
84.144
82.9005
81.6598
80.4219
79.1865
77.9538
76.7236
75.4958
74.2704
73.0474
71.8266
70.608
69.3915
68.1771
66.9647
65.7544
64.5459
63.3393
62.1345
60.9314
59.73
58.5303
57.3322
56.1357
54.9406
53.747
52.5548
51.364
50.1745
48.9862
47.7991
46.6132
45.4284
44.2446
43.0619
41.88
40.6991
39.519
38.3397
37.1611
35.9832
34.8059
33.6291
32.4528
31.2769
30.1013
28.926
27.7509
26.5759
25.401
24.226
23.051
21.8757
20.7002
19.5244
18.3481
17.1714
15.994
14.816
13.6373
12.4577
11.2773
10.0959
8.91347
7.72995
6.54526
5.35936
4.1721
2.98395
1.79297
0.614731
158.789
154.469
152.467
150.679
148.967
147.27
145.604
143.979
142.386
140.818
139.273
137.748
136.242
134.752
133.277
131.816
130.368
128.932
127.507
126.092
124.687
123.291
121.904
120.525
119.154
117.79
116.433
115.083
113.74
112.402
111.071
109.745
108.424
107.109
105.798
104.493
103.192
101.895
100.603
99.3151
98.0312
96.7512
95.4751
94.2026
92.9338
91.6684
90.4065
89.1478
87.8923
86.6399
85.3906
84.1442
82.9007
81.66
80.4221
79.1867
77.954
76.7238
75.496
74.2706
73.0475
71.8267
70.6081
69.3916
68.1772
66.9649
65.7545
64.546
63.3394
62.1345
60.9315
59.7301
58.5304
57.3323
56.1358
54.9407
53.7471
52.5549
51.3641
50.1745
48.9862
47.7992
46.6132
45.4284
44.2447
43.0619
41.8801
40.6991
39.519
38.3397
37.1611
35.9832
34.8059
33.6291
32.4528
31.2768
30.1013
28.926
27.7509
26.5759
25.401
24.226
23.051
21.8757
20.7002
19.5244
18.3481
17.1713
15.994
14.816
13.6372
12.4577
11.2772
10.0959
8.91342
7.7299
6.54521
5.35931
4.17205
2.98389
1.79291
0.614585
158.734
154.491
152.468
150.68
148.968
147.27
145.605
143.98
142.387
140.819
139.274
137.75
136.243
134.753
133.279
131.818
130.369
128.933
127.508
126.093
124.688
123.292
121.905
120.526
119.155
117.791
116.434
115.084
113.741
112.403
111.071
109.745
108.425
107.109
105.799
104.493
103.192
101.896
100.604
99.3156
98.0317
96.7517
95.4756
94.2031
92.9342
91.6688
90.4069
89.1482
87.8927
86.6403
85.391
84.1446
82.9011
81.6603
80.4223
79.187
77.9543
76.724
75.4962
74.2708
73.0477
71.8269
70.6083
69.3918
68.1774
66.965
65.7546
64.5461
63.3395
62.1347
60.9316
59.7302
58.5305
57.3324
56.1359
54.9408
53.7472
52.555
51.3641
50.1746
48.9863
47.7992
46.6133
45.4285
44.2447
43.0619
41.8801
40.6992
39.5191
38.3397
37.1612
35.9832
34.8059
33.6291
32.4528
31.2769
30.1013
28.926
27.7509
26.5759
25.401
24.226
23.0509
21.8757
20.7002
19.5243
18.3481
17.1713
15.9939
14.8159
13.6372
12.4576
11.2772
10.0958
8.91338
7.72986
6.54516
5.35926
4.172
2.98383
1.79286
0.614383
158.67
154.518
152.47
150.681
148.969
147.271
145.605
143.98
142.387
140.82
139.275
137.751
136.245
134.755
133.28
131.819
130.371
128.935
127.51
126.095
124.69
123.294
121.907
120.528
119.156
117.792
116.436
115.085
113.742
112.404
111.072
109.746
108.426
107.11
105.8
104.494
103.193
101.896
100.604
99.3163
98.0324
96.7523
95.4762
94.2037
92.9348
91.6694
90.4074
89.1486
87.8931
86.6407
85.3914
84.145
82.9014
81.6607
80.4227
79.1874
77.9546
76.7243
75.4966
74.2711
73.048
71.8272
70.6086
69.3921
68.1777
66.9653
65.7549
64.5464
63.3397
62.1349
60.9318
59.7304
58.5307
57.3326
56.136
54.9409
53.7473
52.5551
51.3643
50.1747
48.9864
47.7993
46.6134
45.4286
44.2448
43.062
41.8802
40.6992
39.5191
38.3398
37.1612
35.9833
34.8059
33.6291
32.4528
31.2769
30.1013
28.926
27.7509
26.5759
25.401
24.226
23.0509
21.8757
20.7002
19.5243
18.3481
17.1713
15.9939
14.8159
13.6372
12.4576
11.2772
10.0958
8.91333
7.72981
6.54511
5.35921
4.17195
2.98377
1.7928
0.614102
158.596
154.548
152.471
150.683
148.97
147.272
145.606
143.981
142.388
140.82
139.276
137.752
136.246
134.756
133.282
131.821
130.373
128.937
127.511
126.097
124.691
123.295
121.908
120.529
119.158
117.794
116.437
115.087
113.743
112.405
111.074
109.747
108.427
107.111
105.801
104.495
103.194
101.897
100.605
99.3171
98.0332
96.7531
95.4769
94.2044
92.9355
91.67
90.408
89.1493
87.8937
86.6413
85.3919
84.1455
82.902
81.6612
80.4232
79.1878
77.955
76.7248
75.497
74.2715
73.0484
71.8276
70.6089
69.3924
68.178
66.9656
65.7552
64.5466
63.34
62.1351
60.9321
59.7307
58.5309
57.3328
56.1362
54.9412
53.7475
52.5553
51.3644
50.1749
48.9866
47.7995
46.6135
45.4287
44.2449
43.0621
41.8803
40.6993
39.5192
38.3399
37.1613
35.9834
34.806
33.6292
32.4529
31.2769
30.1014
28.926
27.7509
26.5759
25.401
24.226
23.051
21.8757
20.7002
19.5243
18.3481
17.1713
15.9939
14.8159
13.6372
12.4576
11.2771
10.0957
8.91331
7.72978
6.54508
5.35917
4.1719
2.98371
1.79275
0.613709
158.512
154.583
152.473
150.684
148.972
147.273
145.607
143.981
142.388
140.821
139.276
137.752
136.246
134.757
133.282
131.822
130.374
128.938
127.513
126.098
124.693
123.297
121.91
120.531
119.159
117.795
116.438
115.088
113.744
112.407
111.075
109.749
108.428
107.112
105.802
104.496
103.195
101.898
100.606
99.3181
98.0341
96.7541
95.4778
94.2053
92.9363
91.6709
90.4088
89.15
87.8945
86.642
85.3926
84.1462
82.9026
81.6619
80.4238
79.1884
77.9556
76.7253
75.4975
74.272
73.0489
71.828
70.6094
69.3929
68.1784
66.966
65.7556
64.547
63.3404
62.1355
60.9324
59.731
58.5313
57.3331
56.1365
54.9414
53.7478
52.5556
51.3647
50.1751
48.9868
47.7997
46.6138
45.4289
44.2451
43.0623
41.8805
40.6995
39.5194
38.3401
37.1614
35.9835
34.8061
33.6293
32.453
31.2771
30.1015
28.9261
27.751
26.576
25.4011
24.2261
23.051
21.8758
20.7002
19.5244
18.3481
17.1713
15.994
14.8159
13.6372
12.4576
11.2772
10.0957
8.9133
7.72977
6.54506
5.35915
4.17187
2.98367
1.79272
0.613162
158.417
154.623
152.475
150.686
148.974
147.274
145.608
143.982
142.389
140.821
139.277
137.752
136.246
134.757
133.282
131.822
130.374
128.938
127.513
126.099
124.694
123.298
121.911
120.532
119.161
117.797
116.44
115.09
113.746
112.408
111.076
109.75
108.429
107.114
105.803
104.497
103.196
101.9
100.607
99.3193
98.0353
96.7552
95.4789
94.2064
92.9374
91.6719
90.4098
89.151
87.8954
86.6429
85.3935
84.147
82.9035
81.6627
80.4246
79.1892
77.9564
76.726
75.4982
74.2727
73.0496
71.8287
70.61
69.3934
68.179
66.9666
65.7561
64.5476
63.3409
62.136
60.9329
59.7315
58.5317
57.3335
56.1369
54.9418
53.7482
52.5559
51.3651
50.1755
48.9872
47.8
46.6141
45.4292
44.2454
43.0626
41.8807
40.6998
39.5196
38.3403
37.1617
35.9837
34.8063
33.6295
32.4532
31.2772
30.1016
28.9263
27.7512
26.5762
25.4012
24.2262
23.0511
21.8759
20.7004
19.5245
18.3482
17.1714
15.994
14.816
13.6372
12.4577
11.2772
10.0958
8.91333
7.72979
6.54508
5.35916
4.17188
2.98365
1.7927
0.612401
158.311
154.667
152.478
150.688
148.976
147.276
145.609
143.983
142.389
140.822
139.277
137.753
136.247
134.757
133.283
131.822
130.374
128.938
127.514
126.099
124.694
123.299
121.912
120.533
119.162
117.798
116.441
115.091
113.747
112.41
111.078
109.752
108.431
107.115
105.805
104.499
103.198
101.901
100.609
99.3207
98.0366
96.7565
95.4802
94.2076
92.9386
91.6731
90.411
89.1522
87.8965
86.644
85.3946
84.1481
82.9045
81.6637
80.4256
79.1901
77.9573
76.7269
75.4991
74.2736
73.0504
71.8295
70.6108
69.3942
68.1797
66.9673
65.7568
64.5482
63.3415
62.1366
60.9335
59.7321
58.5323
57.3341
56.1375
54.9424
53.7487
52.5565
51.3656
50.176
48.9876
47.8005
46.6145
45.4296
44.2458
43.063
41.8811
40.7001
39.52
38.3406
37.162
35.984
34.8067
33.6298
32.4535
31.2775
30.1019
28.9266
27.7514
26.5764
25.4014
24.2265
23.0514
21.8761
20.7005
19.5247
18.3484
17.1716
15.9942
14.8161
13.6374
12.4578
11.2773
10.0959
8.91342
7.72987
6.54515
5.35922
4.17193
2.98366
1.79273
0.611347
158.194
154.714
152.481
150.69
148.979
147.278
145.61
143.984
142.39
140.823
139.278
137.753
136.247
134.757
133.283
131.822
130.375
128.939
127.514
126.099
124.695
123.299
121.912
120.533
119.162
117.798
116.442
115.092
113.748
112.411
111.079
109.753
108.432
107.117
105.806
104.5
103.199
101.903
100.61
99.3222
98.0381
96.758
95.4817
94.209
92.94
91.6745
90.4123
89.1535
87.8979
86.6453
85.3959
84.1493
82.9057
81.6648
80.4267
79.1913
77.9584
76.728
75.5001
74.2746
73.0514
71.8305
70.6118
69.3952
68.1807
66.9682
65.7577
64.5491
63.3424
62.1375
60.9343
59.7329
58.5331
57.3349
56.1382
54.9431
53.7494
52.5571
51.3662
50.1766
48.9883
47.8011
46.6151
45.4302
44.2464
43.0636
41.8817
40.7007
39.5205
38.3411
37.1625
35.9845
34.8071
33.6303
32.4539
31.2779
30.1023
28.927
27.7518
26.5768
25.4018
24.2268
23.0517
21.8764
20.7008
19.525
18.3486
17.1718
15.9944
14.8164
13.6376
12.458
11.2775
10.0961
8.9136
7.73004
6.54531
5.35936
4.17206
2.98374
1.7928
0.609899
158.067
154.764
152.485
150.692
148.982
147.28
145.612
143.985
142.391
140.824
139.279
137.754
136.248
134.758
133.283
131.823
130.375
128.939
127.514
126.1
124.695
123.299
121.912
120.533
119.162
117.799
116.442
115.092
113.748
112.411
111.079
109.753
108.433
107.117
105.807
104.501
103.2
101.904
100.612
99.3236
98.0396
96.7595
95.4832
94.2106
92.9415
91.676
90.4138
89.155
87.8993
86.6468
85.3973
84.1508
82.9071
81.6662
80.4281
79.1926
77.9597
76.7293
75.5014
74.2759
73.0527
71.8317
70.613
69.3964
68.1818
66.9693
65.7588
64.5502
63.3435
62.1385
60.9354
59.7339
58.5341
57.3359
56.1392
54.9441
53.7504
52.5581
51.3671
50.1775
48.9891
47.8019
46.6159
45.431
44.2472
43.0643
41.8824
40.7014
39.5212
38.3418
37.1632
35.9852
34.8078
33.6309
32.4545
31.2785
30.1029
28.9275
27.7524
26.5773
25.4023
24.2273
23.0522
21.8769
20.7013
19.5254
18.3491
17.1722
15.9948
14.8168
13.638
12.4583
11.2778
10.0964
8.9139
7.73032
6.54557
5.35961
4.17229
2.98391
1.79295
0.607936
157.933
154.815
152.49
150.693
148.985
147.283
145.614
143.987
142.393
140.825
139.28
137.755
136.249
134.759
133.284
131.823
130.375
128.939
127.514
126.1
124.695
123.299
121.912
120.533
119.162
117.799
116.442
115.092
113.748
112.411
111.079
109.753
108.433
107.117
105.807
104.502
103.201
101.904
100.612
99.3241
98.0403
96.7603
95.4841
94.2116
92.9427
91.6773
90.4152
89.1564
87.9008
86.6483
85.3989
84.1523
82.9087
81.6678
80.4296
79.1941
77.9612
76.7308
75.5029
74.2773
73.0541
71.8331
70.6144
69.3978
68.1832
66.9707
65.7602
64.5515
63.3448
62.1398
60.9366
59.7352
58.5353
57.3371
56.1404
54.9452
53.7515
52.5592
51.3682
50.1786
48.9902
47.803
46.617
45.4321
44.2482
43.0653
41.8834
40.7024
39.5222
38.3428
37.1641
35.9861
34.8086
33.6318
32.4554
31.2794
30.1037
28.9283
27.7531
26.5781
25.4031
24.228
23.0529
21.8775
20.702
19.526
18.3497
17.1728
15.9954
14.8173
13.6385
12.4589
11.2783
10.0969
8.91437
7.73077
6.546
5.36001
4.17267
2.98421
1.7932
0.605322
157.799
154.865
152.496
150.694
148.988
147.285
145.616
143.988
142.394
140.826
139.281
137.756
136.249
134.76
133.285
131.824
130.376
128.94
127.515
126.1
124.696
123.3
121.913
120.534
119.163
117.799
116.442
115.092
113.749
112.411
111.08
109.754
108.433
107.118
105.807
104.502
103.201
101.904
100.612
99.3242
98.0403
96.7604
95.4842
94.2118
92.9429
91.6776
90.4156
89.1569
87.9014
86.6491
85.3997
84.1533
82.9098
81.669
80.431
79.1956
77.9627
76.7324
75.5045
74.279
73.0557
71.8348
70.616
69.3994
68.1848
66.9723
65.7617
64.5531
63.3463
62.1413
60.9381
59.7366
58.5368
57.3385
56.1418
54.9466
53.7529
52.5606
51.3696
50.1799
48.9915
47.8043
46.6183
45.4334
44.2495
43.0666
41.8847
40.7036
39.5234
38.344
37.1653
35.9872
34.8098
33.6329
32.4565
31.2804
30.1048
28.9294
27.7542
26.5791
25.404
24.229
23.0538
21.8785
20.7029
19.5269
18.3505
17.1737
15.9962
14.8181
13.6393
12.4596
11.2791
10.0976
8.91503
7.73141
6.54661
5.3606
4.17324
2.98468
1.79357
0.601938
157.671
154.91
152.503
150.695
148.991
147.288
145.617
143.99
142.395
140.827
139.282
137.757
136.25
134.76
133.286
131.825
130.377
128.941
127.516
126.101
124.696
123.3
121.913
120.534
119.163
117.799
116.443
115.093
113.749
112.411
111.08
109.754
108.433
107.118
105.807
104.502
103.201
101.904
100.612
99.3243
98.0404
96.7604
95.4843
94.2119
92.943
91.6776
90.4156
89.157
87.9015
86.6491
85.3998
84.1534
82.9099
81.6692
80.4312
79.1959
77.9631
76.7329
75.5051
74.2797
73.0566
71.8357
70.6171
69.4006
68.1861
66.9737
65.7632
64.5547
63.3479
62.143
60.9398
59.7383
58.5385
57.3403
56.1436
54.9484
53.7546
52.5623
51.3713
50.1816
48.9932
47.8059
46.6199
45.4349
44.251
43.0681
41.8861
40.7051
39.5248
38.3454
37.1667
35.9886
34.8112
33.6343
32.4578
31.2818
30.1061
28.9307
27.7554
26.5803
25.4053
24.2302
23.055
21.8797
20.704
19.528
18.3517
17.1748
15.9973
14.8191
13.6403
12.4606
11.28
10.0985
8.91593
7.73228
6.54746
5.36141
4.17402
2.98536
1.79409
0.597762
157.563
154.946
152.51
150.695
148.994
147.29
145.619
143.991
142.397
140.828
139.283
137.758
136.251
134.761
133.286
131.825
130.377
128.941
127.516
126.101
124.696
123.301
121.914
120.535
119.163
117.8
116.443
115.093
113.749
112.412
111.08
109.754
108.433
107.118
105.808
104.502
103.201
101.905
100.612
99.3245
98.0406
96.7606
95.4844
94.212
92.9431
91.6777
90.4157
89.157
87.9016
86.6492
85.3999
84.1535
82.91
81.6692
80.4312
79.1959
77.9631
76.7329
75.5051
74.2797
73.0566
71.8358
70.6171
69.4007
68.1863
66.9739
65.7635
64.555
63.3483
62.1435
60.9404
59.739
58.5393
57.3412
56.1446
54.9495
53.7559
52.5636
51.3727
50.1831
48.9948
47.8076
46.6216
45.4367
44.2528
43.0699
41.888
40.7069
39.5267
38.3472
37.1685
35.9904
34.813
33.636
32.4596
31.2835
30.1078
28.9323
27.7571
26.5819
25.4068
24.2317
23.0565
21.8811
20.7054
19.5294
18.353
17.1761
15.9986
14.8204
13.6415
12.4618
11.2812
10.0996
8.91705
7.73337
6.54852
5.36245
4.17503
2.98626
1.79477
0.593106
157.495
154.968
152.515
150.695
148.996
147.291
145.62
143.992
142.397
140.829
139.283
137.758
136.252
134.762
133.287
131.826
130.378
128.942
127.516
126.102
124.697
123.301
121.914
120.535
119.164
117.8
116.443
115.093
113.749
112.412
111.08
109.754
108.434
107.118
105.808
104.502
103.201
101.905
100.613
99.3246
98.0407
96.7607
95.4846
94.2121
92.9432
91.6779
90.4159
89.1572
87.9017
86.6493
85.3999
84.1535
82.91
81.6693
80.4313
79.196
77.9632
76.733
75.5052
74.2798
73.0567
71.8358
70.6172
69.4007
68.1863
66.9739
65.7635
64.555
63.3484
62.1435
60.9404
59.739
58.5393
57.3412
56.1446
54.9495
53.7559
52.5637
51.3728
50.1833
48.995
47.8079
46.6219
45.4371
44.2532
43.0704
41.8886
40.7076
39.5275
38.3481
37.1694
35.9914
34.814
33.6372
32.4607
31.2847
30.1091
28.9337
27.7585
26.5834
25.4083
24.2332
23.058
21.8826
20.707
19.531
18.3545
17.1776
16.0001
14.8219
13.643
12.4633
11.2826
10.1011
8.91846
7.73475
6.54987
5.36377
4.17632
2.98746
1.79576
0.58948
157.495
154.968
152.515
150.695
148.996
147.291
145.62
143.992
142.397
140.829
139.283
137.758
136.252
134.762
133.287
131.826
130.378
128.942
127.516
126.102
124.697
123.301
121.914
120.535
119.164
117.8
116.443
115.093
113.749
112.412
111.08
109.754
108.434
107.118
105.808
104.502
103.201
101.905
100.613
99.3246
98.0407
96.7607
95.4846
94.2121
92.9432
91.6779
90.4159
89.1572
87.9017
86.6493
85.3999
84.1535
82.91
81.6693
80.4313
79.196
77.9632
76.733
75.5052
74.2798
73.0567
71.8358
70.6172
69.4007
68.1863