/*--------------------------------*- C++ -*----------------------------------*\
  =========                 |
  \\      /  F ield         | OpenFOAM: The Open Source CFD Toolbox
   \\    /   O peration     | Website:  https://openfoam.org
    \\  /    A nd           | Version:  8
     \\/     M anipulation  |
\*---------------------------------------------------------------------------*/
FoamFile
{
    version     2.0;
    format      ascii;
    class       surfaceScalarField;
    location    "600";
    object      phi;
}
// * * * * * * * * * * * * * * * * * * * * * * * * * * * * * * * * * * * * * //

dimensions      [0 3 -1 0 0 0 0];

internalField   nonuniform List<scalar> 
14458
(
0.00222126
0.00139905
0.00205682
0.000164437
0.00198942
6.74049e-05
0.00194726
4.21622e-05
0.00191671
3.05481e-05
0.00189296
2.37488e-05
0.00187368
1.92773e-05
0.00185758
1.61013e-05
0.00184386
1.37265e-05
0.00183197
1.18878e-05
0.00182154
1.04253e-05
0.00181231
9.23511e-06
0.00180406
8.24867e-06
0.00179664
7.41858e-06
0.00178993
6.71121e-06
0.00178383
6.10149e-06
0.00177826
5.57102e-06
0.00177315
5.10559e-06
0.00176846
4.6946e-06
0.00176413
4.32862e-06
0.00176013
4.00112e-06
0.00175643
3.70646e-06
0.00175299
3.44041e-06
0.00174979
3.19859e-06
0.00174681
2.97822e-06
0.00174403
2.77661e-06
0.00174144
2.59223e-06
0.00173902
2.42189e-06
0.00173676
2.26468e-06
0.00173464
2.11913e-06
0.00173265
1.98457e-06
0.00173079
1.85896e-06
0.00172905
1.74192e-06
0.00172742
1.63255e-06
0.00172589
1.53116e-06
0.00172445
1.43515e-06
0.00172311
1.345e-06
0.00172185
1.26008e-06
0.00172067
1.18075e-06
0.00171957
1.10514e-06
0.00171853
1.0337e-06
0.00171757
9.65982e-07
0.00171666
9.03132e-07
0.00171582
8.42163e-07
0.00171504
7.8431e-07
0.00171431
7.29174e-07
0.00171363
6.77667e-07
0.001713
6.27608e-07
0.00171242
5.79966e-07
0.00171189
5.34369e-07
0.0017114
4.9254e-07
0.00171095
4.50875e-07
0.00171054
4.11132e-07
0.00171016
3.72941e-07
0.00170983
3.37622e-07
0.00170952
3.02526e-07
0.00170926
2.69002e-07
0.00170902
2.36663e-07
0.00170881
2.07705e-07
0.00170863
1.7784e-07
0.00170848
1.49273e-07
0.00170836
1.21601e-07
0.00170827
9.64619e-08
0.0017082
7.07893e-08
0.00170815
4.6229e-08
0.00170813
2.23476e-08
0.00170813
1.68372e-09
0.00170815
-2.05826e-08
0.00170819
-4.18755e-08
0.00170825
-6.2667e-08
0.00170833
-8.10569e-08
0.00170843
-1.00521e-07
0.00170855
-1.19136e-07
0.00170869
-1.37385e-07
0.00170884
-1.52405e-07
0.00170901
-1.69529e-07
0.0017092
-1.85899e-07
0.0017094
-2.02024e-07
0.00170961
-2.15808e-07
0.00170985
-2.30982e-07
0.00171009
-2.45457e-07
0.00171035
-2.59766e-07
0.00171062
-2.70835e-07
0.00171091
-2.8431e-07
0.0017112
-2.97151e-07
0.00171151
-3.0991e-07
0.00171183
-3.20326e-07
0.00171216
-3.32346e-07
0.00171251
-3.43749e-07
0.00171286
-3.55098e-07
0.00171322
-3.6314e-07
0.0017136
-3.73769e-07
0.00171398
-3.83802e-07
0.00171437
-3.93815e-07
0.00171478
-4.01481e-07
0.00171519
-4.10776e-07
0.00171561
-4.19438e-07
0.00171603
-4.28057e-07
0.00171647
-4.33424e-07
0.00171691
-4.41219e-07
0.00171736
-4.48364e-07
0.00171781
-4.55437e-07
0.00171827
-4.60156e-07
0.00171874
-4.66293e-07
0.00171921
-4.71696e-07
0.00171968
-4.7692e-07
0.00172016
-4.79182e-07
0.00172064
-4.83246e-07
0.00172113
-4.8654e-07
0.00172162
-4.89554e-07
0.00172211
-4.90582e-07
0.0017226
-4.92273e-07
0.00172309
-4.93135e-07
0.00172358
-4.93551e-07
0.00172407
-4.9226e-07
0.00172456
-4.91161e-07
0.00172505
-4.89283e-07
0.00172554
-4.8662e-07
0.00172602
-4.83281e-07
0.00172649
-4.72642e-07
0.00172695
-4.65751e-07
-2.44532e-07
0.00311152
0.00259572
0.00288393
0.000392019
0.00278399
0.000167352
0.00272314
0.000103006
0.0026798
7.38918e-05
0.0026464
5.71461e-05
0.00261943
4.62492e-05
0.00259697
3.8558e-05
0.00257787
3.28293e-05
0.00256135
2.84055e-05
0.00254689
2.48933e-05
0.00253408
2.20394e-05
0.00252265
1.96769e-05
0.00251238
1.76905e-05
0.00250309
1.5999e-05
0.00249465
1.4542e-05
0.00248695
1.32751e-05
0.00247989
1.2164e-05
0.0024734
1.1183e-05
0.00246742
1.03099e-05
0.00246189
9.5289e-06
0.00245677
8.82643e-06
0.00245202
8.19206e-06
0.00244761
7.61585e-06
0.00244349
7.09082e-06
0.00243966
6.61061e-06
0.00243608
6.17101e-06
0.00243274
5.76545e-06
0.00242961
5.39117e-06
0.00242669
5.04475e-06
0.00242395
4.72413e-06
0.00242138
4.42527e-06
0.00241898
4.1468e-06
0.00241672
3.88665e-06
0.00241461
3.64473e-06
0.00241263
3.41643e-06
0.00241077
3.20205e-06
0.00240903
3.0002e-06
0.0024074
2.81109e-06
0.00240588
2.63144e-06
0.00240445
2.4617e-06
0.00240311
2.30087e-06
0.00240187
2.15057e-06
0.0024007
2.00587e-06
0.00239962
1.86852e-06
0.00239861
1.73775e-06
0.00239767
1.61482e-06
0.0023968
1.49617e-06
0.002396
1.38319e-06
0.00239526
1.27518e-06
0.00239458
1.17475e-06
0.00239395
1.07614e-06
0.00239338
9.82e-07
0.00239286
8.91682e-07
0.00239239
8.07172e-07
0.00239197
7.24246e-07
0.0023916
6.44934e-07
0.00239126
5.68574e-07
0.00239097
4.9857e-07
0.00239072
4.28124e-07
0.00239051
3.60635e-07
0.00239034
2.95431e-07
0.0023902
2.35037e-07
0.0023901
1.74612e-07
0.00239003
1.16671e-07
0.00238999
6.05042e-08
0.00238998
1.00847e-08
0.00239
-4.22127e-08
0.00239005
-9.23892e-08
0.00239013
-1.4118e-07
0.00239024
-1.85636e-07
0.00239037
-2.31228e-07
0.00239052
-2.75003e-07
0.0023907
-3.17732e-07
0.0023909
-3.549e-07
0.00239113
-3.94906e-07
0.00239138
-4.33324e-07
0.00239165
-4.70952e-07
0.00239194
-5.04509e-07
0.00239224
-5.39844e-07
0.00239257
-5.73751e-07
0.00239292
-6.07065e-07
0.00239328
-6.34927e-07
0.00239367
-6.6622e-07
0.00239406
-6.96236e-07
0.00239448
-7.25828e-07
0.00239491
-7.51437e-07
0.00239536
-7.7925e-07
0.00239582
-8.05844e-07
0.0023963
-8.32095e-07
0.00239679
-8.52843e-07
0.00239729
-8.77355e-07
0.00239781
-9.0069e-07
0.00239834
-9.23733e-07
0.00239888
-9.42809e-07
0.00239943
-9.64136e-07
0.00239999
-9.84219e-07
0.00240057
-1.00398e-06
0.00240115
-1.0183e-06
0.00240175
-1.0361e-06
0.00240235
-1.05261e-06
0.00240297
-1.0687e-06
0.00240359
-1.08075e-06
0.00240421
-1.09464e-06
0.00240485
-1.10706e-06
0.00240549
-1.11885e-06
0.00240614
-1.12554e-06
0.00240679
-1.13464e-06
0.00240744
-1.14214e-06
0.0024081
-1.14878e-06
0.00240876
-1.15182e-06
0.00240943
-1.15543e-06
0.00241009
-1.15729e-06
0.00241075
-1.15797e-06
0.00241141
-1.15541e-06
0.00241208
-1.15267e-06
0.00241273
-1.14828e-06
0.00241339
-1.14191e-06
0.00241404
-1.13409e-06
0.00241467
-1.10825e-06
0.0024153
-1.09717e-06
-5.71128e-07
0.00403426
0.00368821
0.00373892
0.000687361
0.00360103
0.000305244
0.00351841
0.000185629
0.00346051
0.000131792
0.00341635
0.000101302
0.00338092
8.16804e-05
0.00335155
6.79327e-05
0.00332663
5.77425e-05
0.00330514
4.98999e-05
0.00328634
4.36887e-05
0.00326973
3.86516e-05
0.00325492
3.44879e-05
0.00324162
3.09915e-05
0.0032296
2.80169e-05
0.00321869
2.5457e-05
0.00320873
2.32326e-05
0.00319961
2.1283e-05
0.00319123
1.95622e-05
0.00318351
1.80319e-05
0.00317637
1.66634e-05
0.00316977
1.5433e-05
0.00316364
1.43221e-05
0.00315794
1.33135e-05
0.00315264
1.23947e-05
0.00314769
1.15547e-05
0.00314308
1.07853e-05
0.00313877
1.00761e-05
0.00313474
9.4218e-06
0.00313097
8.81631e-06
0.00312744
8.25565e-06
0.00312413
7.73348e-06
0.00312103
7.24701e-06
0.00311812
6.79263e-06
0.0031154
6.36938e-06
0.00311284
5.97077e-06
0.00311045
5.5965e-06
0.0031082
5.24421e-06
0.0031061
4.91363e-06
0.00310413
4.6002e-06
0.00310229
4.30409e-06
0.00310057
4.02363e-06
0.00309896
3.76047e-06
0.00309746
3.50825e-06
0.00309606
3.26887e-06
0.00309475
3.04105e-06
0.00309354
2.82616e-06
0.00309242
2.61958e-06
0.00309138
2.42285e-06
0.00309042
2.23488e-06
0.00308954
2.05877e-06
0.00308872
1.88726e-06
0.00308798
1.72351e-06
0.00308731
1.56652e-06
0.0030867
1.41867e-06
0.00308615
1.27462e-06
0.00308565
1.1368e-06
0.00308522
1.00422e-06
0.00308484
8.81054e-07
0.00308451
7.5884e-07
0.00308423
6.41697e-07
0.00308399
5.28649e-07
0.0030838
4.22818e-07
0.00308366
3.18143e-07
0.00308356
2.17692e-07
0.0030835
1.2044e-07
0.00308348
3.13184e-08
0.0030835
-5.91513e-08
0.00308355
-1.46069e-07
0.00308364
-2.30431e-07
0.00308376
-3.08565e-07
0.00308392
-3.87288e-07
0.00308411
-4.62982e-07
0.00308432
-5.36736e-07
0.00308457
-6.02902e-07
0.00308485
-6.71847e-07
0.00308515
-7.38166e-07
0.00308549
-8.02966e-07
0.00308584
-8.62117e-07
0.00308623
-9.22882e-07
0.00308663
-9.81317e-07
0.00308707
-1.03859e-06
0.00308752
-1.08861e-06
0.003088
-1.14232e-06
0.00308849
-1.19396e-06
0.00308901
-1.2447e-06
0.00308955
-1.29006e-06
0.00309011
-1.33767e-06
0.00309069
-1.38334e-06
0.00309128
-1.42828e-06
0.0030919
-1.46598e-06
0.00309253
-1.50785e-06
0.00309317
-1.54785e-06
0.00309384
-1.58717e-06
0.00309451
-1.62115e-06
0.00309521
-1.65747e-06
0.00309591
-1.69182e-06
0.00309664
-1.72545e-06
0.00309737
-1.75191e-06
0.00309812
-1.78214e-06
0.00309887
-1.81032e-06
0.00309964
-1.83758e-06
0.00310042
-1.85934e-06
0.00310121
-1.88283e-06
0.003102
-1.90395e-06
0.00310281
-1.92383e-06
0.00310362
-1.93684e-06
0.00310444
-1.95212e-06
0.00310526
-1.96482e-06
0.00310609
-1.97588e-06
0.00310692
-1.98182e-06
0.00310775
-1.98773e-06
0.00310858
-1.99078e-06
0.00310941
-1.99172e-06
0.00311025
-1.98796e-06
0.00311108
-1.98314e-06
0.0031119
-1.97554e-06
0.00311273
-1.96453e-06
0.00311354
-1.95124e-06
0.00311434
-1.90583e-06
0.00311513
-1.88989e-06
-9.79347e-07
0.00509521
0.00469385
0.00472975
0.00105283
0.00454516
0.00048983
0.00443475
0.000296043
0.00435841
0.000208123
0.00430083
0.000158889
0.00425496
0.000127547
0.00421713
0.000105763
0.00418516
8.97084e-05
0.00415766
7.74025e-05
0.00413366
6.76862e-05
0.00411249
5.98254e-05
0.00409364
5.33399e-05
0.00407673
4.79024e-05
0.00406146
4.32821e-05
0.00404761
3.93102e-05
0.00403498
3.5862e-05
0.00402342
3.28423e-05
0.00401281
3.01785e-05
0.00400303
2.78112e-05
0.00399399
2.56954e-05
0.00398563
2.37941e-05
0.00397788
2.20779e-05
0.00397067
2.05206e-05
0.00396396
1.91025e-05
0.00395771
1.78062e-05
0.00395188
1.6619e-05
0.00394643
1.55254e-05
0.00394133
1.45167e-05
0.00393657
1.35834e-05
0.0039321
1.27192e-05
0.00392792
1.19147e-05
0.003924
1.11654e-05
0.00392033
1.04657e-05
0.00391689
9.81336e-06
0.00391366
9.19976e-06
0.00391063
8.6237e-06
0.00390779
8.08162e-06
0.00390514
7.57255e-06
0.00390265
7.09046e-06
0.00390031
6.63505e-06
0.00389813
6.20384e-06
0.0038961
5.79843e-06
0.00389419
5.41084e-06
0.00389242
5.04301e-06
0.00389077
4.69306e-06
0.00388923
4.36239e-06
0.00388781
4.04524e-06
0.00388649
3.74321e-06
0.00388527
3.45476e-06
0.00388414
3.18341e-06
0.00388311
2.92036e-06
0.00388216
2.66919e-06
0.0038813
2.42851e-06
0.00388052
2.20107e-06
0.00387981
1.98036e-06
0.00387918
1.76914e-06
0.00387862
1.56608e-06
0.00387812
1.3761e-06
0.00387769
1.18903e-06
0.00387733
1.00967e-06
0.00387702
8.36721e-07
0.00387677
6.73873e-07
0.00387657
5.13834e-07
0.00387643
3.60173e-07
0.00387634
2.11543e-07
0.0038763
7.38477e-08
0.0038763
-6.43158e-08
0.00387635
-1.97192e-07
0.00387645
-3.26001e-07
0.00387659
-4.46356e-07
0.00387676
-5.66431e-07
0.00387698
-6.81992e-07
0.00387724
-7.94444e-07
0.00387754
-8.96984e-07
0.00387787
-1.00198e-06
0.00387823
-1.1031e-06
0.00387863
-1.20172e-06
0.00387906
-1.29289e-06
0.00387952
-1.38528e-06
0.00388002
-1.47426e-06
0.00388054
-1.56132e-06
0.00388109
-1.6391e-06
0.00388167
-1.72064e-06
0.00388227
-1.79917e-06
0.0038829
-1.87616e-06
0.00388356
-1.94619e-06
0.00388424
-2.01836e-06
0.00388494
-2.08772e-06
0.00388567
-2.15581e-06
0.00388642
-2.21475e-06
0.00388719
-2.27812e-06
0.00388798
-2.3388e-06
0.00388879
-2.39825e-06
0.00388962
-2.45085e-06
0.00389047
-2.50571e-06
0.00389134
-2.55776e-06
0.00389222
-2.60854e-06
0.00389312
-2.65025e-06
0.00389403
-2.69586e-06
0.00389496
-2.73851e-06
0.0038959
-2.7796e-06
0.00389685
-2.81352e-06
0.00389782
-2.84889e-06
0.0038988
-2.88084e-06
0.00389978
-2.91076e-06
0.00390078
-2.93178e-06
0.00390178
-2.95477e-06
0.00390279
-2.97399e-06
0.0039038
-2.99057e-06
0.00390482
-3.00027e-06
0.00390584
-3.00912e-06
0.00390687
-3.01381e-06
0.00390789
-3.01518e-06
0.00390891
-3.01006e-06
0.00390993
-3.00284e-06
0.00391094
-2.99154e-06
0.00391195
-2.97496e-06
0.00391296
-2.95507e-06
0.00391394
-2.88535e-06
0.00391491
-2.86651e-06
-1.48331e-06
0.00634387
0.00561001
0.00590982
0.00148688
0.00566913
0.000730516
0.00552327
0.000441905
0.00542325
0.000308149
0.0053485
0.000233634
0.00528942
0.000186629
0.00524096
0.000154221
0.00520019
0.000130483
0.00516522
0.000112372
0.00513478
9.81219e-05
0.00510798
8.6626e-05
0.00508416
7.71628e-05
0.00506282
6.92433e-05
0.00504358
6.25244e-05
0.00502613
5.67561e-05
0.00501024
5.17538e-05
0.0049957
4.73774e-05
0.00498236
4.35198e-05
0.00497008
4.00943e-05
0.00495874
3.70349e-05
0.00494825
3.42871e-05
0.00493852
3.18079e-05
0.00492948
2.95596e-05
0.00492107
2.75132e-05
0.00491323
2.56434e-05
0.00490592
2.3931e-05
0.00489909
2.23547e-05
0.00489271
2.0901e-05
0.00488673
1.95567e-05
0.00488114
1.83117e-05
0.0048759
1.71535e-05
0.00487099
1.60749e-05
0.00486639
1.5068e-05
0.00486208
1.41287e-05
0.00485803
1.32462e-05
0.00485424
1.24177e-05
0.00485068
1.16384e-05
0.00484735
1.09061e-05
0.00484422
1.02133e-05
0.0048413
9.55893e-06
0.00483856
8.93952e-06
0.00483601
8.3563e-06
0.00483362
7.79982e-06
0.00483139
7.27179e-06
0.00482931
6.76958e-06
0.00482738
6.29446e-06
0.00482559
5.83955e-06
0.00482392
5.40638e-06
0.00482238
4.9928e-06
0.00482097
4.60261e-06
0.00481966
4.22565e-06
0.00481846
3.86575e-06
0.00481737
3.52101e-06
0.00481638
3.19442e-06
0.00481548
2.87844e-06
0.00481467
2.57607e-06
0.00481395
2.28547e-06
0.00481332
2.01217e-06
0.00481276
1.74462e-06
0.00481228
1.48807e-06
0.00481188
1.24083e-06
0.00481155
1.00705e-06
0.00481128
7.78392e-07
0.00481108
5.58814e-07
0.00481095
3.4655e-07
0.00481087
1.48299e-07
0.00481086
-4.88756e-08
0.0048109
-2.38617e-07
0.004811
-4.22432e-07
0.00481115
-5.95294e-07
0.00481135
-7.66498e-07
0.00481159
-9.31318e-07
0.00481189
-1.09157e-06
0.00481223
-1.23949e-06
0.00481262
-1.38899e-06
0.00481305
-1.53301e-06
0.00481352
-1.67334e-06
0.00481403
-1.80428e-06
0.00481458
-1.93563e-06
0.00481517
-2.06222e-06
0.0048158
-2.18594e-06
0.00481646
-2.29838e-06
0.00481715
-2.41415e-06
0.00481788
-2.52574e-06
0.00481863
-2.63499e-06
0.00481942
-2.73564e-06
0.00482024
-2.83796e-06
0.00482109
-2.93642e-06
0.00482197
-3.03292e-06
0.00482287
-3.11846e-06
0.0048238
-3.2082e-06
0.00482476
-3.29423e-06
0.00482574
-3.37837e-06
0.00482674
-3.45411e-06
0.00482777
-3.53171e-06
0.00482881
-3.60545e-06
0.00482988
-3.67727e-06
0.00483097
-3.73816e-06
0.00483208
-3.80263e-06
0.0048332
-3.86304e-06
0.00483434
-3.92107e-06
0.0048355
-3.97025e-06
0.00483667
-4.0202e-06
0.00483786
-4.06547e-06
0.00483905
-4.10774e-06
0.00484026
-4.13908e-06
0.00484148
-4.1716e-06
0.0048427
-4.19892e-06
0.00484393
-4.22237e-06
0.00484517
-4.23703e-06
0.00484641
-4.24966e-06
0.00484765
-4.25649e-06
0.00484889
-4.25859e-06
0.00485014
-4.25229e-06
0.00485138
-4.24239e-06
0.00485261
-4.22675e-06
0.00485384
-4.20364e-06
0.00485506
-4.17608e-06
0.00485625
-4.07673e-06
0.00485744
-4.0542e-06
-2.09568e-06
0.00782498
0.00642447
0.00732969
0.00198217
0.00702383
0.00103637
0.00683327
0.00063246
0.00670272
0.000438697
0.00660586
0.000330498
0.00652983
0.000262659
0.00646783
0.000216225
0.00641588
0.000182424
0.00637149
0.000156761
0.00633297
0.000136649
0.00629912
0.000120474
0.00626909
0.000107194
0.00624223
9.6104e-05
0.00621804
8.6712e-05
0.00619614
7.86612e-05
0.0061762
7.16888e-05
0.00615798
6.55956e-05
0.00614127
6.02299e-05
0.0061259
5.54697e-05
0.00611171
5.12215e-05
0.00609859
4.74088e-05
0.00608643
4.39707e-05
0.00607513
4.08548e-05
0.00606462
3.80202e-05
0.00605484
3.54314e-05
0.00604571
3.30612e-05
0.00603718
3.08807e-05
0.00602921
2.88706e-05
0.00602176
2.70124e-05
0.00601478
2.52917e-05
0.00600824
2.36918e-05
0.00600211
2.22023e-05
0.00599637
2.08122e-05
0.00599098
1.95152e-05
0.00598593
1.82974e-05
0.00598119
1.71545e-05
0.00597675
1.60796e-05
0.00597259
1.50694e-05
0.00596869
1.41144e-05
0.00596503
1.32126e-05
0.00596161
1.23591e-05
0.00595841
1.15549e-05
0.00595543
1.07885e-05
0.00595264
1.00614e-05
0.00595004
9.37015e-06
0.00594762
8.71565e-06
0.00594537
8.08977e-06
0.00594328
7.49388e-06
0.00594135
6.92513e-06
0.00593956
6.38754e-06
0.00593792
5.86939e-06
0.00593641
5.37473e-06
0.00593503
4.90109e-06
0.00593377
4.45166e-06
0.00593263
4.01774e-06
0.00593161
3.6025e-06
0.00593069
3.20361e-06
0.00592987
2.8272e-06
0.00592916
2.46011e-06
0.00592854
2.10812e-06
0.00592801
1.76906e-06
0.00592757
1.44759e-06
0.00592721
1.13417e-06
0.00592694
8.33161e-07
0.00592674
5.42343e-07
0.00592662
2.69311e-07
0.00592657
-6.426e-10
0.0059266
-2.60544e-07
0.00592668
-5.12228e-07
0.00592684
-7.49906e-07
0.00592706
-9.84158e-07
0.00592734
-1.20973e-06
0.00592767
-1.42887e-06
0.00592807
-1.63274e-06
0.00592851
-1.83704e-06
0.00592902
-2.03391e-06
0.00592957
-2.22555e-06
0.00593017
-2.40544e-06
0.00593082
-2.58471e-06
0.00593151
-2.75756e-06
0.00593225
-2.92633e-06
0.00593304
-3.08139e-06
0.00593386
-3.23922e-06
0.00593473
-3.39145e-06
0.00593563
-3.54028e-06
0.00593657
-3.67857e-06
0.00593755
-3.81792e-06
0.00593857
-3.95211e-06
0.00593962
-4.08346e-06
0.0059407
-4.20166e-06
0.00594182
-4.32378e-06
0.00594297
-4.44096e-06
0.00594414
-4.55537e-06
0.00594535
-4.65957e-06
0.00594658
-4.76508e-06
0.00594784
-4.86548e-06
0.00594913
-4.9631e-06
0.00595044
-5.0476e-06
0.00595177
-5.13528e-06
0.00595312
-5.21756e-06
0.0059545
-5.29645e-06
0.00595589
-5.36446e-06
0.0059573
-5.43244e-06
0.00595873
-5.49421e-06
0.00596018
-5.55175e-06
0.00596163
-5.59596e-06
0.0059631
-5.6404e-06
0.00596458
-5.67791e-06
0.00596607
-5.71004e-06
0.00596756
-5.73111e-06
0.00596906
-5.74869e-06
0.00597056
-5.75857e-06
0.00597207
-5.76192e-06
0.00597357
-5.75453e-06
0.00597507
-5.74179e-06
0.00597656
-5.72142e-06
0.00597805
-5.69082e-06
0.00597952
-5.65433e-06
0.00598097
-5.51938e-06
0.00598241
-5.49518e-06
-2.8405e-06
0.00958315
0.0071223
0.00904307
0.00252225
0.0086654
0.00141405
0.00841974
0.000878121
0.00825014
0.000608299
0.00812471
0.000455923
0.00802681
0.000360557
0.0079474
0.000295639
0.00788117
0.000248652
0.00782478
0.000213153
0.00777598
0.000185445
0.00773322
0.000163238
0.00769536
0.000145057
0.00766155
0.000129911
0.00763115
0.000117109
0.00760366
0.000106156
0.00757866
9.66832e-05
0.00755584
8.84163e-05
0.00753493
8.11446e-05
0.0075157
7.47004e-05
0.00749796
6.89545e-05
0.00748157
6.3802e-05
0.00746638
5.9159e-05
0.00745228
5.49541e-05
0.00743917
5.11311e-05
0.00742696
4.76418e-05
0.00741558
4.44482e-05
0.00740495
4.15121e-05
0.00739501
3.88067e-05
0.00738571
3.63067e-05
0.00737701
3.39923e-05
0.00736886
3.18415e-05
0.00736123
2.98398e-05
0.00735407
2.79722e-05
0.00734735
2.62297e-05
0.00734106
2.45946e-05
0.00733515
2.30606e-05
0.00732961
2.16183e-05
0.00732442
2.02626e-05
0.00731955
1.89818e-05
0.00731499
1.77726e-05
0.00731072
1.66286e-05
0.00730673
1.55497e-05
0.00730299
1.4523e-05
0.00729951
1.35491e-05
0.00729625
1.26234e-05
0.00729322
1.17465e-05
0.0072904
1.09088e-05
0.00728778
1.01114e-05
0.00728536
9.35053e-06
0.00728312
8.63026e-06
0.00728105
7.93742e-06
0.00727915
7.2761e-06
0.00727741
6.64307e-06
0.00727582
6.04164e-06
0.00727437
5.46198e-06
0.00727307
4.90734e-06
0.0072719
4.37471e-06
0.00727085
3.8707e-06
0.00726993
3.38076e-06
0.00726913
2.91102e-06
0.00726844
2.45872e-06
0.00726786
2.02893e-06
0.00726738
1.61103e-06
0.007267
1.20969e-06
0.00726672
8.22118e-07
0.00726654
4.56621e-07
0.00726644
9.71208e-08
0.00726643
-2.49071e-07
0.0072665
-5.843e-07
0.00726665
-9.01978e-07
0.00726688
-1.21381e-06
0.00726719
-1.51408e-06
0.00726756
-1.80562e-06
0.00726801
-2.07864e-06
0.00726852
-2.35027e-06
0.0072691
-2.61204e-06
0.00726974
-2.86665e-06
0.00727044
-3.10687e-06
0.0072712
-3.34493e-06
0.00727202
-3.57451e-06
0.00727289
-3.79849e-06
0.00727382
-4.00622e-06
0.00727479
-4.21562e-06
0.00727582
-4.41762e-06
0.00727689
-4.61494e-06
0.00727802
-4.79959e-06
0.00727918
-4.98427e-06
0.00728039
-5.1622e-06
0.00728164
-5.33619e-06
0.00728294
-5.49481e-06
0.00728427
-5.65658e-06
0.00728564
-5.81188e-06
0.00728705
-5.96333e-06
0.00728849
-6.10263e-06
0.00728997
-6.24233e-06
0.00729148
-6.37539e-06
0.00729302
-6.5046e-06
0.00729459
-6.61848e-06
0.00729619
-6.73464e-06
0.00729782
-6.84378e-06
0.00729947
-6.94828e-06
0.00730114
-7.03973e-06
0.00730284
-7.12993e-06
0.00730456
-7.21207e-06
0.00730629
-7.28849e-06
0.00730805
-7.34904e-06
0.00730981
-7.40836e-06
0.0073116
-7.45866e-06
0.00731339
-7.50174e-06
0.00731519
-7.53123e-06
0.00731699
-7.55531e-06
0.0073188
-7.56936e-06
0.00732062
-7.57475e-06
0.00732243
-7.56681e-06
0.00732424
-7.55123e-06
0.00732604
-7.52562e-06
0.00732784
-7.48654e-06
0.00732962
-7.43998e-06
0.00733136
-7.26262e-06
0.00733311
-7.23565e-06
-3.73948e-06
0.0116649
0.00769175
0.0111083
0.00307885
0.0106583
0.00186413
0.0103471
0.00118928
0.0101283
0.000827099
0.00996616
0.000618059
0.00984002
0.000486701
0.00973813
0.000397523
0.00965352
0.000333269
0.00958173
0.000284941
0.0095198
0.000247371
0.00946568
0.000217366
0.00941786
0.000192875
0.00937524
0.000172525
0.00933699
0.000155364
0.00930244
0.000140709
0.00927106
0.000128057
0.00924245
0.000117032
0.00921625
0.000107346
0.00919217
9.87732e-05
0.00916999
9.11373e-05
0.0091495
8.42964e-05
0.00913052
7.81371e-05
0.00911291
7.25637e-05
0.00909654
6.74999e-05
0.0090813
6.28812e-05
0.00906709
5.8656e-05
0.00905383
5.47741e-05
0.00904144
5.11991e-05
0.00902985
4.7897e-05
0.009019
4.48413e-05
0.00900884
4.2003e-05
0.00899932
3.93626e-05
0.00899039
3.69e-05
0.00898202
3.46024e-05
0.00897416
3.24478e-05
0.0089668
3.04271e-05
0.00895989
2.85278e-05
0.00895341
2.67425e-05
0.00894733
2.50569e-05
0.00894164
2.34658e-05
0.00893631
2.1961e-05
0.00893131
2.05415e-05
0.00892665
1.91916e-05
0.00892228
1.79116e-05
0.00891821
1.66952e-05
0.00891442
1.55426e-05
0.00891088
1.44425e-05
0.0089076
1.33954e-05
0.00890455
1.23967e-05
0.00890173
1.14503e-05
0.00889913
1.05413e-05
0.00889673
9.67373e-06
0.00889453
8.84359e-06
0.00889252
8.05424e-06
0.00889069
7.29443e-06
0.00888903
6.56751e-06
0.00888753
5.8697e-06
0.00888619
5.20813e-06
0.00888501
4.56651e-06
0.00888397
3.95141e-06
0.00888307
3.3594e-06
0.0088823
2.79599e-06
0.00888166
2.24923e-06
0.00888115
1.72417e-06
0.00888075
1.21735e-06
0.00888047
7.37941e-07
0.0088803
2.68151e-07
0.00888023
-1.8428e-07
0.00888027
-6.22375e-07
0.00888041
-1.03859e-06
0.00888064
-1.44596e-06
0.00888097
-1.83824e-06
0.00888138
-2.21885e-06
0.00888188
-2.57693e-06
0.00888246
-2.93141e-06
0.00888312
-3.27303e-06
0.00888386
-3.60505e-06
0.00888467
-3.91942e-06
0.00888555
-4.22973e-06
0.00888651
-4.52904e-06
0.00888753
-4.82081e-06
0.00888862
-5.09317e-06
0.00888977
-5.3659e-06
0.00889098
-5.62906e-06
0.00889225
-5.88587e-06
0.00889358
-6.12741e-06
0.00889496
-6.36775e-06
0.0088964
-6.59939e-06
0.00889789
-6.8257e-06
0.00889943
-7.03387e-06
0.00890102
-7.24434e-06
0.00890265
-7.44649e-06
0.00890433
-7.64342e-06
0.00890605
-7.82583e-06
0.00890782
-8.00756e-06
0.00890962
-8.1808e-06
0.00891147
-8.34886e-06
0.00891335
-8.49885e-06
0.00891526
-8.65015e-06
0.00891721
-8.79246e-06
0.00891919
-8.92856e-06
0.0089212
-9.049e-06
0.00892324
-9.16675e-06
0.0089253
-9.27423e-06
0.00892738
-9.37416e-06
0.00892949
-9.45512e-06
0.00893162
-9.53317e-06
0.00893376
-9.5997e-06
0.00893591
-9.65676e-06
0.00893808
-9.69716e-06
0.00894025
-9.72989e-06
0.00894243
-9.74983e-06
0.00894461
-9.75849e-06
0.0089468
-9.75059e-06
0.00894898
-9.73243e-06
0.00895115
-9.70146e-06
0.00895332
-9.65302e-06
0.00895547
-9.59504e-06
0.00895758
-9.36765e-06
0.00895968
-9.33974e-06
-4.82914e-06
0.0141222
0.00812849
0.0135876
0.00361341
0.013076
0.0023758
0.0126916
0.00157368
0.0124125
0.00110616
0.0122038
0.000826793
0.0120413
0.000649183
0.0119104
0.000528425
0.0118021
0.000441627
0.0117104
0.000376571
0.0116316
0.000326177
0.0115629
0.000286067
0.0115024
0.000253428
0.0114485
0.000226381
0.0114002
0.000203627
0.0113567
0.000184236
0.0113172
0.000167527
0.0112813
0.00015299
0.0112484
0.000140239
0.0112182
0.000128967
0.0111904
0.000118939
0.0111647
0.000109965
0.011141
0.000101893
0.0111189
9.45953e-05
0.0110985
8.79704e-05
0.0110794
8.19322e-05
0.0110617
7.64118e-05
0.0110451
7.13436e-05
0.0110296
6.66789e-05
0.0110151
6.23728e-05
0.0110016
5.83895e-05
0.0109889
5.4692e-05
0.010977
5.12536e-05
0.0109659
4.80483e-05
0.0109554
4.50581e-05
0.0109456
4.2256e-05
0.0109364
3.96288e-05
0.0109278
3.71603e-05
0.0109197
3.48403e-05
0.0109121
3.26509e-05
0.010905
3.05851e-05
0.0108983
2.86318e-05
0.010892
2.67886e-05
0.0108862
2.50375e-05
0.0108807
2.33773e-05
0.0108756
2.18002e-05
0.0108709
2.03054e-05
0.0108664
1.88797e-05
0.0108623
1.75232e-05
0.0108585
1.62296e-05
0.0108549
1.50028e-05
0.0108516
1.3826e-05
0.0108486
1.27032e-05
0.0108458
1.16291e-05
0.0108433
1.0607e-05
0.0108409
9.62438e-06
0.0108388
8.68444e-06
0.0108369
7.78245e-06
0.0108352
6.92586e-06
0.0108336
6.09684e-06
0.0108323
5.30221e-06
0.0108311
4.53771e-06
0.0108301
3.80917e-06
0.0108293
3.1034e-06
0.0108286
2.42571e-06
0.010828
1.77186e-06
0.0108276
1.15164e-06
0.0108273
5.45907e-07
0.0108272
-3.73383e-08
0.0108271
-6.0208e-07
0.0108272
-1.13995e-06
0.0108275
-1.66504e-06
0.0108278
-2.17065e-06
0.0108282
-2.66092e-06
0.0108288
-3.12409e-06
0.0108294
-3.58056e-06
0.0108302
-4.02043e-06
0.010831
-4.44765e-06
0.010832
-4.85344e-06
0.010833
-5.25259e-06
0.0108341
-5.6376e-06
0.0108353
-6.01265e-06
0.0108365
-6.36482e-06
0.0108379
-6.71537e-06
0.0108393
-7.05363e-06
0.0108408
-7.38348e-06
0.0108424
-7.69514e-06
0.010844
-8.00383e-06
0.0108457
-8.30142e-06
0.0108475
-8.59191e-06
0.0108493
-8.86137e-06
0.0108512
-9.13165e-06
0.0108532
-9.39135e-06
0.0108552
-9.64413e-06
0.0108572
-9.87976e-06
0.0108593
-1.01132e-05
0.0108615
-1.03358e-05
0.0108637
-1.05517e-05
0.0108659
-1.07466e-05
0.0108682
-1.09412e-05
0.0108705
-1.11244e-05
0.0108729
-1.12996e-05
0.0108753
-1.14561e-05
0.0108778
-1.1608e-05
0.0108802
-1.1747e-05
0.0108827
-1.18762e-05
0.0108853
-1.19831e-05
0.0108878
-1.20847e-05
0.0108904
-1.21718e-05
0.010893
-1.22467e-05
0.0108956
-1.23015e-05
0.0108982
-1.23457e-05
0.0109008
-1.23738e-05
0.0109034
-1.23874e-05
0.0109061
-1.23809e-05
0.0109087
-1.23607e-05
0.0109113
-1.23243e-05
0.0109139
-1.22657e-05
0.0109165
-1.21952e-05
0.0109191
-1.19091e-05
0.0109216
-1.18785e-05
-6.14329e-06
0.0170157
0.00843801
0.0165448
0.00408431
0.0160001
0.0029205
0.0155424
0.00203134
0.0151931
0.00145547
0.0149266
0.00109326
0.0147179
0.000857874
0.0145497
0.000696632
0.0144107
0.000580627
0.0142935
0.000493826
0.0141929
0.000426764
0.0141054
0.000373542
0.0140285
0.000330356
0.0139602
0.000294665
0.0138991
0.000264711
0.0138441
0.00023924
0.0137943
0.000217335
0.013749
0.000198313
0.0137076
0.000181652
0.0136696
0.000166947
0.0136347
0.000153881
0.0136024
0.000142203
0.0135726
0.000131709
0.013545
0.000122232
0.0135193
0.000113636
0.0134954
0.000105808
0.0134732
9.86571e-05
0.0134524
9.20967e-05
0.013433
8.60627e-05
0.0134149
8.0496e-05
0.013398
7.53494e-05
0.0133821
7.05749e-05
0.0133672
6.61373e-05
0.0133532
6.20026e-05
0.0133402
5.81464e-05
0.0133279
5.4535e-05
0.0133164
5.11504e-05
0.0133055
4.79715e-05
0.0132954
4.49844e-05
0.0132859
4.2167e-05
0.013277
3.95094e-05
0.0132686
3.69975e-05
0.0132608
3.46268e-05
0.0132534
3.23762e-05
0.0132466
3.02431e-05
0.0132401
2.82174e-05
0.0132341
2.62971e-05
0.0132286
2.44669e-05
0.0132234
2.27259e-05
0.0132185
2.10662e-05
0.013214
1.94913e-05
0.0132099
1.79822e-05
0.013206
1.65425e-05
0.0132025
1.51658e-05
0.0131992
1.38552e-05
0.0131963
1.25964e-05
0.0131936
1.13924e-05
0.0131911
1.02375e-05
0.0131889
9.13943e-06
0.0131869
8.07838e-06
0.0131852
7.06151e-06
0.0131836
6.08357e-06
0.0131823
5.15077e-06
0.0131811
4.24833e-06
0.0131802
3.38189e-06
0.0131794
2.54629e-06
0.0131788
1.75214e-06
0.0131784
9.78354e-07
0.0131781
2.33651e-07
0.013178
-4.87286e-07
0.013178
-1.17543e-06
0.0131782
-1.84593e-06
0.0131785
-2.49153e-06
0.013179
-3.11718e-06
0.0131796
-3.71e-06
0.0131803
-4.29238e-06
0.0131811
-4.85354e-06
0.0131821
-5.39818e-06
0.0131831
-5.91671e-06
0.0131843
-6.42543e-06
0.0131856
-6.91615e-06
0.0131869
-7.39382e-06
0.0131884
-7.84426e-06
0.01319
-8.29075e-06
0.0131917
-8.72162e-06
0.0131934
-9.14145e-06
0.0131953
-9.53946e-06
0.0131972
-9.93238e-06
0.0131992
-1.03113e-05
0.0132013
-1.06808e-05
0.0132035
-1.10257e-05
0.0132057
-1.13698e-05
0.013208
-1.17005e-05
0.0132104
-1.20221e-05
0.0132128
-1.23234e-05
0.0132153
-1.26206e-05
0.0132179
-1.29044e-05
0.0132205
-1.31792e-05
0.0132232
-1.34295e-05
0.013226
-1.36778e-05
0.0132287
-1.39119e-05
0.0132316
-1.41355e-05
0.0132345
-1.4337e-05
0.0132374
-1.45315e-05
0.0132403
-1.471e-05
0.0132433
-1.48758e-05
0.0132464
-1.50153e-05
0.0132494
-1.51468e-05
0.0132525
-1.52602e-05
0.0132556
-1.53581e-05
0.0132588
-1.54316e-05
0.0132619
-1.54911e-05
0.0132651
-1.55305e-05
0.0132682
-1.55517e-05
0.0132714
-1.55482e-05
0.0132746
-1.55272e-05
0.0132777
-1.54858e-05
0.0132809
-1.54166e-05
0.013284
-1.53323e-05
0.0132871
-1.49781e-05
0.0132901
-1.49457e-05
-7.73508e-06
0.0204181
0.00863699
0.020045
0.00445733
0.0195159
0.00344959
0.0190009
0.0025464
0.0185768
0.00187952
0.018242
0.00142811
0.0179759
0.00112395
0.0177603
0.000912209
0.017582
0.000758948
0.0174317
0.000644118
0.017303
0.000555476
0.0171913
0.000485261
0.0170932
0.000428415
0.0170063
0.000381545
0.0169288
0.000342299
0.016859
0.000308998
0.0167959
0.000280417
0.0167386
0.000255641
0.0166863
0.000233978
0.0166383
0.000214886
0.0165943
0.000197948
0.0165536
0.000182828
0.0165161
0.000169257
0.0164813
0.000157014
0.016449
0.000145922
0.016419
0.00013583
0.016391
0.000126617
0.016365
0.000118173
0.0163406
0.000110412
0.0163178
0.000103258
0.0162965
9.66468e-05
0.0162766
9.05182e-05
0.0162579
8.48254e-05
0.0162404
7.9524e-05
0.016224
7.45814e-05
0.0162085
6.99556e-05
0.0161941
6.56224e-05
0.0161805
6.15542e-05
0.0161677
5.77324e-05
0.0161558
5.41299e-05
0.0161445
5.07328e-05
0.016134
4.75232e-05
0.0161242
4.44939e-05
0.0161149
4.16201e-05
0.0161063
3.8897e-05
0.0160982
3.6312e-05
0.0160906
3.38614e-05
0.0160835
3.15272e-05
0.016077
2.93073e-05
0.0160708
2.71918e-05
0.0160651
2.51834e-05
0.0160599
2.32609e-05
0.016055
2.14272e-05
0.0160505
1.96743e-05
0.0160463
1.80049e-05
0.0160425
1.64028e-05
0.016039
1.48709e-05
0.0160359
1.3402e-05
0.016033
1.20039e-05
0.0160304
1.06549e-05
0.0160281
9.36228e-06
0.0160261
8.11965e-06