/*--------------------------------*- C++ -*----------------------------------*\
  =========                 |
  \\      /  F ield         | OpenFOAM: The Open Source CFD Toolbox
   \\    /   O peration     | Website:  https://openfoam.org
    \\  /    A nd           | Version:  8
     \\/     M anipulation  |
\*---------------------------------------------------------------------------*/
FoamFile
{
    version     2.0;
    format      ascii;
    class       volVectorField;
    location    "600";
    object      U;
}
// * * * * * * * * * * * * * * * * * * * * * * * * * * * * * * * * * * * * * //

dimensions      [0 1 -1 0 0 0 0];

internalField   nonuniform List<vector> 
7320
(
(22.6429 -0.848127 0)
(20.2991 -0.0156863 0)
(19.4729 0.000192385 0)
(18.9932 0.000303716 0)
(18.6577 0.000223819 0)
(18.4025 0.000174271 0)
(18.1985 0.000141581 0)
(18.0298 0.000118317 0)
(17.8872 0.000100899 0)
(17.7644 8.74023e-05 0)
(17.6573 7.66604e-05 0)
(17.5629 6.79151e-05 0)
(17.4788 6.06645e-05 0)
(17.4034 5.45618e-05 0)
(17.3353 4.93607e-05 0)
(17.2736 4.48769e-05 0)
(17.2174 4.09753e-05 0)
(17.1659 3.75518e-05 0)
(17.1186 3.45305e-05 0)
(17.0751 3.18385e-05 0)
(17.035 2.94291e-05 0)
(16.9978 2.72611e-05 0)
(16.9633 2.53051e-05 0)
(16.9313 2.35259e-05 0)
(16.9015 2.19042e-05 0)
(16.8737 2.04202e-05 0)
(16.8478 1.90675e-05 0)
(16.8236 1.78142e-05 0)
(16.801 1.66568e-05 0)
(16.7798 1.55848e-05 0)
(16.76 1.45972e-05 0)
(16.7414 1.36723e-05 0)
(16.724 1.28102e-05 0)
(16.7078 1.20039e-05 0)
(16.6925 1.12648e-05 0)
(16.6782 1.05577e-05 0)
(16.6647 9.89283e-06 0)
(16.6522 9.26577e-06 0)
(16.6404 8.68705e-06 0)
(16.6293 8.12863e-06 0)
(16.619 7.60054e-06 0)
(16.6094 7.09854e-06 0)
(16.6003 6.64943e-06 0)
(16.5919 6.19774e-06 0)
(16.5841 5.76816e-06 0)
(16.5768 5.35655e-06 0)
(16.57 4.9875e-06 0)
(16.5637 4.61342e-06 0)
(16.5578 4.25751e-06 0)
(16.5525 3.91385e-06 0)
(16.5475 3.6307e-06 0)
(16.543 3.31728e-06 0)
(16.5388 3.01792e-06 0)
(16.535 2.72567e-06 0)
(16.5316 2.48361e-06 0)
(16.5285 2.21506e-06 0)
(16.5257 1.96008e-06 0)
(16.5233 1.70895e-06 0)
(16.5211 1.5332e-06 0)
(16.5193 1.30281e-06 0)
(16.5177 1.0831e-06 0)
(16.5164 8.6335e-07 0)
(16.5154 7.0286e-07 0)
(16.5146 4.99704e-07 0)
(16.514 3.08577e-07 0)
(16.5137 1.15996e-07 0)
(16.5135 9.12117e-09 0)
(16.5136 -1.68285e-07 0)
(16.514 -3.35629e-07 0)
(16.5145 -5.07169e-07 0)
(16.5152 -6.14121e-07 0)
(16.516 -7.73529e-07 0)
(16.5171 -9.21155e-07 0)
(16.5183 -1.07296e-06 0)
(16.5197 -1.13673e-06 0)
(16.5213 -1.27717e-06 0)
(16.523 -1.40762e-06 0)
(16.5249 -1.54404e-06 0)
(16.5269 -1.61918e-06 0)
(16.5291 -1.74652e-06 0)
(16.5314 -1.8621e-06 0)
(16.5338 -1.98225e-06 0)
(16.5364 -2.02646e-06 0)
(16.5391 -2.13884e-06 0)
(16.5419 -2.24054e-06 0)
(16.5448 -2.34722e-06 0)
(16.5478 -2.4053e-06 0)
(16.551 -2.50554e-06 0)
(16.5543 -2.59449e-06 0)
(16.5576 -2.68598e-06 0)
(16.5611 -2.72636e-06 0)
(16.5647 -2.81364e-06 0)
(16.5683 -2.88979e-06 0)
(16.5721 -2.96718e-06 0)
(16.5759 -3.01939e-06 0)
(16.5799 -3.09239e-06 0)
(16.5839 -3.15533e-06 0)
(16.588 -3.21621e-06 0)
(16.5921 -3.26828e-06 0)
(16.5963 -3.32722e-06 0)
(16.6006 -3.37518e-06 0)
(16.605 -3.41666e-06 0)
(16.6094 -3.46957e-06 0)
(16.6139 -3.50676e-06 0)
(16.6184 -3.53721e-06 0)
(16.623 -3.5568e-06 0)
(16.6276 -3.62618e-06 0)
(16.6323 -3.64414e-06 0)
(16.6369 -3.65442e-06 0)
(16.6417 -3.64628e-06 0)
(16.6464 -3.69583e-06 0)
(16.6511 -3.6828e-06 0)
(16.6559 -3.67165e-06 0)
(16.6606 -3.63967e-06 0)
(16.6654 -3.70412e-06 0)
(16.6701 -3.67035e-06 0)
(16.6749 -3.64093e-06 0)
(16.6796 -3.58398e-06 0)
(16.6842 -3.58586e-06 0)
(16.6889 -3.48655e-06 0)
(16.6933 -3.43186e-06 0)
(16.6979 -1.80616e-06 0)
(26.6037 0.16714 0)
(23.9491 0.00743101 0)
(22.9106 0.00132356 0)
(22.324 0.000761375 0)
(21.922 0.000547535 0)
(21.6197 0.000424678 0)
(21.3794 0.000344315 0)
(21.1815 0.000287386 0)
(21.0145 0.000244881 0)
(20.8711 0.000212005 0)
(20.7461 0.000185872 0)
(20.636 0.000164618 0)
(20.5381 0.00014701 0)
(20.4503 0.000132198 0)
(20.3712 0.000119579 0)
(20.2994 0.000108705 0)
(20.2341 9.92465e-05 0)
(20.1743 9.09488e-05 0)
(20.1194 8.36225e-05 0)
(20.0688 7.71001e-05 0)
(20.0222 7.12638e-05 0)
(19.979 6.60132e-05 0)
(19.939 6.12727e-05 0)
(19.9018 5.69648e-05 0)
(19.8672 5.30388e-05 0)
(19.835 4.94472e-05 0)
(19.8049 4.61635e-05 0)
(19.7769 4.31301e-05 0)
(19.7506 4.03299e-05 0)
(19.7261 3.77373e-05 0)
(19.7031 3.53414e-05 0)
(19.6816 3.31047e-05 0)
(19.6614 3.10201e-05 0)
(19.6425 2.90719e-05 0)
(19.6248 2.72692e-05 0)
(19.6082 2.55598e-05 0)
(19.5926 2.39538e-05 0)
(19.578 2.24406e-05 0)
(19.5643 2.10309e-05 0)
(19.5515 1.96837e-05 0)
(19.5395 1.84103e-05 0)
(19.5283 1.72022e-05 0)
(19.5178 1.60921e-05 0)
(19.508 1.50048e-05 0)
(19.4989 1.39721e-05 0)
(19.4904 1.29861e-05 0)
(19.4825 1.2077e-05 0)
(19.4752 1.11816e-05 0)
(19.4684 1.03295e-05 0)
(19.4622 9.51125e-06 0)
(19.4564 8.7868e-06 0)
(19.4511 8.0396e-06 0)
(19.4462 7.32674e-06 0)
(19.4418 6.63742e-06 0)
(19.4378 6.02454e-06 0)
(19.4342 5.39101e-06 0)
(19.4309 4.78767e-06 0)
(19.4281 4.20082e-06 0)
(19.4255 3.71779e-06 0)
(19.4234 3.17689e-06 0)
(19.4215 2.66078e-06 0)
(19.4199 2.15422e-06 0)
(19.4187 1.72895e-06 0)
(19.4177 1.25946e-06 0)
(19.417 8.14071e-07 0)
(19.4165 3.74666e-07 0)
(19.4163 4.57375e-08 0)
(19.4164 -3.62445e-07 0)
(19.4167 -7.49752e-07 0)
(19.4172 -1.13548e-06 0)
(19.418 -1.43817e-06 0)
(19.4189 -1.79834e-06 0)
(19.4201 -2.13741e-06 0)
(19.4215 -2.47614e-06 0)
(19.423 -2.70667e-06 0)
(19.4248 -3.02333e-06 0)
(19.4267 -3.3213e-06 0)
(19.4288 -3.62158e-06 0)
(19.431 -3.84684e-06 0)
(19.4335 -4.12873e-06 0)
(19.4361 -4.39144e-06 0)
(19.4388 -4.65554e-06 0)
(19.4417 -4.8312e-06 0)
(19.4447 -5.08012e-06 0)
(19.4479 -5.31125e-06 0)
(19.4512 -5.54427e-06 0)
(19.4546 -5.7217e-06 0)
(19.4582 -5.94129e-06 0)
(19.4619 -6.1438e-06 0)
(19.4657 -6.34555e-06 0)
(19.4696 -6.49421e-06 0)
(19.4737 -6.68581e-06 0)
(19.4778 -6.8603e-06 0)
(19.4821 -7.03191e-06 0)
(19.4864 -7.18e-06 0)
(19.4909 -7.34057e-06 0)
(19.4954 -7.48657e-06 0)
(19.5 -7.62567e-06 0)
(19.5048 -7.76746e-06 0)
(19.5096 -7.89776e-06 0)
(19.5144 -8.01212e-06 0)
(19.5194 -8.11311e-06 0)
(19.5244 -8.23771e-06 0)
(19.5295 -8.32562e-06 0)
(19.5346 -8.40351e-06 0)
(19.5398 -8.46227e-06 0)
(19.545 -8.59693e-06 0)
(19.5503 -8.64371e-06 0)
(19.5556 -8.67921e-06 0)
(19.5609 -8.68506e-06 0)
(19.5663 -8.77017e-06 0)
(19.5717 -8.75899e-06 0)
(19.577 -8.74862e-06 0)
(19.5824 -8.70575e-06 0)
(19.5878 -8.78912e-06 0)
(19.5932 -8.7318e-06 0)
(19.5986 -8.67829e-06 0)
(19.6039 -8.58269e-06 0)
(19.6092 -8.55871e-06 0)
(19.6145 -8.33883e-06 0)
(19.6195 -8.24808e-06 0)
(19.6247 -4.26905e-06 0)
(28.9497 0.0984766 0)
(26.1304 0.00639105 0)
(24.9213 0.00233811 0)
(24.2467 0.00142135 0)
(23.7932 0.00101462 0)
(23.4561 0.000782735 0)
(23.1903 0.000632601 0)
(22.9724 0.000526948 0)
(22.7892 0.000448396 0)
(22.6322 0.000387811 0)
(22.4957 0.000339751 0)
(22.3756 0.000300728 0)
(22.2689 0.000268438 0)
(22.1734 0.000241302 0)
(22.0873 0.000218201 0)
(22.0093 0.000198309 0)
(21.9383 0.000181016 0)
(21.8733 0.000165853 0)
(21.8137 0.000152466 0)
(21.7589 0.000140556 0)
(21.7083 0.000129903 0)
(21.6615 0.000120322 0)
(21.6181 0.00011167 0)
(21.5778 0.000103813 0)
(21.5403 9.66542e-05 0)
(21.5054 9.01067e-05 0)
(21.4728 8.41143e-05 0)
(21.4424 7.85861e-05 0)
(21.414 7.34839e-05 0)
(21.3874 6.87614e-05 0)
(21.3625 6.43922e-05 0)
(21.3391 6.03188e-05 0)
(21.3173 5.6523e-05 0)
(21.2968 5.29766e-05 0)
(21.2776 4.96836e-05 0)
(21.2596 4.65723e-05 0)
(21.2427 4.36499e-05 0)
(21.2269 4.08977e-05 0)
(21.2121 3.83246e-05 0)
(21.1982 3.58752e-05 0)
(21.1852 3.35605e-05 0)
(21.1731 3.1366e-05 0)
(21.1617 2.93299e-05 0)
(21.1511 2.73558e-05 0)
(21.1412 2.54815e-05 0)
(21.132 2.36943e-05 0)
(21.1234 2.20301e-05 0)
(21.1154 2.04082e-05 0)
(21.1081 1.88647e-05 0)
(21.1012 1.73855e-05 0)
(21.0949 1.60431e-05 0)
(21.0892 1.46928e-05 0)
(21.0839 1.34046e-05 0)
(21.079 1.21631e-05 0)
(21.0747 1.10321e-05 0)
(21.0707 9.89184e-06 0)
(21.0671 8.80437e-06 0)
(21.064 7.75108e-06 0)
(21.0612 6.83774e-06 0)
(21.0588 5.86673e-06 0)
(21.0567 4.9392e-06 0)
(21.0549 4.03466e-06 0)
(21.0535 3.23984e-06 0)
(21.0524 2.40175e-06 0)
(21.0515 1.6037e-06 0)
(21.051 8.21978e-07 0)
(21.0507 1.82908e-07 0)
(21.0507 -5.4386e-07 0)
(21.0509 -1.23625e-06 0)
(21.0514 -1.91904e-06 0)
(21.0522 -2.49406e-06 0)
(21.0531 -3.13141e-06 0)
(21.0543 -3.73573e-06 0)
(21.0557 -4.33377e-06 0)
(21.0573 -4.79532e-06 0)
(21.0591 -5.35447e-06 0)
(21.0611 -5.88442e-06 0)
(21.0632 -6.41209e-06 0)
(21.0656 -6.84431e-06 0)
(21.0681 -7.33938e-06 0)
(21.0708 -7.80594e-06 0)
(21.0737 -8.27018e-06 0)
(21.0767 -8.62404e-06 0)
(21.0799 -9.06077e-06 0)
(21.0832 -9.47133e-06 0)
(21.0867 -9.88053e-06 0)
(21.0903 -1.02195e-05 0)
(21.094 -1.06043e-05 0)
(21.0979 -1.09646e-05 0)
(21.1019 -1.13209e-05 0)
(21.106 -1.16108e-05 0)
(21.1103 -1.19466e-05 0)
(21.1147 -1.22582e-05 0)
(21.1191 -1.25629e-05 0)
(21.1237 -1.28371e-05 0)
(21.1284 -1.31203e-05 0)
(21.1332 -1.33828e-05 0)
(21.138 -1.36336e-05 0)
(21.143 -1.3886e-05 0)
(21.1481 -1.41166e-05 0)
(21.1532 -1.43249e-05 0)
(21.1584 -1.45128e-05 0)
(21.1637 -1.4727e-05 0)
(21.169 -1.48887e-05 0)
(21.1745 -1.50349e-05 0)
(21.1799 -1.51531e-05 0)
(21.1854 -1.53609e-05 0)
(21.191 -1.54515e-05 0)
(21.1966 -1.55251e-05 0)
(21.2022 -1.55568e-05 0)
(21.2079 -1.56809e-05 0)
(21.2136 -1.56781e-05 0)
(21.2192 -1.56721e-05 0)
(21.2249 -1.56201e-05 0)
(21.2306 -1.57168e-05 0)
(21.2363 -1.56319e-05 0)
(21.2419 -1.55476e-05 0)
(21.2476 -1.54028e-05 0)
(21.2532 -1.53407e-05 0)
(21.2587 -1.4954e-05 0)
(21.264 -1.48216e-05 0)
(21.2696 -7.65292e-06 0)
(30.6449 0.0459572 0)
(27.8131 0.00831864 0)
(26.4561 0.00392316 0)
(25.6943 0.00237911 0)
(25.1892 0.00168082 0)
(24.8184 0.00128805 0)
(24.5284 0.00103664 0)
(24.2922 0.000861131 0)
(24.0944 0.000731347 0)
(23.9254 0.000631629 0)
(23.7788 0.000552749 0)
(23.6501 0.000488842 0)
(23.5359 0.000436054 0)
(23.4338 0.000391754 0)
(23.3419 0.000354083 0)
(23.2586 0.000321677 0)
(23.1829 0.000293528 0)
(23.1137 0.000268865 0)
(23.0503 0.000247101 0)
(22.9919 0.000227751 0)
(22.9381 0.000210451 0)
(22.8883 0.0001949 0)
(22.8421 0.00018086 0)
(22.7993 0.000168116 0)
(22.7594 0.000156509 0)
(22.7223 0.000145896 0)
(22.6877 0.000136179 0)
(22.6554 0.000127223 0)
(22.6252 0.000118959 0)
(22.5969 0.000111313 0)
(22.5705 0.000104234 0)
(22.5457 9.76415e-05 0)
(22.5225 9.14992e-05 0)
(22.5008 8.57618e-05 0)
(22.4804 8.04242e-05 0)
(22.4613 7.53923e-05 0)
(22.4433 7.06669e-05 0)
(22.4265 6.62183e-05 0)
(22.4108 6.20511e-05 0)
(22.396 5.80936e-05 0)
(22.3822 5.43545e-05 0)
(22.3693 5.08114e-05 0)
(22.3572 4.75058e-05 0)
(22.3459 4.43201e-05 0)
(22.3354 4.12961e-05 0)
(22.3255 3.84152e-05 0)
(22.3164 3.57173e-05 0)
(22.3079 3.31046e-05 0)
(22.3001 3.06178e-05 0)
(22.2928 2.82375e-05 0)
(22.2861 2.60476e-05 0)
(22.2799 2.38759e-05 0)
(22.2742 2.18038e-05 0)
(22.269 1.98106e-05 0)
(22.2643 1.79706e-05 0)
(22.26 1.61413e-05 0)
(22.2562 1.43951e-05 0)
(22.2528 1.27077e-05 0)
(22.2498 1.12031e-05 0)
(22.2471 9.64831e-06 0)
(22.2448 8.16174e-06 0)
(22.2429 6.71711e-06 0)
(22.2413 5.41624e-06 0)
(22.24 4.07862e-06 0)
(22.2391 2.80202e-06 0)
(22.2384 1.55635e-06 0)
(22.238 4.90106e-07 0)
(22.2379 -6.6769e-07 0)
(22.2381 -1.77374e-06 0)
(22.2385 -2.85862e-06 0)
(22.2392 -3.80693e-06 0)
(22.2401 -4.81868e-06 0)
(22.2412 -5.78206e-06 0)
(22.2426 -6.73053e-06 0)
(22.2442 -7.5107e-06 0)
(22.246 -8.39666e-06 0)
(22.248 -9.24014e-06 0)
(22.2501 -1.00745e-05 0)
(22.2525 -1.079e-05 0)
(22.2551 -1.1572e-05 0)
(22.2578 -1.23138e-05 0)
(22.2607 -1.30479e-05 0)
(22.2638 -1.36466e-05 0)
(22.2671 -1.43358e-05 0)
(22.2705 -1.49884e-05 0)
(22.274 -1.56349e-05 0)
(22.2777 -1.61939e-05 0)
(22.2815 -1.68008e-05 0)
(22.2855 -1.73739e-05 0)
(22.2896 -1.79386e-05 0)
(22.2939 -1.84207e-05 0)
(22.2982 -1.89503e-05 0)
(22.3027 -1.94469e-05 0)
(22.3073 -1.99315e-05 0)
(22.312 -2.03755e-05 0)
(22.3168 -2.08244e-05 0)
(22.3217 -2.12442e-05 0)
(22.3267 -2.16465e-05 0)
(22.3318 -2.20457e-05 0)
(22.337 -2.24122e-05 0)
(22.3423 -2.27479e-05 0)
(22.3477 -2.30548e-05 0)
(22.3531 -2.3387e-05 0)
(22.3586 -2.36501e-05 0)
(22.3642 -2.38898e-05 0)
(22.3698 -2.40908e-05 0)
(22.3755 -2.43904e-05 0)
(22.3813 -2.45433e-05 0)
(22.387 -2.46705e-05 0)
(22.3928 -2.4741e-05 0)
(22.3987 -2.49127e-05 0)
(22.4045 -2.49259e-05 0)
(22.4104 -2.49288e-05 0)
(22.4163 -2.48691e-05 0)
(22.4221 -2.49755e-05 0)
(22.428 -2.48587e-05 0)
(22.4338 -2.47359e-05 0)
(22.4396 -2.45298e-05 0)
(22.4454 -2.44147e-05 0)
(22.4511 -2.38033e-05 0)
(22.4566 -2.3633e-05 0)
(22.4624 -1.21902e-05 0)
(31.9342 0.0469922 0)
(29.2283 0.0125097 0)
(27.7543 0.00606047 0)
(26.9065 0.0036572 0)
(26.348 0.00255944 0)
(25.9421 0.00194754 0)
(25.6273 0.00155994 0)
(25.3724 0.0012916 0)
(25.1601 0.00109438 0)
(24.9793 0.000943515 0)
(24.8229 0.000824576 0)
(24.6858 0.000728467 0)
(24.5645 0.000649248 0)
(24.4562 0.000582879 0)
(24.3587 0.000526521 0)
(24.2706 0.0004781 0)
(24.1905 0.000436081 0)
(24.1174 0.000399298 0)
(24.0504 0.000366861 0)
(23.9888 0.000338044 0)
(23.9319 0.000312296 0)
(23.8794 0.000289162 0)
(23.8308 0.000268285 0)
(23.7856 0.000249346 0)
(23.7436 0.000232102 0)
(23.7045 0.000216342 0)
(23.6681 0.000201911 0)
(23.634 0.00018862 0)
(23.6022 0.00017636 0)
(23.5725 0.000165019 0)
(23.5446 0.00015452 0)
(23.5185 0.000144746 0)
(23.4941 0.000135643 0)
(23.4712 0.000127142 0)
(23.4497 0.000119225 0)
(23.4296 0.000111772 0)
(23.4107 0.000104775 0)
(23.393 9.81902e-05 0)
(23.3764 9.20144e-05 0)
(23.3609 8.61589e-05 0)
(23.3463 8.06275e-05 0)
(23.3327 7.53881e-05 0)
(23.3199 7.04838e-05 0)
(23.308 6.57753e-05 0)
(23.2969 6.13068e-05 0)
(23.2865 5.70521e-05 0)
(23.2769 5.30542e-05 0)
(23.2679 4.9198e-05 0)
(23.2596 4.55276e-05 0)
(23.2519 4.2017e-05 0)
(23.2448 3.87606e-05 0)
(23.2382 3.55596e-05 0)
(23.2322 3.25052e-05 0)
(23.2267 2.95705e-05 0)
(23.2216 2.68397e-05 0)
(23.2171 2.41481e-05 0)
(23.213 2.15775e-05 0)
(23.2093 1.9097e-05 0)
(23.206 1.6848e-05 0)
(23.2032 1.45637e-05 0)
(23.2007 1.23785e-05 0)
(23.1986 1.02594e-05 0)
(23.1968 8.32294e-06 0)
(23.1954 6.36211e-06 0)
(23.1942 4.48818e-06 0)
(23.1934 2.66396e-06 0)
(23.1929 1.05949e-06 0)
(23.1927 -6.35062e-07 0)
(23.1928 -2.25691e-06 0)
(23.1931 -3.84276e-06 0)
(23.1937 -5.25997e-06 0)
(23.1946 -6.73754e-06 0)
(23.1956 -8.14803e-06 0)
(23.197 -9.53232e-06 0)
(23.1985 -1.07141e-05 0)
(23.2003 -1.2006e-05 0)
(23.2022 -1.32392e-05 0)
(23.2044 -1.44545e-05 0)
(23.2068 -1.55248e-05 0)
(23.2093 -1.66628e-05 0)
(23.2121 -1.77463e-05 0)
(23.215 -1.8815e-05 0)
(23.2181 -1.97215e-05 0)
(23.2214 -2.07234e-05 0)
(23.2248 -2.16763e-05 0)
(23.2284 -2.2617e-05 0)
(23.2321 -2.34507e-05 0)
(23.236 -2.43327e-05 0)
(23.24 -2.51698e-05 0)
(23.2442 -2.59927e-05 0)
(23.2485 -2.67146e-05 0)
(23.2529 -2.74844e-05 0)
(23.2574 -2.82106e-05 0)
(23.2621 -2.89183e-05 0)
(23.2669 -2.95731e-05 0)
(23.2718 -3.02276e-05 0)
(23.2768 -3.0843e-05 0)
(23.2819 -3.14336e-05 0)
(23.2871 -3.20132e-05 0)
(23.2924 -3.25493e-05 0)
(23.2977 -3.3044e-05 0)
(23.3032 -3.34999e-05 0)
(23.3087 -3.39766e-05 0)
(23.3144 -3.43677e-05 0)
(23.32 -3.4725e-05 0)
(23.3258 -3.50311e-05 0)
(23.3316 -3.54398e-05 0)
(23.3374 -3.56733e-05 0)
(23.3433 -3.58696e-05 0)
(23.3492 -3.59923e-05 0)
(23.3552 -3.62203e-05 0)
(23.3612 -3.62581e-05 0)
(23.3671 -3.62755e-05 0)
(23.3731 -3.62112e-05 0)
(23.3791 -3.63246e-05 0)
(23.3851 -3.61741e-05 0)
(23.3911 -3.60075e-05 0)
(23.397 -3.57311e-05 0)
(23.4029 -3.5551e-05 0)
(23.4088 -3.46638e-05 0)
(23.4144 -3.44617e-05 0)
(23.4203 -1.77703e-05 0)
(32.9266 0.0603716 0)
(30.4695 0.0174492 0)
(28.9196 0.00880609 0)
(27.99 0.00533477 0)
(27.3757 0.00370686 0)
(26.9322 0.00280127 0)
(26.5909 0.00223229 0)
(26.3162 0.00184149 0)
(26.0885 0.00155609 0)
(25.8954 0.00133883 0)
(25.7288 0.00116819 0)
(25.5832 0.00103073 0)
(25.4546 0.000917693 0)
(25.3399 0.000823187 0)
(25.2369 0.000743068 0)
(25.1439 0.000674331 0)
(25.0594 0.000614755 0)
(24.9824 0.000562658 0)
(24.9118 0.000516756 0)
(24.847 0.000476012 0)
(24.7873 0.000439633 0)
(24.7321 0.000406971 0)
(24.6809 0.000377508 0)
(24.6335 0.000350797 0)
(24.5894 0.000326488 0)
(24.5484 0.000304282 0)
(24.5101 0.00028395 0)
(24.4744 0.000265237 0)
(24.441 0.000247982 0)
(24.4098 0.000232026 0)
(24.3806 0.000217254 0)
(24.3533 0.000203512 0)
(24.3277 0.000190715 0)
(24.3036 0.000178768 0)
(24.2811 0.000167635 0)
(24.26 0.000157167 0)
(24.2402 0.000147341 0)
(24.2216 0.000138096 0)
(24.2042 0.00012942 0)
(24.1879 0.000121204 0)
(24.1726 0.000113444 0)
(24.1583 0.000106096 0)
(24.1449 9.92032e-05 0)
(24.1324 9.26034e-05 0)
(24.1207 8.63412e-05 0)
(24.1098 8.03814e-05 0)
(24.0996 7.47688e-05 0)
(24.0901 6.93703e-05 0)
(24.0814 6.42324e-05 0)
(24.0732 5.93209e-05 0)
(24.0657 5.47396e-05 0)
(24.0588 5.02637e-05 0)
(24.0524 4.5993e-05 0)
(24.0466 4.18931e-05 0)
(24.0412 3.80573e-05 0)
(24.0364 3.42992e-05 0)
(24.032 3.07091e-05 0)
(24.028 2.72485e-05 0)
(24.0245 2.40749e-05 0)
(24.0214 2.08897e-05 0)
(24.0187 1.78415e-05 0)
(24.0164 1.48901e-05 0)
(24.0145 1.2166e-05 0)
(24.0129 9.43668e-06 0)
(24.0116 6.82596e-06 0)
(24.0106 4.28872e-06 0)
(24.01 2.01588e-06 0)
(24.0097 -3.39315e-07 0)
(24.0096 -2.59655e-06 0)
(24.0098 -4.79931e-06 0)
(24.0103 -6.79745e-06 0)
(24.0111 -8.84808e-06 0)
(24.0121 -1.08088e-05 0)
(24.0133 -1.27289e-05 0)
(24.0148 -1.44095e-05 0)
(24.0165 -1.61998e-05 0)
(24.0185 -1.79121e-05 0)
(24.0206 -1.95946e-05 0)
(24.0229 -2.11039e-05 0)
(24.0255 -2.26783e-05 0)
(24.0282 -2.41811e-05 0)
(24.0311 -2.566e-05 0)
(24.0342 -2.69477e-05 0)
(24.0374 -2.8333e-05 0)
(24.0409 -2.96541e-05 0)
(24.0445 -3.0955e-05 0)
(24.0482 -3.21274e-05 0)
(24.0521 -3.33464e-05 0)
(24.0561 -3.45069e-05 0)
(24.0603 -3.5646e-05 0)
(24.0646 -3.66636e-05 0)
(24.0691 -3.7728e-05 0)
(24.0737 -3.87355e-05 0)
(24.0784 -3.97167e-05 0)
(24.0832 -4.06303e-05 0)
(24.0882 -4.15372e-05 0)
(24.0932 -4.23928e-05 0)
(24.0984 -4.32147e-05 0)
(24.1036 -4.40148e-05 0)
(24.109 -4.47599e-05 0)
(24.1144 -4.54506e-05 0)
(24.12 -4.60905e-05 0)
(24.1256 -4.67438e-05 0)
(24.1313 -4.72939e-05 0)
(24.137 -4.77973e-05 0)
(24.1428 -4.82348e-05 0)
(24.1487 -4.87744e-05 0)
(24.1546 -4.91105e-05 0)
(24.1606 -4.93947e-05 0)
(24.1666 -4.95857e-05 0)
(24.1727 -4.98815e-05 0)
(24.1787 -4.99549e-05 0)
(24.1848 -4.99943e-05 0)
(24.1909 -4.993e-05 0)
(24.197 -5.00496e-05 0)
(24.2031 -4.98643e-05 0)
(24.2091 -4.96493e-05 0)
(24.2152 -4.92934e-05 0)
(24.2212 -4.90361e-05 0)
(24.2271 -4.78174e-05 0)
(24.2328 -4.75899e-05 0)
(24.2388 -2.4543e-05 0)
(33.6709 0.0694784 0)
(31.5724 0.022704 0)
(30.0008 0.0122434 0)
(28.9993 0.00751392 0)
(28.3282 0.00520148 0)
(27.8445 0.00390707 0)
(27.4742 0.00309742 0)
(27.1779 0.00254505 0)
(26.9335 0.00214415 0)
(26.727 0.0018405 0)
(26.5495 0.00160297 0)
(26.3948 0.00141226 0)
(26.2583 0.00125587 0)
(26.137 0.00112542 0)
(26.0282 0.00101503 0)
(25.93 0.00092049 0)
(25.841 0.000838663 0)
(25.7598 0.000767196 0)
(25.6856 0.000704292 0)
(25.6174 0.000648515 0)
(25.5547 0.000598754 0)
(25.4967 0.000554111 0)
(25.443 0.000513867 0)
(25.3933 0.000477406 0)
(25.347 0.000444244 0)
(25.304 0.000413966 0)
(25.2639 0.000386252 0)
(25.2265 0.00036076 0)
(25.1915 0.000337265 0)
(25.1588 0.000315548 0)
(25.1282 0.000295444 0)
(25.0996 0.000276752 0)
(25.0728 0.000259352 0)
(25.0476 0.000243114 0)
(25.024 0.000227975 0)
(25.0019 0.000213754 0)
(24.9811 0.00020041 0)
(24.9617 0.000187858 0)
(24.9434 0.000176073 0)
(24.9263 0.000164924 0)
(24.9103 0.000154396 0)
(24.8953 0.000144431 0)
(24.8812 0.000135067 0)
(24.8681 0.000126121 0)
(24.8558 0.000117635 0)
(24.8443 0.000109561 0)
(24.8336 0.000101946 0)
(24.8237 9.46366e-05 0)
(24.8144 8.76812e-05 0)
(24.8059 8.10355e-05 0)
(24.7979 7.48113e-05 0)
(24.7906 6.87584e-05 0)
(24.7838 6.29832e-05 0)
(24.7776 5.74427e-05 0)
(24.772 5.22389e-05 0)
(24.7668 4.71633e-05 0)
(24.7621 4.23138e-05 0)
(24.7579 3.76431e-05 0)
(24.7542 3.33243e-05 0)
(24.7508 2.90276e-05 0)
(24.7479 2.49148e-05 0)
(24.7454 2.09372e-05 0)
(24.7432 1.72393e-05 0)
(24.7414 1.3563e-05 0)
(24.74 1.00445e-05 0)
(24.7388 6.62937e-06 0)
(24.7381 3.52901e-06 0)
(24.7376 3.61429e-07 0)
(24.7374 -2.67747e-06 0)
(24.7375 -5.63921e-06 0)
(24.7379 -8.35528e-06 0)
(24.7385 -1.11105e-05 0)
(24.7394 -1.3748e-05 0)
(24.7406 -1.63261e-05 0)
(24.742 -1.86241e-05 0)
(24.7436 -2.10265e-05 0)
(24.7455 -2.3327e-05 0)
(24.7476 -2.55827e-05 0)
(24.7499 -2.76331e-05 0)
(24.7524 -2.97427e-05 0)
(24.755 -3.176e-05 0)
(24.7579 -3.37413e-05 0)
(24.761 -3.54998e-05 0)
(24.7642 -3.73547e-05 0)
(24.7676 -3.91272e-05 0)
(24.7712 -4.08691e-05 0)
(24.7749 -4.24584e-05 0)
(24.7788 -4.40901e-05 0)
(24.7829 -4.56469e-05 0)
(24.7871 -4.71731e-05 0)
(24.7914 -4.85546e-05 0)
(24.7959 -4.99798e-05 0)
(24.8005 -5.13325e-05 0)
(24.8052 -5.26486e-05 0)
(24.8101 -5.38801e-05 0)
(24.815 -5.50968e-05 0)
(24.8201 -5.62471e-05 0)
(24.8253 -5.73531e-05 0)
(24.8306 -5.84232e-05 0)
(24.836 -5.94259e-05 0)
(24.8415 -6.03581e-05 0)
(24.8471 -6.12254e-05 0)
(24.8528 -6.20949e-05 0)
(24.8585 -6.28427e-05 0)
(24.8643 -6.35275e-05 0)
(24.8702 -6.41291e-05 0)
(24.8761 -6.48278e-05 0)
(24.8821 -6.52941e-05 0)
(24.8882 -6.569e-05 0)
(24.8942 -6.59698e-05 0)
(24.9004 -6.63493e-05 0)
(24.9065 -6.64727e-05 0)
(24.9127 -6.65445e-05 0)
(24.9188 -6.6487e-05 0)
(24.925 -6.66141e-05 0)
(24.9312 -6.6394e-05 0)
(24.9373 -6.61265e-05 0)
(24.9435 -6.56816e-05 0)
(24.9495 -6.53344e-05 0)
(24.9556 -6.37208e-05 0)
(24.9614 -6.34728e-05 0)
(24.9675 -3.27466e-05 0)
(34.1947 0.0755308 0)
(32.5411 0.0282332 0)
(31.0182 0.016421 0)
(29.9639 0.010304 0)
(29.2379 0.00713879 0)
(28.712 0.00533867 0)
(28.3102 0.00421212 0)
(27.9902 0.00344702 0)
(27.7273 0.00289471 0)
(27.5061 0.00247841 0)
(27.3165 0.00215412 0)
(27.1518 0.00189465 0)
(27.0068 0.00168253 0)
(26.8782 0.00150602 0)
(26.763 0.001357 0)
(26.6593 0.00122959 0)
(26.5653 0.0011195 0)
(26.4798 0.00102349 0)
(26.4016 0.000939077 0)
(26.3299 0.000864316 0)
(26.2639 0.000797686 0)
(26.203 0.000737961 0)
(26.1466 0.000684163 0)
(26.0944 0.000635459 0)
(26.0459 0.000591192 0)
(26.0007 0.000550799 0)
(25.9587 0.000513841 0)
(25.9194 0.000479871 0)
(25.8828 0.000448576 0)
(25.8485 0.000419663 0)
(25.8165 0.000392904 0)
(25.7864 0.000368039 0)
(25.7583 0.000344901 0)
(25.732 0.000323316 0)
(25.7072 0.000303189 0)
(25.6841 0.000284298 0)
(25.6623 0.000266576 0)
(25.6419 0.000249912 0)
(25.6228 0.000234264 0)
(25.6048 0.00021947 0)
(25.588 0.000205505 0)
(25.5723 0.000192291 0)
(25.5575 0.000179861 0)
(25.5437 0.000168004 0)
(25.5308 0.000156759 0)
(25.5187 0.000146066 0)
(25.5075 0.000135968 0)
(25.497 0.000126292 0)
(25.4873 0.000117086 0)
(25.4782 0.000108294 0)
(25.4699 0.000100034 0)
(25.4621 9.20306e-05 0)
(25.455 8.43949e-05 0)
(25.4484 7.7074e-05 0)
(25.4424 7.01773e-05 0)
(25.4369 6.34744e-05 0)
(25.4319 5.70694e-05 0)
(25.4274 5.0905e-05 0)
(25.4233 4.51692e-05 0)
(25.4197 3.95013e-05 0)
(25.4165 3.40752e-05 0)
(25.4138 2.88326e-05 0)
(25.4114 2.39316e-05 0)
(25.4094 1.90889e-05 0)
(25.4077 1.44517e-05 0)
(25.4064 9.95588e-06 0)
(25.4055 5.83246e-06 0)
(25.4048 1.66573e-06 0)
(25.4045 -2.33454e-06 0)
(25.4045 -6.22986e-06 0)
(25.4047 -9.8322e-06 0)
(25.4052 -1.34539e-05 0)
(25.406 -1.69237e-05 0)
(25.4071 -2.03105e-05 0)
(25.4084 -2.33712e-05 0)
(25.41 -2.65254e-05 0)
(25.4117 -2.95486e-05 0)
(25.4137 -3.25076e-05 0)
(25.416 -3.5225e-05 0)
(25.4184 -3.7991e-05 0)
(25.421 -4.06395e-05 0)
(25.4238 -4.32369e-05 0)
(25.4269 -4.55758e-05 0)
(25.4301 -4.80065e-05 0)
(25.4334 -5.03326e-05 0)
(25.437 -5.26149e-05 0)
(25.4407 -5.47167e-05 0)
(25.4446 -5.68542e-05 0)
(25.4486 -5.88969e-05 0)
(25.4528 -6.08973e-05 0)
(25.4571 -6.27265e-05 0)
(25.4616 -6.45944e-05 0)
(25.4662 -6.63705e-05 0)
(25.471 -6.80977e-05 0)
(25.4758 -6.97193e-05 0)
(25.4808 -7.13167e-05 0)
(25.4859 -7.28292e-05 0)
(25.4912 -7.42845e-05 0)
(25.4965 -7.56856e-05 0)
(25.5019 -7.70062e-05 0)
(25.5075 -7.82365e-05 0)
(25.5131 -7.93848e-05 0)
(25.5188 -8.05203e-05 0)
(25.5246 -8.15138e-05 0)
(25.5304 -8.24244e-05 0)
(25.5364 -8.32312e-05 0)
(25.5424 -8.41248e-05 0)
(25.5484 -8.47563e-05 0)
(25.5545 -8.52944e-05 0)
(25.5607 -8.56896e-05 0)
(25.5668 -8.61741e-05 0)
(25.5731 -8.63666e-05 0)
(25.5793 -8.64854e-05 0)
(25.5855 -8.64446e-05 0)
(25.5918 -8.65831e-05 0)
(25.598 -8.63304e-05 0)
(25.6043 -8.60074e-05 0)
(25.6105 -8.54642e-05 0)
(25.6167 -8.5014e-05 0)
(25.6228 -8.29334e-05 0)
(25.6287 -8.26682e-05 0)
(25.6349 -4.26725e-05 0)
(34.5334 0.0801402 0)
(33.3602 0.0337828 0)
(31.9723 0.0212955 0)
(30.8975 0.0138032 0)
(30.1241 0.00962833 0)
(29.5557 0.00718748 0)
(29.1205 0.00564904 0)
(28.7745 0.00460539 0)
(28.4912 0.00385488 0)
(28.2535 0.00329157 0)
(28.0506 0.00285449 0)
(27.8746 0.00250602 0)
(27.7203 0.00222201 0)
(27.5835 0.00198634 0)
(27.4613 0.00178781 0)
(27.3515 0.00161844 0)
(27.2521 0.00147235 0)
(27.1617 0.00134514 0)
(27.0792 0.00123346 0)
(27.0035 0.00113467 0)
(26.934 0.00104673 0)
(26.8699 0.000967974 0)
(26.8106 0.0008971 0)
(26.7556 0.000832994 0)
(26.7046 0.000774771 0)
(26.6572 0.000721682 0)
(26.613 0.000673133 0)
(26.5719 0.000628542 0)
(26.5334 0.000587485 0)
(26.4974 0.000549572 0)
(26.4638 0.000514496 0)
(26.4323 0.000481924 0)
(26.4028 0.000451626 0)
(26.3751 0.000423373 0)
(26.3492 0.000397028 0)
(26.3248 0.000372319 0)
(26.302 0.000349148 0)
(26.2806 0.000327368 0)
(26.2605 0.000306912 0)
(26.2417 0.000287589 0)
(26.224 0.000269353 0)
(26.2074 0.000252103 0)
(26.1919 0.000235863 0)
(26.1774 0.000220395 0)
(26.1638 0.000205727 0)
(26.1511 0.000191785 0)
(26.1393 0.000178607 0)
(26.1282 0.000165998 0)
(26.1179 0.000154004 0)
(26.1084 0.000142554 0)
(26.0995 0.000131771 0)
(26.0913 0.000121353 0)
(26.0837 0.000111416 0)
(26.0767 0.000101893 0)
(26.0703 9.2901e-05 0)
(26.0645 8.41867e-05 0)
(26.0591 7.58595e-05 0)
(26.0543 6.78503e-05 0)
(26.0499 6.03612e-05 0)
(26.046 5.30008e-05 0)
(26.0426 4.59536e-05 0)
(26.0395 3.91507e-05 0)
(26.0369 3.27634e-05 0)
(26.0347 2.64825e-05 0)
(26.0328 2.04663e-05 0)
(26.0313 1.46391e-05 0)
(26.0301 9.2514e-06 0)
(26.0293 3.85449e-06 0)
(26.0288 -1.32885e-06 0)
(26.0286 -6.37265e-06 0)
(26.0287 -1.10691e-05 0)
(26.0291 -1.57572e-05 0)
(26.0297 -2.02518e-05 0)
(26.0307 -2.46331e-05 0)
(26.0319 -2.86357e-05 0)
(26.0333 -3.27143e-05 0)
(26.035 -3.66264e-05 0)
(26.0369 -4.04495e-05 0)
(26.039 -4.39885e-05 0)
(26.0414 -4.75608e-05 0)
(26.044 -5.09849e-05 0)
(26.0467 -5.43382e-05 0)
(26.0497 -5.73927e-05 0)
(26.0528 -6.05301e-05 0)
(26.0562 -6.35361e-05 0)
(26.0597 -6.64812e-05 0)
(26.0634 -6.92137e-05 0)
(26.0672 -7.19719e-05 0)
(26.0712 -7.46113e-05 0)
(26.0754 -7.71935e-05 0)
(26.0797 -7.95734e-05 0)
(26.0842 -8.19851e-05 0)
(26.0888 -8.42815e-05 0)
(26.0935 -8.65136e-05 0)
(26.0984 -8.86151e-05 0)
(26.1034 -9.06808e-05 0)
(26.1085 -9.26392e-05 0)
(26.1138 -9.45245e-05 0)
(26.1191 -9.63326e-05 0)
(26.1246 -9.80459e-05 0)
(26.1302 -9.96448e-05 0)
(26.1358 -0.000101141 0)
(26.1416 -0.000102605 0)
(26.1474 -0.000103904 0)
(26.1533 -0.000105096 0)
(26.1593 -0.00010616 0)
(26.1653 -0.000107294 0)
(26.1714 -0.000108136 0)
(26.1776 -0.000108855 0)
(26.1838 -0.0001094 0)
(26.19 -0.000110018 0)
(26.1963 -0.000110305 0)
(26.2026 -0.000110491 0)
(26.2089 -0.000110482 0)
(26.2152 -0.000110639 0)
(26.2216 -0.000110359 0)
(26.2279 -0.000109979 0)
(26.2342 -0.000109329 0)
(26.2404 -0.000108763 0)
(26.2467 -0.000106134 0)
(26.2527 -0.000105852 0)
(26.2589 -5.46741e-05 0)
(34.7383 0.0835127 0)
(34.0044 0.0389143 0)
(32.8456 0.0266758 0)
(31.8006 0.0180608 0)
(30.9964 0.0127823 0)
(30.3892 0.00956166 0)
(29.9198 0.00749914 0)
(29.546 0.00609467 0)
(29.2402 0.00508592 0)
(28.9844 0.00433098 0)
(28.7664 0.00374714 0)
(28.578 0.0032832 0)
(28.413 0.00290623 0)
(28.2672 0.00259427 0)
(28.1371 0.00233213 0)
(28.0204 0.00210898 0)
(27.9149 0.00191687 0)
(27.8191 0.00174987 0)
(27.7318 0.00160349 0)
(27.6518 0.00147419 0)
(27.5783 0.00135922 0)
(27.5106 0.0012564 0)
(27.4481 0.00116395 0)
(27.3901 0.00108041 0)
(27.3364 0.0010046 0)
(27.2864 0.000935532 0)
(27.2399 0.000872411 0)
(27.1966 0.000814481 0)
(27.1561 0.000761176 0)
(27.1182 0.000711983 0)
(27.0829 0.000666492 0)
(27.0497 0.000624274 0)
(27.0187 0.000585023 0)
(26.9896 0.000548438 0)
(26.9623 0.000514327 0)
(26.9367 0.000482359 0)
(26.9127 0.000452391 0)
(26.8902 0.000424234 0)
(26.869 0.000397789 0)
(26.8492 0.000372825 0)
(26.8306 0.000349273 0)
(26.8131 0.000327002 0)
(26.7968 0.000306023 0)
(26.7814 0.000286064 0)
(26.7671 0.000267145 0)
(26.7537 0.000249166 0)
(26.7412 0.000232163 0)
(26.7295 0.000215914 0)
(26.7186 0.00020046 0)
(26.7085 0.000185713 0)
(26.6991 0.0001718 0)
(26.6903 0.00015839 0)
(26.6823 0.000145599 0)
(26.6748 0.000133349 0)
(26.668 0.000121761 0)
(26.6617 0.000110557 0)
(26.656 9.98507e-05 0)
(26.6508 8.95598e-05 0)
(26.6461 7.98989e-05 0)
(26.6418 7.04461e-05 0)
(26.6381 6.13951e-05 0)
(26.6347 5.26647e-05 0)
(26.6318 4.44388e-05 0)
(26.6293 3.63823e-05 0)
(26.6272 2.86633e-05 0)
(26.6254 2.11933e-05 0)
(26.624 1.4242e-05 0)
(26.623 7.32752e-06 0)
(26.6223 6.86312e-07 0)
(26.6219 -5.77171e-06 0)
(26.6218 -1.18204e-05 0)
(26.6221 -1.78231e-05 0)
(26.6226 -2.35814e-05 0)
(26.6234 -2.91879e-05 0)
(26.6244 -3.43548e-05 0)
(26.6257 -3.95722e-05 0)
(26.6273 -4.45794e-05 0)
(26.6291 -4.9466e-05 0)
(26.6311 -5.4019e-05 0)
(26.6334 -5.85834e-05 0)
(26.6359 -6.29622e-05 0)
(26.6386 -6.72451e-05 0)
(26.6414 -7.11824e-05 0)
(26.6445 -7.51891e-05 0)
(26.6478 -7.90317e-05 0)
(26.6513 -8.27918e-05 0)
(26.6549 -8.63012e-05 0)
(26.6587 -8.98227e-05 0)
(26.6627 -9.31962e-05 0)
(26.6668 -9.64937e-05 0)
(26.6711 -9.95524e-05 0)
(26.6756 -0.000102633 0)
(26.6802 -0.000105571 0)
(26.6849 -0.000108424 0)
(26.6898 -0.000111117 0)
(26.6948 -0.00011376 0)
(26.6999 -0.000116269 0)
(26.7052 -0.000118685 0)
(26.7105 -0.000120994 0)
(26.716 -0.000123194 0)
(26.7216 -0.00012525 0)
(26.7273 -0.000127179 0)
(26.733 -0.000129048 0)
(26.7389 -0.00013073 0)
(26.7449 -0.000132274 0)
(26.7509 -0.000133661 0)
(26.757 -0.000135093 0)
(26.7631 -0.000136201 0)
(26.7693 -0.000137153 0)
(26.7756 -0.000137893 0)
(26.7819 -0.00013868 0)
(26.7883 -0.000139097 0)
(26.7946 -0.000139377 0)
(26.801 -0.00013942 0)
(26.8074 -0.000139609 0)
(26.8138 -0.000139311 0)
(26.8202 -0.000138877 0)