/*--------------------------------*- C++ -*----------------------------------*\
  =========                 |
  \\      /  F ield         | OpenFOAM: The Open Source CFD Toolbox
   \\    /   O peration     | Website:  https://openfoam.org
    \\  /    A nd           | Version:  7
     \\/     M anipulation  |
\*---------------------------------------------------------------------------*/
FoamFile
{
    version     2.0;
    format      ascii;
    class       volScalarField;
    location    "2.2";
    object      T;
}
// * * * * * * * * * * * * * * * * * * * * * * * * * * * * * * * * * * * * * //

dimensions      [0 0 0 1 0 0 0];

internalField   nonuniform List<scalar> 
32100
(
5.59828e+56
-1.33202e+56
6.85233e+54
5.58888e+53
-1.74106e+53
-2.0071e+51
1.72172e+51
-1.08038e+50
-6.00589e+48
2.15623e+48
-1.70507e+45
-3.75266e+45
1.80756e+43
1.66689e+43
5.49579e+42
-1.46986e+56
7.15951e+54
6.2451e+53
-1.80681e+53
-2.28911e+51
1.77908e+51
-1.10257e+50
-6.29163e+48
2.20947e+48
8.37433e+45
-1.14315e+46
-4.92266e+45
1.16127e+44
1.41184e+43
4.3711e+42
7.3707e+54
7.21843e+53
-1.90265e+53
-2.61868e+51
1.85513e+51
-1.15507e+50
-6.93648e+48
2.26146e+48
-1.34997e+46
-3.11397e+46
-6.73396e+45
-3.00341e+45
1.59567e+44
1.32173e+43
3.49605e+42
8.67496e+53
-2.06749e+53
-3.87548e+51
1.99039e+51
-1.15158e+50
-1.02273e+49
2.01983e+48
1.43845e+46
-2.43894e+46
-1.39898e+45
-3.04072e+45
-1.25517e+45
1.52383e+44
1.40796e+43
2.3689e+42
-2.22195e+53
-8.13544e+51
1.38456e+51
-8.21727e+49
-7.01203e+48
-6.79498e+47
-3.00511e+47
-4.72204e+45
3.086e+45
-7.28471e+44
-7.66079e+44
-3.24597e+44
1.17616e+44
1.26241e+43
1.03951e+42
-1.10934e+52
-1.61699e+51
-8.22278e+50
2.29938e+49
3.74448e+48
-2.92282e+48
-3.39848e+47
1.89619e+46
1.95698e+45
-1.94196e+44
1.19607e+43
5.8569e+41
7.49396e+43
8.40456e+42
-1.75768e+40
-2.95118e+51
-3.77058e+51
-7.0952e+50
2.81754e+49
1.97899e+48
-2.79932e+48
-3.294e+47
1.43239e+46
1.99896e+45
-8.25374e+43
9.2715e+43
5.57361e+43
3.80339e+43
3.66379e+42
-5.55916e+41
-5.29413e+51
-3.39871e+51
-6.94156e+50
1.95166e+49
2.58281e+48
-2.60099e+48
-3.45325e+47
1.09848e+46
2.18252e+45
-1.05089e+44
6.27909e+43
3.3868e+43
1.40038e+43
4.81873e+41
-6.31293e+41
-4.85362e+51
-3.12742e+51
-6.89926e+50
1.30236e+49
3.18291e+48
-2.41571e+48
-3.57172e+47
7.61339e+45
2.30052e+45
-1.14693e+44
3.31129e+43
1.30309e+43
2.85528e+42
-7.16716e+41
-4.58314e+41
-4.51046e+51
-2.8759e+51
-6.80015e+50
6.38046e+48
3.67239e+48
-2.2175e+48
-3.66121e+47
4.01325e+45
2.3887e+45
-1.00772e+44
2.07695e+43
7.07455e+42
-3.39162e+41
-7.18194e+41
-2.44435e+41
-4.2023e+51
-2.63593e+51
-6.68392e+50
-4.11263e+47
4.07162e+48
-2.01229e+48
-3.72164e+47
3.13623e+44
2.42824e+45
-7.78263e+43
1.48308e+43
6.20338e+42
-4.54206e+41
-3.81044e+41
-9.53032e+40
-3.91934e+51
-2.4285e+51
-6.51466e+50
-7.0234e+48
4.38545e+48
-1.80453e+48
-3.75313e+47
-3.38759e+45
2.41124e+45
-5.25662e+43
1.02353e+43
5.6457e+42
-3.85985e+40
-1.36007e+41
-2.36475e+40
-3.7402e+51
-2.26301e+51
-6.10551e+50
-1.2874e+49
4.45584e+48
-1.59981e+48
-3.75847e+47
-6.98611e+45
2.33636e+45
-2.73828e+43
6.49211e+42
4.73091e+42
1.0651e+41
-4.15852e+40
-2.59556e+39
-3.78454e+51
-1.87577e+51
-4.93977e+50
-1.61061e+49
3.88612e+48
-1.40858e+48
-3.68997e+47
-1.0271e+46
2.20025e+45
-3.06508e+42
3.76342e+42
4.17719e+42
1.23722e+41
-2.0964e+40
4.60849e+38
-2.9904e+51
-1.36713e+51
-3.9531e+50
-1.67582e+49
3.16799e+48
-1.10789e+48
-3.29487e+47
-1.26478e+46
2.00446e+45
2.07739e+43
1.7507e+42
4.46388e+42
1.6891e+41
-1.91693e+40
7.9553e+38
-1.99095e+51
-1.0389e+51
-3.42445e+50
-1.7497e+49
2.84187e+48
-8.33167e+47
-2.93583e+47
-1.49961e+46
1.82788e+45
4.65721e+43
-3.37461e+41
4.82996e+42
2.64491e+41
-2.3121e+40
7.57383e+38
-1.56089e+51
-8.85208e+50
-3.12921e+50
-1.88398e+49
2.7392e+48
-6.65439e+47
-2.80224e+47
-1.78708e+46
1.67031e+45
7.37155e+43
-2.40203e+42
4.73782e+42
3.56216e+41
-2.59254e+40
4.95148e+38
-1.38361e+51
-7.97944e+50
-2.98317e+50
-2.08797e+49
2.63564e+48
-5.42238e+47
-2.73272e+47
-2.10439e+46
1.48077e+45
1.02589e+44
-4.06233e+42
4.42856e+42
4.32569e+41
-2.53252e+40
8.57071e+36
-1.24446e+51
-7.24922e+50
-2.84196e+50
-2.30997e+49
2.44566e+48
-4.28287e+47
-2.67162e+47
-2.44922e+46
1.24165e+45
1.32332e+44
-5.16139e+42
3.99443e+42
4.94081e+41
-2.17918e+40
-6.13885e+38
-1.13244e+51
-6.57072e+50
-2.69017e+50
-2.5275e+49
2.1898e+48
-3.16073e+47
-2.59707e+47
-2.80619e+46
9.4112e+44
1.61624e+44
-5.56516e+42
3.55409e+42
5.59179e+41
-1.66378e+40
-1.31248e+39
-1.03393e+51
-5.91912e+50
-2.52358e+50
-2.72997e+49
1.87243e+48
-2.05974e+47
-2.50153e+47
-3.16563e+46
5.71716e+44
1.89791e+44
-5.25746e+42
3.03746e+42
6.1057e+41
-9.81041e+39
-2.00285e+39
-9.37551e+50
-5.27678e+50
-2.35057e+50
-2.9187e+49
1.49068e+48
-1.00035e+47
-2.38089e+47
-3.52753e+46
1.26146e+44
2.16497e+44
-4.194e+42
2.45698e+42
6.30965e+41
-1.76336e+39
-2.53496e+39
-8.416e+50
-4.66138e+50
-2.17837e+50
-3.0887e+49
1.04178e+48
-1.54236e+45
-2.23303e+47
-3.8911e+46
-4.08747e+44
2.41369e+44
-2.28153e+42
1.89929e+42
6.45614e+41
6.64245e+39
-2.87194e+39
-7.4799e+50
-4.08444e+50
-2.00705e+50
-3.23369e+49
5.23447e+47
8.59122e+46
-2.05813e+47
-4.25453e+46
-1.05125e+45
2.62893e+44
6.15087e+41
1.37451e+42
6.64464e+41
1.54624e+40
-3.06525e+39
-6.59697e+50
-3.56407e+50
-1.84089e+50
-3.3556e+49
-6.21191e+46
1.59491e+47
-1.85621e+47
-4.60795e+46
-1.82382e+45
2.77735e+44
4.69399e+42
8.66819e+41
6.86293e+41
2.51954e+40
-3.18145e+39
-5.77637e+50
-3.10046e+50
-1.67709e+50
-3.4495e+49
-7.11682e+47
2.15939e+47
-1.6273e+47
-4.9339e+46
-2.75182e+45
2.82344e+44
1.01738e+43
3.69535e+41
7.12287e+41
3.67759e+40
-3.27791e+39
-5.03643e+50
-2.68378e+50
-1.51641e+50
-3.51584e+49
-1.42357e+48
2.51558e+47
-1.37341e+47
-5.21858e+46
-3.85799e+45
2.71647e+44
1.72534e+43
-1.18522e+41
7.30044e+41
5.05556e+40
-3.288e+39
-4.40204e+50
-2.32023e+50
-1.36676e+50
-3.5645e+49
-2.19472e+48
2.62397e+47
-1.09658e+47
-5.44409e+46
-5.1496e+45
2.40159e+44
2.60399e+43
-5.5361e+41
7.1647e+41
6.50194e+40
-3.05923e+39
-3.86101e+50
-2.01902e+50
-1.2326e+50
-3.59786e+49
-3.01972e+48
2.44464e+47
-8.0183e+46
-5.59564e+46
-6.64117e+45
1.76364e+44
3.65294e+43
-8.63469e+41
6.788e+41
8.03265e+40
-2.57531e+39
-3.37651e+50
-1.77035e+50
-1.10979e+50
-3.60218e+49
-3.88272e+48
1.93021e+47
-4.95447e+46
-5.65336e+46
-8.36871e+45
6.72627e+43
4.85004e+43
-9.65668e+41
6.17679e+41
9.70403e+40
-1.81662e+39
-2.91411e+50
-1.54321e+50
-9.86635e+49
-3.55853e+49
-4.76477e+48
1.02943e+47
-1.86139e+46
-5.5893e+46
-1.03593e+46
-1.0438e+44
6.17276e+43
-7.38742e+41
5.12733e+41
1.12049e+41
-7.55918e+38
-2.47138e+50
-1.31495e+50
-8.54775e+49
-3.4696e+49
-5.64579e+48
-3.10736e+46
1.11017e+46
-5.36221e+46
-1.26107e+46
-3.63103e+44
7.56475e+43
-4.42591e+40
3.81419e+41
1.25356e+41
5.44998e+38
-2.0872e+50
-1.10347e+50
-7.31229e+49
-3.34025e+49
-6.49363e+48
-2.14445e+47
3.73007e+46
-4.91518e+46
-1.50448e+46
-7.42953e+44
8.87644e+43
1.32899e+42
2.47313e+41
1.43972e+41
2.29867e+39
-1.77899e+50
-9.42512e+49
-6.32524e+49
-3.18021e+49
-7.30286e+48
-4.52423e+47
5.66677e+46
-4.20934e+46
-1.74813e+46
-1.28374e+45
9.69187e+43
3.96054e+42
8.60116e+40
1.72985e+41
5.23893e+39
-1.52162e+50
-8.30198e+49
-5.52854e+49
-3.00007e+49
-8.07973e+48
-7.51022e+47
6.42794e+46
-3.2303e+46
-1.96537e+46
-2.03021e+45
9.15831e+43
8.50099e+42
-1.21332e+41
2.09016e+41
1.05274e+40
-1.29456e+50
-7.323e+49
-4.77413e+49
-2.8043e+49
-8.80902e+48
-1.11381e+48
5.39147e+46
-2.00048e+46
-2.12152e+46
-3.01226e+45
5.72626e+43
1.58981e+43
-3.41157e+41
2.44001e+41
1.99858e+40
-1.09512e+50
-6.39066e+49
-4.06845e+49
-2.60304e+49
-9.47474e+48
-1.53503e+48
2.09098e+46
-6.08809e+45
-2.18158e+46
-4.21885e+45
-2.92701e+43
2.70673e+43
-4.27647e+41
2.58693e+41
3.61742e+40
-9.20412e+49
-5.60152e+49
-3.47321e+49
-2.39788e+49
-1.00376e+49
-1.99668e+48
-3.87923e+46
7.9446e+45
-2.10871e+46
-5.59601e+45
-1.95458e+44
4.00782e+43
-2.27231e+40
2.21403e+41
6.04415e+40
-7.66323e+49
-4.96742e+49
-2.98656e+49
-2.17829e+49
-1.03879e+49
-2.45715e+48
-1.28889e+47
2.00242e+46
-1.86592e+46
-6.98927e+45
-4.61887e+44
5.1079e+43
1.38875e+42
1.08662e+41
9.12823e+40
-6.29336e+49
-4.45826e+49
-2.60389e+49
-1.95038e+49
-1.03389e+49
-2.87904e+48
-2.4966e+47
2.72817e+46
-1.44119e+46
-8.13182e+45
-8.33645e+44
5.39436e+43
4.60664e+42
-9.0849e+40
1.2261e+41
-5.05433e+49
-4.00526e+49
-2.30319e+49
-1.71584e+49
-9.90726e+48
-3.23393e+48
-3.95529e+47
2.64471e+46
-8.62699e+45
-8.79185e+45
-1.29329e+45
4.06687e+43
1.06593e+43
-3.3748e+41
1.353e+41
-3.93781e+49
-3.52481e+49
-2.05334e+49
-1.47684e+49
-9.27951e+48
-3.50366e+48
-5.56623e+47
1.56307e+46
-1.88214e+45
-8.88239e+45
-1.78173e+45
2.66972e+42
1.74835e+43
-4.04967e+41
1.0238e+41
-2.99407e+49
-3.00295e+49
-1.82061e+49
-1.25409e+49
-8.56063e+48
-3.68062e+48
-7.20547e+47
-6.21799e+45
4.80474e+45
-8.34911e+45
-2.17002e+45
-5.68987e+43
2.30702e+43
-1.29239e+41
2.18931e+40
-2.25123e+49
-2.49964e+49
-1.59696e+49
-1.06972e+49
-7.80661e+48
-3.76849e+48
-8.77694e+47
-3.74395e+46
9.65076e+45
-7.24911e+45
-2.46396e+45
-1.26527e+44
2.73405e+43
4.83562e+41
-8.50374e+40
-1.69124e+49
-2.06913e+49
-1.40739e+49
-9.28097e+48
-7.07094e+48
-3.78644e+48
-1.02243e+48
-7.43731e+46
1.2335e+46
-5.55418e+45
-2.71835e+45
-1.92298e+44
2.71278e+43
1.47517e+42
-3.32844e+41
-1.2769e+49
-1.72424e+49
-1.25821e+49
-8.1951e+48
-6.39761e+48
-3.76007e+48
-1.15723e+48
-1.1479e+47
1.33376e+46
-3.65977e+45
-2.61708e+45
-2.27053e+44
2.138e+43
1.88324e+42
-2.25448e+41
-9.65333e+48
-1.44732e+49
-1.14473e+49
-7.39483e+48
-5.80722e+48
-3.71182e+48
-1.28855e+48
-1.60469e+47
1.26723e+46
-1.98736e+45
-2.39418e+45
-2.4223e+44
1.57963e+43
1.58955e+42
-1.05358e+41
-7.27043e+48
-1.21586e+49
-1.05627e+49
-6.84502e+48
-5.29352e+48
-3.63303e+48
-1.41284e+48
-2.11399e+47
1.09423e+46
-6.01662e+44
-2.30955e+45
-2.6307e+44
1.26721e+43
1.49782e+42
-8.18082e+40
-5.39986e+48
-1.01282e+49
-9.73034e+48
-6.43462e+48
-4.82351e+48
-3.49814e+48
-1.51261e+48
-2.66123e+47
7.64896e+45
6.9123e+44
-2.26681e+45
-2.89752e+44
1.08767e+43
1.58052e+42
-8.76223e+40
-3.95052e+48
-8.32289e+48
-8.88677e+48
-6.10279e+48
-4.39323e+48
-3.31969e+48
-1.58352e+48
-3.22879e+47
2.40275e+45
1.96128e+45
-2.22641e+45
-3.18881e+44
9.3615e+42
1.73913e+42
-1.06626e+41
-2.83974e+48
-6.76223e+48
-8.11071e+48
-5.88027e+48
-4.03239e+48
-3.13616e+48
-1.64736e+48
-3.82957e+47
-4.95537e+45
3.209e+45
-2.1597e+45
-3.4452e+44
7.49479e+42
1.81151e+42
-1.31463e+41
-1.99467e+48
-5.41834e+48
-7.39235e+48
-5.699e+48
-3.74895e+48
-2.95249e+48
-1.71017e+48
-4.50553e+47
-1.49094e+46
4.41291e+45
-2.03289e+45
-3.56966e+44
5.01687e+42
1.63908e+42
-1.64095e+41
-1.37505e+48
-4.23722e+48
-6.58006e+48
-5.48473e+48
-3.527e+48
-2.7665e+48
-1.7576e+48
-5.25739e+47
-2.80216e+46
5.51639e+45
-1.84856e+45
-3.52357e+44
2.21272e+42
1.20754e+42
-2.40411e+41
-9.30252e+47
-3.23437e+48
-5.69445e+48
-5.26309e+48
-3.39179e+48
-2.58722e+48
-1.78608e+48
-6.06086e+47
-4.47701e+46
6.41532e+45
-1.62908e+45
-3.30916e+44
-5.76281e+41
5.91235e+41
-4.37091e+41
-6.08428e+47
-2.42123e+48
-4.86329e+48
-5.07244e+48
-3.35568e+48
-2.41507e+48
-1.79044e+48
-6.88969e+47
-6.55299e+46
7.02259e+45
-1.38983e+45
-2.90636e+44
-3.27119e+42
-8.20518e+40
-7.50658e+41
-3.78004e+47
-1.75639e+48
-4.07474e+48
-4.8769e+48
-3.37311e+48
-2.2549e+48
-1.76823e+48
-7.71225e+47
-9.0546e+46
7.20884e+45
-1.14904e+45
-2.26269e+44
-6.07114e+42
-5.16453e+41
-8.34062e+41
-2.17689e+47
-1.21159e+48
-3.30853e+48
-4.60523e+48
-3.42037e+48
-2.12295e+48
-1.72348e+48
-8.55071e+47
-1.19759e+47
6.64419e+45
-8.93872e+44
-1.33996e+44
-8.04499e+42
-7.53214e+41
-7.75582e+41
-1.13736e+47
-7.82723e+47
-2.57693e+48
-4.24222e+48
-3.47959e+48
-2.03069e+48
-1.64561e+48
-9.36117e+47
-1.52832e+47
5.36889e+45
-6.43657e+44
-3.96996e+43
-1.07228e+43
-1.48783e+42
-8.19183e+41
-5.28145e+46
-4.62507e+47
-1.89777e+48
-3.78299e+48
-3.51303e+48
-1.98696e+48
-1.53142e+48
-9.99077e+47
-1.90439e+47
3.92252e+45
-4.36363e+44
1.57735e+43
-1.54178e+43
-3.36863e+42
-1.3109e+42
-2.07969e+46
-2.40803e+47
-1.29312e+48
-3.23355e+48
-3.49704e+48
-2.0096e+48
-1.39231e+48
-1.02147e+48
-2.36255e+47
3.85364e+45
-1.12582e+44
2.11506e+43
-1.68113e+43
-6.36531e+42
-2.62983e+42
-6.25426e+45
-1.00407e+47
-7.80153e+47
-2.61632e+48
-3.42409e+48
-2.12072e+48
-1.24456e+48
-9.7492e+47
-2.85299e+47
1.60044e+45
-7.01851e+44
-1.99773e+44
-9.85931e+43
-6.19243e+43
-2.22348e+43
-1.75795e+45
-2.56231e+46
-3.76611e+47
-1.94892e+48
-3.27992e+48
-2.33927e+48
-1.12166e+48
-8.49707e+47
-3.11306e+47
-1.37945e+46
-2.20492e+44
-3.4691e+44
4.16431e+43
-2.48138e+43
-3.49083e+43
-1.52156e+45
-1.12408e+45
-1.02745e+47
-1.25114e+48
-3.02089e+48
-2.65753e+48
-1.08323e+48
-6.93054e+47
-3.50762e+47
-5.73769e+46
-2.70424e+45
-2.56455e+45
-1.94986e+45
-1.32305e+45
-4.82658e+44
-1.30412e+45
-1.82593e+45
2.40175e+46
-5.72916e+47
-2.5758e+48
-3.01303e+48
-1.1799e+48
-5.06772e+47
-3.70549e+47
-1.17158e+47
-4.91068e+46
-3.87892e+46
-4.93335e+46
-6.30175e+46
-3.90825e+46
1.13698e+44
-2.33704e+45
2.71862e+46
-6.46843e+46
-1.88902e+48
-3.29096e+48
-1.42294e+48
-3.03707e+47
-3.04093e+47
-1.14509e+47
-1.22516e+47
-1.13663e+47
-1.48017e+47
-1.27016e+47
-6.90477e+46
-7.21353e+45
-1.90606e+45
5.04623e+46
2.18629e+46
-1.11086e+48
-3.32165e+48
-1.73017e+48
-1.70008e+47
-1.84973e+47
-3.17173e+46
-2.99689e+46
-6.29753e+46
-7.18966e+46
-5.81145e+46
-6.56493e+46
7.70013e+47
3.29884e+47
1.77544e+47
-1.07643e+47
-1.04148e+48
-2.77766e+48
-1.88204e+48
-1.41443e+47
-8.85688e+46
4.64021e+45
-6.90437e+45
-8.93573e+45
-1.25805e+46
-2.07813e+46
-5.7237e+46
-9.68087e+48
-3.95075e+48
-1.57217e+48
-7.43265e+47
-1.79043e+48
-2.74257e+48
-1.29997e+48
-1.47558e+47
-2.06529e+46
-8.63584e+46
-5.30792e+46
-3.294e+46
-2.30506e+46
-1.84973e+46
-4.63664e+46
-4.77349e+49
-1.42992e+49
-1.16884e+49
-9.47152e+48
-6.65928e+48
-2.27e+48
3.11058e+47
5.24615e+47
-1.50092e+46
-1.13122e+47
-7.84344e+46
-4.70391e+46
-2.8952e+46
-1.84069e+46
-3.92162e+46
1.92956e+51
4.85183e+50
1.44181e+50
5.45824e+49
2.35888e+49
1.18626e+49
4.52315e+48
4.4536e+47
-3.53538e+47
-3.22826e+47
-1.80914e+47
-9.22224e+46
-4.74914e+46
-2.50077e+46
-3.5011e+46
1.78198e+52
4.46199e+51
2.20666e+51
1.03714e+51
5.18712e+50
2.67008e+50
1.00152e+50
2.29101e+49
4.12881e+48
5.90523e+47
5.43234e+46
8.58022e+45
1.4718e+46
1.52003e+46
5.30314e+46
-3.77591e+53
-3.7567e+52
7.41804e+50
2.54477e+51
1.79001e+51
8.09784e+50
2.27915e+50
5.12521e+49
1.14955e+49
3.22811e+48
1.35819e+48
7.88194e+47
5.01391e+47
3.21071e+47
4.77948e+47
2.66718e+54
-1.1512e+53
-7.4791e+52
-1.2021e+52
1.78088e+50
7.92519e+50
2.62164e+50
5.57356e+49
1.27198e+49
2.9735e+48
3.93831e+47
-1.92375e+47
-1.61571e+47
6.75998e+46
5.10905e+47
6.19906e+54
2.72785e+54
-4.69995e+52
-1.6876e+52
1.61227e+51
3.73923e+50
1.97513e+50
5.56028e+49
1.56766e+49
1.05315e+49
8.64868e+48
6.52221e+48
4.03792e+48
2.08182e+48
1.27544e+48
-2.77195e+56
4.65031e+54
2.99865e+54
-4.04707e+53
4.03265e+52
5.06958e+51
1.23507e+50
1.70996e+50
1.21274e+50
7.27697e+49
4.71026e+49
3.03144e+49
1.85318e+49
1.02698e+49
4.55389e+48
-6.41106e+55
-2.65387e+56
9.72671e+54
2.1787e+54
-4.37786e+53
3.49693e+52
-4.50756e+51
-8.81672e+51
-7.91978e+51
-6.82603e+51
-5.50572e+51
-4.01352e+51
-2.49779e+51
-1.23245e+51
-4.30939e+50
1.26909e+58
-2.02354e+56
-2.41217e+56
9.09912e+54
1.80005e+54
-5.44313e+53
-6.5038e+52
-7.8973e+52
-6.3355e+52
-4.62048e+52
-3.26936e+52
-2.22809e+52
-1.4012e+52
-7.67854e+51
-2.91191e+51
-5.30305e+58
1.16667e+58
-2.68782e+56
-2.30539e+56
8.53057e+54
1.62339e+54
-4.70008e+53
7.18103e+52
9.33968e+52
1.13651e+53
1.14556e+53
9.50596e+52
6.23853e+52
2.89371e+52
1.00399e+52
-7.62709e+59
-4.32266e+58
1.08642e+58
-3.05221e+56
-2.19443e+56
1.0689e+55
3.13608e+54
4.72013e+53
4.93907e+53
1.47801e+53
-4.23026e+52
-1.02892e+53
-8.61373e+52
-3.97683e+52
-1.47039e+52
1.52635e+61
-7.28465e+59
-3.66584e+58
1.03638e+58
-3.2409e+56
-2.14343e+56
1.05928e+55
4.45502e+54
3.02956e+54
3.89159e+54
3.80445e+54
3.26914e+54
2.44556e+54
1.53082e+54
7.47209e+53
1.14302e+62
4.23334e+61
-1.99194e+60
-1.17142e+59
3.15434e+58
7.27152e+56
6.67889e+56
1.33306e+57
1.27457e+57
1.1576e+57
9.9956e+56
8.15742e+56
6.11288e+56
4.40528e+56
3.25829e+56
-4.01826e+63
1.0033e+62
4.04777e+61
-1.83327e+60
-1.18922e+59
4.3773e+58
1.10399e+58
8.61232e+57
8.0544e+57
6.6863e+57
4.6947e+57
3.13319e+57
2.13928e+57
1.44806e+57
8.66648e+56
3.07138e+64
-3.67523e+63
1.11355e+62
3.99342e+61
-1.39033e+60
-6.75207e+58
9.37191e+58
4.71287e+58
3.36997e+58
2.55486e+58
1.83665e+58
1.22706e+58
7.32814e+57
3.88368e+57
2.1601e+57
-7.03826e+64
2.63553e+64
-3.50405e+63
7.37706e+61
5.0811e+61
2.93078e+60
1.2443e+59
3.73895e+59
2.36092e+59
1.42223e+59
8.74453e+58
5.05802e+58
2.57894e+58
1.13931e+58
5.49062e+57
-9.40912e+65
-4.81145e+64
2.36257e+64
-3.20768e+63
9.68216e+61
3.06638e+61
-5.54177e+59
3.2258e+59
2.5854e+59
1.57742e+59
1.0648e+59
7.34529e+58
4.70961e+58
2.61486e+58
1.4608e+58
-6.27743e+64
2.59748e+64
-3.63735e+63
9.94267e+61
3.90989e+61
-8.51329e+59
3.31237e+59
3.34392e+59
2.05162e+59
1.3371e+59
9.12133e+58
7.10447e+58
5.44351e+58
3.76838e+58
2.48165e+58
3.15772e+64
-3.97084e+63
-2.9427e+61
2.56957e+61
5.16241e+59
9.81165e+58
2.76979e+59
2.56064e+59
1.91268e+59
1.29626e+59
8.48723e+58
6.98927e+58
5.5623e+58
4.28053e+58
3.04694e+58
-2.74047e+63
-2.40441e+62
-3.11127e+61
-5.9031e+60
-2.98776e+59
6.37556e+59
6.12427e+59
4.48178e+59
3.02526e+59
1.97953e+59
1.34278e+59
1.11643e+59
6.90932e+58
4.3119e+58
2.58326e+58
7.73247e+60
7.67173e+60
8.13385e+60
4.53591e+60
2.43388e+60
1.351e+60
7.74758e+59
4.571e+59
2.76822e+59
1.8906e+59
1.64637e+59
1.92973e+59
1.39423e+58
2.11829e+57
6.1408e+56
1.22083e+61
3.39383e+60
1.25015e+60
5.73129e+59
2.92483e+59
1.61352e+59
9.55275e+58
6.05725e+58
4.58668e+58
8.99224e+58
2.90446e+58
-1.74941e+57
5.29041e+56
7.66006e+55
2.96365e+55
-2.53545e+59
-7.76074e+58
-5.18605e+58
-3.59646e+58
-2.47306e+58
-1.75838e+58
-1.30573e+58
-1.06192e+58
-1.42117e+58
4.39562e+58
7.39757e+58
9.38694e+56
-2.94318e+57
-1.5664e+57
-7.84833e+56
-3.92827e+58
-1.46801e+58
-5.46831e+57
-2.69541e+57
-1.48584e+57
-7.06947e+56
-5.86725e+56
-3.40685e+56
1.90544e+57
7.99864e+57
5.78099e+58
3.76707e+58
2.14673e+58
1.20371e+58
6.74592e+57
4.40921e+57
1.4653e+57
8.50063e+56
6.48259e+56
5.37857e+56
4.01076e+56
1.59655e+56
-2.96424e+55
-1.36983e+56
-7.48406e+56
2.96526e+57
7.00244e+57
7.48654e+57
6.18541e+57
4.6948e+57
3.56553e+56
1.58041e+56
4.00432e+55
4.50679e+54
-9.62341e+54
-1.44524e+55
-8.43136e+53
9.97237e+54
1.11813e+55
4.32785e+55
-2.07092e+56
-3.20079e+56
-2.85918e+56
-2.34194e+56
-1.96845e+56
-1.04328e+56
-3.8083e+55
-2.02681e+55
-1.42446e+55
-1.13115e+55
-8.59403e+54
-5.336e+54
-2.35956e+54
5.24896e+53
7.2837e+54
1.96622e+55
1.47175e+55
8.251e+54
5.13284e+54
3.64162e+54
-2.68737e+54
-1.61022e+54
-1.52235e+53
3.94526e+53
5.78154e+53
5.16254e+53
3.94843e+52
-4.18847e+53
-6.91382e+53
-1.01192e+54
2.38715e+54
4.1126e+54
3.82599e+54
3.15049e+54
2.4889e+54
2.0597e+54
8.38982e+53
3.34134e+53
1.5852e+53
8.49459e+52
4.34152e+52
2.24412e+52
-8.03868e+51
-1.06569e+53
-3.60241e+53
-7.24746e+53
-6.68097e+53
-5.03977e+53
-3.77563e+53
-2.85487e+53
-2.74936e+53
-1.04303e+53
-4.99063e+52
-3.10487e+52
-2.19005e+52
-1.38701e+52
-4.66975e+51
3.28633e+51
7.22794e+51
-5.44264e+51
-5.37933e+52
-7.32765e+52
-6.59775e+52
-5.30178e+52
-4.06929e+52
9.76156e+51
3.38986e+51
2.78055e+51
2.34865e+51
1.97056e+51
1.30257e+51
2.91086e+50
-2.44117e+50
5.18961e+50
3.8536e+51
9.51623e+51
1.0244e+52
8.45561e+51
6.52055e+51
4.88277e+51
2.47202e+51
9.24109e+50
4.55102e+50
2.98196e+50
2.2625e+50
1.71806e+50
1.10747e+50
-9.59858e+48
-2.36856e+50
-4.74239e+50
-5.75842e+50
-4.28971e+50
-2.94767e+50
-2.20724e+50
-2.04016e+50
-4.71184e+49
-1.24844e+49
-1.82991e+49
-1.90752e+49
-1.59096e+49
-5.56651e+48
1.30485e+49
3.02752e+49
3.33261e+49
-5.90273e+47
-6.83341e+49
-8.87163e+49
-7.81728e+49
-6.87383e+49
-8.05969e+49
-3.09718e+49
-1.216e+49
-4.72485e+48
-2.27279e+48
-1.27358e+48
-6.83415e+47
1.61922e+47
2.9922e+48
1.03191e+49
2.17112e+49
2.98989e+49
2.77078e+49
2.23666e+49
1.34712e+49
-8.4965e+48
3.8773e+48
1.45524e+48
7.17272e+47
4.63018e+47
3.25676e+47
1.79754e+47
-2.21249e+45
-1.63191e+47
-1.57905e+47
3.47648e+47
1.62898e+48
2.97512e+48
4.37031e+48
3.6951e+48
-6.8225e+48
-7.18589e+46
-2.23054e+46
-3.02432e+46
-2.98976e+46
-2.62124e+46
-1.71963e+46
-5.00831e+45
-4.98109e+45
-3.8199e+46
-1.14696e+47
-1.31645e+47
2.33194e+47
1.92362e+48
4.97981e+48
3.97131e+48
-4.30045e+46
-1.68789e+46
-8.10879e+45
-5.05712e+45
-3.67274e+45
-2.69157e+45
-1.5848e+45
2.81242e+44
3.80045e+45
1.42434e+46
3.74447e+46
1.03693e+47
4.57552e+47
1.78188e+48
4.69531e+48
1.74806e+45
6.12872e+44
4.84577e+44
4.19752e+44
3.44118e+44
1.98484e+44
-4.32293e+43
-3.80671e+44
-2.84555e+44
8.88556e+45
2.84856e+46
5.87056e+46
1.30508e+47
3.59748e+47
9.79874e+47
3.90206e+44
1.66292e+44
6.77764e+43
3.2279e+43
1.81955e+43
1.35432e+43
1.25379e+43
-1.03304e+44
5.18988e+43
1.1042e+46
3.32293e+46
6.47983e+46
1.13101e+47
1.95513e+47
3.47135e+47
-5.22906e+43
-2.11749e+43
-1.09454e+43
-7.06304e+42
-4.88508e+42
-1.15859e+42
7.19121e+42
-9.76256e+43
1.64454e+44
1.3556e+46
3.99848e+46
7.76111e+46
1.33708e+47
2.18184e+47
3.43854e+47
9.75526e+41
3.0914e+41
3.84165e+41
3.90248e+41
4.94062e+41
2.38667e+42
9.05179e+42
-1.17975e+44
1.89184e+44
1.43699e+46
4.2271e+46
8.4956e+46
1.50117e+47
2.493e+47
3.97039e+47
4.8103e+41
2.05699e+41
1.04874e+41
7.53404e+40
2.00731e+41
2.25064e+42
1.00848e+43
-1.40541e+44
2.09794e+44
1.17388e+46
3.54174e+46
7.401e+46
1.35181e+47
2.29588e+47
3.7092e+47
-2.30431e+40
-7.66669e+39
-3.30112e+39
7.80567e+39
1.45355e+41
2.20536e+42
1.15488e+43
-1.67572e+44
-5.31027e+44
6.23645e+45
2.30612e+46
5.04265e+46
9.25155e+46
1.55708e+47
2.47747e+47
-3.98632e+39
-7.79749e+38
3.09475e+39
1.48178e+40
1.43296e+41
2.10655e+42
1.30566e+43
-2.00685e+44
-8.02879e+44
1.54882e+45
1.02358e+46
2.43826e+46
4.4858e+46
7.39622e+46
1.14488e+47
9.97569e+38
1.73099e+39
4.87169e+39
1.7382e+40
1.39034e+41
1.95982e+42
1.41698e+43
-2.39579e+44
-9.21878e+44
-8.9582e+44
1.35722e+45
6.04604e+45
1.32238e+46
2.3177e+46
3.656e+46
4.30178e+38
1.70995e+39
5.56131e+39
1.96466e+40
1.3773e+41
1.84652e+42
1.47896e+43
-2.79158e+44
-9.33078e+44
-1.4076e+45
-1.44586e+45
-7.84064e+44
7.08001e+44
3.08567e+45
6.51631e+45
4.97574e+38
2.04238e+39
6.75094e+39
2.31301e+40
1.38629e+41
1.78763e+42
1.60213e+43
-1.5952e+44
-6.93904e+44
-1.1837e+45
-1.60833e+45
-1.92149e+45
-2.07349e+45
-2.01926e+45
-1.69632e+45
6.02886e+38
2.49074e+39
8.36331e+39
2.80757e+40
1.40524e+41
1.65723e+42
1.73042e+43
-2.89993e+43
-3.25653e+44
-6.55802e+44
-9.93208e+44
-1.32791e+45
-1.66239e+45
-1.99374e+45
-2.30188e+45
7.04096e+38
2.97091e+39
1.0143e+40
3.37821e+40
1.44892e+41
1.39553e+42
1.95733e+43
3.78323e+43
-6.2713e+43
-2.02556e+44
-3.60366e+44
-5.32373e+44
-7.23333e+44
-9.3599e+44
-1.16823e+45
8.09336e+38
3.47507e+39
1.20272e+40
3.99763e+40
1.55749e+41
1.11302e+42
2.11237e+43
6.02106e+43
4.34803e+43
7.90557e+42
-3.73932e+43
-9.13782e+43
-1.55696e+44
-2.31471e+44
-3.19785e+44
9.29427e+38
4.05996e+39
1.42521e+40
4.74681e+40
1.75329e+41
9.28949e+41
1.23515e+43
4.43416e+43
4.94848e+43
4.65511e+43
4.01456e+43
3.15389e+43
2.04783e+43
6.26884e+42
-1.19164e+43
1.0631e+39
4.73126e+39
1.69052e+40
5.68522e+40
2.06389e+41
8.96612e+41
7.78465e+42
1.99575e+43
2.57056e+43
2.82314e+43
2.94408e+43
3.04701e+43
3.13188e+43
3.16897e+43
3.13002e+43
1.20093e+39
5.43e+39
1.97228e+40
6.71542e+40
2.45826e+41
1.03812e+42
3.49843e+42
6.5502e+42
8.54087e+42
9.88105e+42
1.09218e+43
1.19519e+43
1.29984e+43
1.40008e+43
1.49033e+43
1.2734e+39
5.95088e+39
2.21194e+40
7.3688e+40
2.1989e+41
5.36842e+41
1.01751e+42
1.51251e+42
1.92102e+42
2.25296e+42
2.53916e+42
2.81832e+42
3.09809e+42
3.37235e+42
3.63457e+42
7.74991e+38
3.56511e+39
1.1656e+40
3.06262e+40
6.7571e+40
1.25657e+41
1.93719e+41
2.54133e+41
3.04301e+41
3.49178e+41
3.90773e+41
4.31498e+41
4.71595e+41
5.10034e+41
5.46293e+41
1.51775e+38
9.35063e+38
2.86401e+39
6.38883e+39
1.15086e+40
1.7736e+40
2.40372e+40
2.93605e+40
3.36319e+40
3.74696e+40
4.11351e+40
4.46148e+40
4.78516e+40
5.07723e+40
5.33608e+40
-9.99469e+37
-6.06192e+37
8.8845e+37
3.56507e+38
7.10821e+38
1.108e+39
1.50138e+39
1.85037e+39
2.14581e+39
2.40565e+39
2.64369e+39
2.85973e+39
3.04772e+39
3.20336e+39
3.32576e+39
-8.15511e+37
-1.09606e+38
-1.31169e+38
-1.46128e+38
-1.51043e+38
-1.47456e+38
-1.37412e+38
-1.22859e+38
-1.05978e+38
-8.85604e+37
-7.14434e+37
-5.48778e+37
-3.90307e+37
-2.41078e+37
-1.04143e+37
-3.20458e+37
-3.96797e+37
-4.39774e+37
-4.71949e+37
-4.89553e+37
-4.97e+37
-4.96102e+37
-4.88781e+37
-4.7847e+37
-4.67356e+37
-4.55432e+37
-4.41953e+37
-4.26433e+37
-4.08781e+37
-3.89514e+37
-9.22229e+36
-1.07866e+37
-1.05404e+37
-9.89744e+36
-9.13077e+36
-8.39969e+36
-7.7313e+36
-7.13561e+36
-6.64641e+36
-6.26728e+36
-5.95858e+36
-5.68234e+36
-5.41764e+36
-5.15465e+36
-4.89401e+36
-1.53905e+36
-2.03906e+36
-2.07746e+36
-1.94302e+36
-1.73792e+36
-1.52231e+36
-1.3181e+36
-1.13371e+36
-9.8094e+35
-8.61198e+35
-7.63133e+35
-6.78785e+35
-6.04769e+35
-5.39422e+35
-4.81896e+35
-9.81075e+33
-1.08477e+35
-1.67766e+35
-1.91149e+35
-1.92451e+35
-1.8228e+35
-1.66682e+35
-1.49314e+35
-1.33421e+35
-1.1991e+35
-1.07676e+35
-9.62236e+34
-8.55516e+34
-7.57174e+34
-6.67167e+34
4.44521e+34
3.85134e+34
2.66416e+34
1.69827e+34
9.93479e+33
5.10838e+33
1.92281e+33
-1.4391e+32
-1.48402e+33
-2.33955e+33
-2.85151e+33
-3.11832e+33
-3.20927e+33
-3.17528e+33
-3.04588e+33
7.78514e+33
7.68935e+33
6.71838e+33
5.6427e+33
4.62688e+33
3.7531e+33
3.03234e+33
2.46852e+33
2.04235e+33
1.70876e+33
1.43333e+33
1.20026e+33
1.00219e+33
8.34417e+32
6.94058e+32
1.18586e+33
7.99711e+32
5.60375e+32
4.36481e+32
3.56807e+32
2.98393e+32
2.52617e+32
2.17216e+32
1.90001e+32
1.67503e+32
1.47542e+32
1.29343e+32
1.12719e+32
9.76744e+31
8.43004e+31
2.33986e+32
1.60674e+32
8.79858e+31
4.92281e+31
2.8347e+31
1.68753e+31
1.04281e+31
6.75837e+30
4.62548e+30
3.33306e+30
2.50778e+30
1.95723e+30
1.57621e+30
1.30557e+30
1.1068e+30
-3.3874e+30
9.29497e+30
9.63684e+30
7.58395e+30
5.50204e+30
3.91381e+30
2.80103e+30
2.04392e+30
1.50711e+30
1.10576e+30
8.01709e+29
5.7365e+29
4.04772e+29
2.81937e+29
1.91343e+29
-1.24496e+31
-7.25943e+30
-3.68062e+30
-1.92498e+30
-1.0414e+30
-5.7986e+29
-3.29165e+29
-1.89018e+29
-1.09544e+29
-6.37329e+28
-3.67304e+28
-2.06175e+28
-1.10396e+28
-5.37046e+27
-2.67757e+27
-2.22668e+30
-1.67292e+30
-1.07223e+30
-6.93511e+29
-4.57529e+29
-3.11903e+29
-2.21808e+29
-1.63943e+29
-1.24056e+29
-9.49933e+28
-7.32158e+28
-5.66784e+28
-4.40242e+28
-3.43021e+28
-2.6871e+28
-1.44327e+29
-1.19706e+29
-8.58436e+28
-6.16044e+28
-4.45305e+28
-3.30194e+28
-2.53896e+28
-2.00486e+28
-1.59884e+28
-1.27727e+28
-1.02019e+28
-8.14382e+27
-6.4966e+27
-5.18214e+27
-4.13652e+27
3.6169e+27
2.03497e+27
1.23589e+27
5.42808e+26
1.58484e+26
-4.1287e+25
-1.42218e+26
-1.88292e+26
-2.01764e+26
-1.96652e+26
-1.81952e+26
-1.62932e+26
-1.4264e+26
-1.22966e+26
-1.04393e+26
3.70775e+27
1.79659e+27
8.93671e+26
5.00277e+26
3.08842e+26
2.0644e+26
1.47327e+26
1.10196e+26
8.47071e+25
6.59407e+25
5.15714e+25
4.03833e+25
3.16198e+25
2.47513e+25
1.94553e+25
1.08045e+27
5.79031e+26
2.62488e+26
1.31712e+26
7.24498e+25
4.32461e+25
2.75907e+25
1.85461e+25
1.29355e+25
9.23617e+24
6.69843e+24
4.9179e+24
3.64758e+24
2.73276e+24
2.07387e+24
1.21269e+26
5.99871e+25
3.22511e+25
1.9301e+25
1.25674e+25
8.56814e+24
6.03274e+24
4.33531e+24
3.13749e+24
2.27189e+24
1.64514e+24
1.19198e+24
8.6426e+23
6.2876e+23
4.58453e+23
-1.72543e+25
-1.27765e+25
-5.95231e+24
-2.5969e+24
-1.14846e+24
-5.19484e+23
-2.25973e+23
-8.67637e+22
-2.15859e+22
7.75109e+21
1.95276e+22
2.2611e+22
2.15574e+22
1.89142e+22
1.5419e+22
-1.44903e+25
-4.98733e+24
-2.19542e+24
-1.09331e+24
-6.35469e+23
-4.00508e+23
-2.66031e+23
-1.83658e+23
-1.29596e+23
-9.23719e+22
-6.61445e+22
-4.75084e+22
-3.42348e+22
-2.4775e+22
-1.81231e+22
-2.98676e+24
-8.10854e+23
-2.56388e+23
-1.28443e+23
-7.88387e+22
-5.16238e+22
-3.57212e+22
-2.56548e+22
-1.8749e+22
-1.37773e+22
-1.0133e+22
-7.4531e+21
-5.48589e+21
-4.04909e+21
-3.01559e+21
5.23674e+23
4.92316e+22
2.56725e+21
-8.28446e+21
-6.47794e+21
-4.25197e+21
-2.80328e+21
-1.88896e+21
-1.29912e+21
-9.10751e+20
-6.49917e+20
-4.70086e+20
-3.43179e+20
-2.52838e+20
-1.88333e+20
2.56139e+23
6.03763e+22
1.07182e+22
1.85267e+21
1.15932e+20
-2.56403e+20
-2.76727e+20
-2.17745e+20
-1.55678e+20
-1.07558e+20
-7.3299e+19
-4.95888e+19
-3.34782e+19
-2.26643e+19
-1.52667e+19
-1.8916e+22
1.47286e+21
1.20359e+21
9.66374e+20
5.68434e+20
3.10078e+20
1.66438e+20
8.81534e+19
4.58068e+19
2.33858e+19
1.18446e+19
5.9929e+18
3.01705e+18
1.50421e+18
7.20126e+17
-1.83205e+22
-5.02575e+21
-1.09905e+21
-2.17326e+20
-9.54591e+18
3.59546e+19
3.83229e+19
3.06354e+19
2.22553e+19
1.55217e+19
1.06313e+19
7.22622e+18
4.90467e+18
3.34122e+18
2.27611e+18
-6.68004e+20
-6.4193e+20
-2.70755e+20
-1.34438e+20
-6.88805e+19
-3.60582e+19
-1.91779e+19
-1.02284e+19
-5.39938e+18
-2.79757e+18
-1.41325e+18
-6.85963e+17
-3.07272e+17
-1.14008e+17
-1.92628e+16
7.3969e+20
2.17559e+20
5.14606e+19
9.2079e+18
-1.36919e+18
-3.47947e+18
-3.29461e+18
-2.59824e+18
-1.90518e+18
-1.34877e+18
-9.38521e+17
-6.47948e+17
-4.46602e+17
-3.09002e+17
-2.13872e+17
9.34683e+19
4.84141e+19
1.98773e+19
9.23186e+18
4.62267e+18
2.44364e+18
1.34388e+18
7.57055e+17
4.31021e+17
2.46048e+17
1.4023e+17
7.94093e+16
4.4285e+16
2.40389e+16
1.26407e+16
-9.08117e+18
-1.95436e+18
-4.56766e+16
3.25249e+17
3.30013e+17
2.64197e+17
1.97686e+17
1.43829e+17
1.02883e+17
7.28307e+16
5.13106e+16
3.61311e+16
2.55116e+16
1.81077e+16
1.28885e+16
-2.19178e+18
-1.05245e+18
-4.39501e+17
-2.05344e+17
-1.0448e+17
-5.68494e+16
-3.25679e+16
-1.93102e+16
-1.16683e+16
-7.11896e+15
-4.36462e+15
-2.67806e+15
-1.63783e+15
-9.95125e+14
-6.03964e+14
-7.56577e+16
-5.18867e+16
-2.81019e+16
-1.60499e+16
-9.70553e+15
-6.17982e+15
-4.09979e+15
-2.79435e+15
-1.93283e+15
-1.34944e+15
-9.49416e+14
-6.72399e+14
-4.79462e+14
-3.44382e+14
-2.49022e+14
-2.76568e+14
3.8201e+14
1.55952e+14
7.56028e+13
3.14879e+13
9.49061e+12
-7.9186e+11
-5.14882e+12
-6.51933e+12
-6.45825e+12
-5.7854e+12
-4.91378e+12
-4.04632e+12
-3.26663e+12
-2.60187e+12
-1.17389e+15
-3.62721e+14
-9.73353e+13
-2.74712e+13
-7.34229e+12
-1.1498e+12
6.98035e+11
1.10875e+12
1.05324e+12
8.73589e+11
6.8436e+11
5.19983e+11
3.88275e+11
2.86689e+11
2.07869e+11
-1.10878e+14
-5.29676e+13
-2.10666e+13