/*--------------------------------*- C++ -*----------------------------------*\
  =========                 |
  \\      /  F ield         | OpenFOAM: The Open Source CFD Toolbox
   \\    /   O peration     | Website:  https://openfoam.org
    \\  /    A nd           | Version:  7
     \\/     M anipulation  |
\*---------------------------------------------------------------------------*/
FoamFile
{
    version     2.0;
    format      ascii;
    class       volScalarField;
    location    "400";
    object      epsilon;
}
// * * * * * * * * * * * * * * * * * * * * * * * * * * * * * * * * * * * * * //

dimensions      [0 2 -3 0 0 0 0];

internalField   nonuniform List<scalar> 
32100
(
0.0114746
0.0114746
0.0114746
0.0114746
0.0114746
0.0114746
0.0114746
0.0114746
0.0114746
0.0114747
0.0114746
0.0114733
0.0115614
0.0141723
0.22052
0.011444
0.011444
0.011444
0.011444
0.0114441
0.011444
0.011444
0.011444
0.0114441
0.0114441
0.0114444
0.0114617
0.0117392
0.0185918
0.235271
0.0114136
0.0114136
0.0114136
0.0114136
0.0114136
0.0114136
0.0114136
0.0114136
0.0114136
0.0114137
0.0114161
0.0114714
0.0121037
0.0223516
0.250551
0.0113832
0.0113832
0.0113832
0.0113832
0.0113832
0.0113832
0.0113832
0.0113832
0.0113833
0.0113838
0.0113901
0.0114981
0.0125475
0.0256248
0.266374
0.011353
0.011353
0.011353
0.011353
0.011353
0.011353
0.011353
0.011353
0.0113531
0.0113544
0.0113678
0.0115474
0.0130482
0.0286849
0.282674
0.0113229
0.0113229
0.0113229
0.0113229
0.0113229
0.0113229
0.0113229
0.0113229
0.0113232
0.0113256
0.0113497
0.0116116
0.0135754
0.0314416
0.299532
0.0112929
0.0112929
0.0112929
0.0112929
0.0112929
0.0112929
0.0112929
0.011293
0.0112934
0.0112976
0.0113364
0.0116896
0.0141222
0.034268
0.316885
0.011263
0.011263
0.011263
0.011263
0.011263
0.0112631
0.0112631
0.0112632
0.0112638
0.0112706
0.0113272
0.0117807
0.0146841
0.037139
0.334729
0.0112333
0.0112333
0.0112333
0.0112333
0.0112333
0.0112333
0.0112334
0.0112335
0.0112346
0.0112446
0.0113237
0.0118839
0.0152575
0.0400303
0.353061
0.0112037
0.0112037
0.0112037
0.0112037
0.0112037
0.0112037
0.0112038
0.011204
0.0112057
0.0112198
0.0113249
0.0119982
0.01584
0.0429303
0.371866
0.0111742
0.0111742
0.0111742
0.0111742
0.0111742
0.0111742
0.0111743
0.0111746
0.0111771
0.0111964
0.0113297
0.0121227
0.01643
0.0458321
0.391136
0.0111449
0.0111449
0.0111449
0.0111449
0.0111449
0.0111449
0.011145
0.0111454
0.0111489
0.0111743
0.0113388
0.0122564
0.017026
0.0487357
0.410851
0.0111156
0.0111156
0.0111156
0.0111156
0.0111156
0.0111157
0.0111158
0.0111164
0.0111212
0.0111538
0.0113531
0.0123983
0.0176268
0.0516385
0.430999
0.0110865
0.0110865
0.0110865
0.0110865
0.0110865
0.0110866
0.0110867
0.0110876
0.011094
0.0111349
0.0113718
0.0125478
0.0182321
0.0545442
0.451555
0.0110575
0.0110575
0.0110575
0.0110575
0.0110576
0.0110576
0.0110578
0.011059
0.0110673
0.0111177
0.0113946
0.0127039
0.0188408
0.0574513
0.472503
0.0110287
0.0110287
0.0110287
0.0110287
0.0110287
0.0110288
0.0110291
0.0110306
0.0110412
0.0111023
0.0114215
0.012866
0.019453
0.0603661
0.493812
0.0109999
0.0109999
0.0109999
0.011
0.011
0.0110001
0.0110004
0.0110025
0.0110156
0.0110887
0.0114523
0.0130334
0.0200678
0.0632859
0.515467
0.0109713
0.0109713
0.0109713
0.0109714
0.0109714
0.0109715
0.010972
0.0109746
0.0109908
0.0110769
0.0114867
0.0132056
0.0206856
0.0662187
0.537431
0.0109429
0.0109429
0.0109429
0.0109429
0.0109429
0.010943
0.0109436
0.010947
0.0109666
0.0110668
0.0115246
0.0133821
0.0213054
0.0691598
0.559686
0.0109145
0.0109145
0.0109145
0.0109145
0.0109146
0.0109147
0.0109155
0.0109196
0.0109432
0.0110587
0.0115659
0.0135624
0.0219278
0.0721185
0.582193
0.0108863
0.0108863
0.0108863
0.0108863
0.0108864
0.0108865
0.0108875
0.0108926
0.0109205
0.0110523
0.0116103
0.013746
0.0225517
0.0750873
0.604932
0.0108582
0.0108582
0.0108582
0.0108582
0.0108583
0.0108585
0.0108597
0.0108659
0.0108986
0.0110479
0.0116577
0.0139327
0.0231779
0.0780772
0.627861
0.0108302
0.0108302
0.0108302
0.0108302
0.0108303
0.0108306
0.010832
0.0108395
0.0108775
0.0110449
0.0117078
0.014122
0.0238051
0.0810775
0.65096
0.0108023
0.0108023
0.0108023
0.0108024
0.0108024
0.0108028
0.0108045
0.0108135
0.0108573
0.0110444
0.0117605
0.0143138
0.0244344
0.0841014
0.674183
0.0107746
0.0107746
0.0107746
0.0107746
0.0107747
0.0107751
0.0107773
0.0107878
0.0108379
0.0110451
0.0118156
0.0145075
0.0250641
0.0871342
0.697512
0.0107469
0.0107469
0.0107469
0.010747
0.0107471
0.0107476
0.0107502
0.0107626
0.0108193
0.0110471
0.011873
0.0147031
0.0256957
0.0901919
0.720897
0.0107194
0.0107194
0.0107194
0.0107195
0.0107196
0.0107202
0.0107233
0.0107377
0.0108017
0.0110511
0.0119324
0.0149002
0.026327
0.0932556
0.744321
0.010692
0.010692
0.0106921
0.0106921
0.0106923
0.010693
0.0106966
0.0107133
0.0107849
0.0110566
0.0119938
0.0150988
0.0269601
0.0963446
0.767733
0.0106648
0.0106648
0.0106648
0.0106648
0.010665
0.0106659
0.0106701
0.0106892
0.0107689
0.0110637
0.012057
0.0152984
0.0275921
0.0994352
0.791118
0.0106376
0.0106376
0.0106376
0.0106377
0.0106379
0.010639
0.0106439
0.0106656
0.0107539
0.0110722
0.0121218
0.0154991
0.0282256
0.102551
0.814422
0.0106106
0.0106106
0.0106106
0.0106107
0.0106109
0.0106122
0.0106179
0.0106425
0.0107397
0.0110821
0.0121882
0.0157005
0.0288572
0.105662
0.837636
0.0105836
0.0105836
0.0105837
0.0105837
0.0105841
0.0105855
0.0105921
0.0106198
0.0107264
0.0110934
0.0122559
0.0159026
0.0294899
0.108797
0.8607
0.0105568
0.0105568
0.0105568
0.0105569
0.0105573
0.010559
0.0105666
0.0105975
0.010714
0.0111059
0.012325
0.016105
0.0301199
0.111922
0.883612
0.0105301
0.0105301
0.0105301
0.0105303
0.0105307
0.0105327
0.0105413
0.0105758
0.0107025
0.0111197
0.0123952
0.0163079
0.0307507
0.11507
0.90631
0.0105035
0.0105035
0.0105036
0.0105037
0.0105042
0.0105065
0.0105162
0.0105545
0.0106917
0.0111346
0.0124664
0.0165107
0.0313778
0.118199
0.928799
0.0104771
0.0104771
0.0104771
0.0104772
0.0104779
0.0104805
0.0104915
0.0105337
0.0106818
0.0111507
0.0125386
0.0167138
0.0320053
0.12135
0.95101
0.0104507
0.0104507
0.0104507
0.0104509
0.0104516
0.0104546
0.010467
0.0105134
0.0106728
0.0111678
0.0126116
0.0169165
0.0326281
0.124474
0.97296
0.0104244
0.0104244
0.0104245
0.0104247
0.0104255
0.0104289
0.0104427
0.0104936
0.0106645
0.0111859
0.0126854
0.0171192
0.033251
0.127618
0.994574
0.0103983
0.0103983
0.0103983
0.0103986
0.0103995
0.0104034
0.0104188
0.0104742
0.010657
0.0112049
0.0127598
0.0173212
0.033868
0.130728
1.01588
0.0103723
0.0103723
0.0103723
0.0103726
0.0103737
0.0103781
0.0103951
0.0104554
0.0106502
0.0112249
0.0128348
0.0175229
0.0344846
0.133856
1.03679
0.0103463
0.0103463
0.0103464
0.0103467
0.0103479
0.0103529
0.0103717
0.010437
0.0106443
0.0112457
0.0129103
0.0177238
0.0350944
0.136942
1.05736
0.0103205
0.0103205
0.0103206
0.0103209
0.0103224
0.0103279
0.0103486
0.0104192
0.010639
0.0112673
0.0129862
0.0179241
0.0357033
0.140044
1.07749
0.0102948
0.0102948
0.0102949
0.0102953
0.0102969
0.0103031
0.0103258
0.0104018
0.0106344
0.0112896
0.0130625
0.0181233
0.0363044
0.143095
1.09723
0.0102692
0.0102692
0.0102693
0.0102698
0.0102716
0.0102785
0.0103033
0.0103849
0.0106305
0.0113126
0.013139
0.0183218
0.0369041
0.146161
1.11649
0.0102437
0.0102437
0.0102438
0.0102443
0.0102464
0.0102541
0.0102811
0.0103685
0.0106273
0.0113362
0.0132157
0.0185188
0.0374951
0.14917
1.13534
0.0102183
0.0102183
0.0102184
0.010219
0.0102213
0.0102298
0.0102592
0.0103525
0.0106247
0.0113605
0.0132925
0.0187149
0.038084
0.152192
1.15367
0.010193
0.010193
0.0101932
0.0101938
0.0101964
0.0102058
0.0102376
0.0103371
0.0106227
0.0113853
0.0133693
0.0189094
0.0386635
0.155149
1.17156
0.0101678
0.0101678
0.010168
0.0101688
0.0101716
0.0101819
0.0102163
0.0103221
0.0106214
0.0114106
0.0134461
0.0191027
0.0392402
0.158118
1.18891
0.0101427
0.0101427
0.0101429
0.0101438
0.010147
0.0101583
0.0101953
0.0103075
0.0106204
0.0114363
0.0135229
0.0192942
0.0398069
0.161018
1.20581
0.0101177
0.0101177
0.010118
0.010119
0.0101225
0.0101348
0.0101746
0.0102934
0.0106203
0.0114625
0.0135995
0.0194843
0.04037
0.163926
1.22213
0.0100928
0.0100929
0.0100931
0.0100942
0.0100982
0.0101115
0.0101542
0.0102798
0.0106206
0.0114891
0.013676
0.0196724
0.0409228
0.166762
1.238
0.010068
0.0100681
0.0100684
0.0100696
0.010074
0.0100885
0.0101342
0.0102665
0.0106212
0.011516
0.0137521
0.0198588
0.0414709
0.169603
1.25326
0.0100434
0.0100434
0.0100438
0.0100451
0.0100499
0.0100656
0.0101144
0.0102537
0.0106224
0.0115432
0.013828
0.0200432
0.0420088
0.172372
1.26808
0.0100188
0.0100189
0.0100192
0.0100208
0.010026
0.010043
0.0100949
0.0102414
0.0106241
0.0115707
0.0139036
0.0202256
0.0425407
0.175139
1.28228
0.00999429
0.00999438
0.00999483
0.00999651
0.0100022
0.0100206
0.0100758
0.0102294
0.0106262
0.0115984
0.0139787
0.0204059
0.0430629
0.177838
1.29604
0.0099699
0.00997002
0.00997052
0.00997238
0.00997859
0.00999835
0.0100569
0.0102178
0.0106287
0.0116263
0.0140534
0.020584
0.0435775
0.180526
1.30915
0.00994562
0.00994575
0.00994631
0.00994836
0.00995512
0.00997634
0.0100384
0.0102067
0.0106316
0.0116544
0.0141276
0.0207599
0.0440834
0.183155
1.32185
0.00992143
0.00992158
0.00992221
0.00992446
0.00993181
0.00995453
0.0100201
0.0101959
0.0106349
0.0116826
0.0142012
0.0209332
0.0445796
0.185758
1.33389
0.00989734
0.00989751
0.00989821
0.00990068
0.00990864
0.00993294
0.0100022
0.0101854
0.0106385
0.0117109
0.0142743
0.0211044
0.0450686
0.188318
1.34554
0.00987335
0.00987354
0.00987432
0.00987703
0.00988563
0.00991156
0.00998452
0.0101754
0.0106425
0.0117393
0.0143467
0.0212728
0.0455457
0.190832
1.35651
0.00984946
0.00984967
0.00985054
0.00985349
0.00986277
0.00989039
0.00996715
0.0101657
0.0106468
0.0117677
0.0144185
0.021439
0.0460176
0.193327
1.36713
0.00982566
0.0098259
0.00982686
0.00983008
0.00984007
0.00986943
0.00995006
0.0101563
0.0106513
0.0117961
0.0144896
0.0216022
0.046475
0.195747
1.37706
0.00980196
0.00980223
0.00980328
0.00980678
0.00981752
0.00984868
0.00993326
0.0101472
0.0106561
0.0118246
0.01456
0.0217632
0.0469295
0.198183
1.38667
0.00977836
0.00977866
0.00977981
0.00978361
0.00979513
0.00982815
0.00991674
0.0101385
0.0106612
0.0118529
0.0146295
0.021921
0.0473667
0.200504
1.39558
0.00975485
0.00975518
0.00975645
0.00976057
0.00977289
0.00980783
0.00990049
0.0101301
0.0106665
0.0118812
0.0146983
0.0220765
0.047804
0.202889
1.40422
0.00973144
0.0097318
0.00973319
0.00973764
0.00975081
0.00978771
0.00988452
0.010122
0.010672
0.0119095
0.0147663
0.0222288
0.0482208
0.205106
1.41214
0.00970812
0.00970852
0.00971004
0.00971484
0.00972889
0.00976781
0.00986881
0.0101142
0.0106778
0.0119376
0.0148333
0.0223786
0.048641
0.207452
1.41985
0.00968489
0.00968534
0.009687
0.00969216
0.00970713
0.00974811
0.00985337
0.0101066
0.0106837
0.0119655
0.0148996
0.0225253
0.0490376
0.209558
1.42681
0.00966176
0.00966225
0.00966406
0.00966961
0.00968552
0.00972863
0.00983818
0.0100993
0.0106897
0.0119933
0.0149648
0.0226692
0.0494408
0.211883
1.43363
0.00963872
0.00963926
0.00964122
0.00964718
0.00966407
0.00970934
0.00982325
0.0100923
0.0106959
0.012021
0.0150293
0.0228104
0.049818
0.213871
1.43967
0.00961578
0.00961637
0.00961849
0.00962488
0.00964278
0.00969027
0.00980856
0.0100855
0.0107022
0.0120484
0.0150925
0.0229482
0.0502043
0.216196
1.44564
0.00959293
0.00959357
0.00959587
0.0096027
0.00962165
0.00967139
0.00979413
0.010079
0.0107087
0.0120756
0.0151552
0.0230841
0.0505636
0.218061
1.45081
0.00957017
0.00957087
0.00957335
0.00958064
0.00960067
0.00965272
0.00977992
0.0100726
0.0107152
0.0121025
0.0152163
0.0232154
0.0509327
0.220415
1.45597
0.00954749
0.00954826
0.00955093
0.00955871
0.00957985
0.00963425
0.00976596
0.0100665
0.0107219
0.0121294
0.0152772
0.0233464
0.0512774
0.222158
1.46031
0.00952491
0.00952575
0.00952862
0.0095369
0.00955919
0.00961597
0.00975221
0.0100606
0.0107285
0.0121556
0.015336
0.0234708
0.0516284
0.224578
1.46474
0.00950242
0.00950332
0.00950641
0.00951521
0.00953867
0.00959789
0.0097387
0.010055
0.0107354
0.0121821
0.0153952
0.0235977
0.0519641
0.226235
1.46816
0.00948002
0.00948099
0.00948431
0.00949365
0.00951832
0.00958
0.00972538
0.0100494
0.010742
0.0122076
0.0154514
0.0237147
0.0522956
0.228711
1.47207
0.00945769
0.00945874
0.00946229
0.0094722
0.00949811
0.0095623
0.0097123
0.0100441
0.0107491
0.0122337
0.0155093
0.0238385
0.0526318
0.230643
1.47473
0.00943547
0.00943661
0.0094404
0.00945089
0.00947806
0.00954477
0.00969937
0.0100388
0.0107556
0.0122581
0.0155625
0.0239474
0.0529397
0.233787
1.4769
0.0094133
0.00941452
0.00941857
0.00942966
0.00945814
0.00952743
0.0096867
0.0100339
0.0107628
0.012284
0.0156194
0.0240707
0.0533325
0.236063
1.48253
0.00934784
0.00934935
0.00935419
0.00936713
0.00939952
0.00947646
0.00964933
0.0100187
0.0107811
0.0123523
0.0157671
0.024367
0.0539688
0.23923
2.0354
0.00924066
0.00924271
0.00924912
0.00926557
0.00930517
0.00939563
0.00959176
0.009998
0.0108159
0.0124692
0.0160145
0.0248862
0.0565113
0.312782
3.42699
0.00913576
0.00913847
0.00914672
0.00916711
0.00921435
0.00931838
0.00953651
0.00997534
0.0108379
0.0125487
0.0161651
0.0251637
0.0587024
0.374402
3.78314
0.00903257
0.00903604
0.00904637
0.00907105
0.00912635
0.00924421
0.0094842
0.00995505
0.0108621
0.0126345
0.0163505
0.0257328
0.0649392
0.511794
4.25507
0.00893186
0.00893622
0.0089489
0.00897825
0.00904188
0.0091734
0.00943385
0.00993268
0.0108746
0.0126871
0.0164636
0.0262314
0.0726969
0.666499
4.40223
0.00883299
0.00883832
0.00885352
0.00888774
0.00895985
0.00910485
0.00938503
0.00991071
0.0108879
0.012752
0.0166573
0.0273556
0.0889629
0.874182
4.36939
0.0087367
0.00874313
0.0087611
0.00880048
0.00888118
0.00903929
0.00933782
0.00988706
0.0108924
0.0127929
0.0168188
0.0287351
0.112852
1.10697
4.23102
0.00864218
0.00864976
0.00867057
0.00871515
0.00880432
0.00897507
0.00929088
0.00986227
0.0108969
0.012857
0.0171666
0.0316667
0.152403
1.33377
3.96111
0.00855031
0.00855915
0.00858303
0.00863302
0.00873068
0.00891359
0.00924548
0.00983709
0.0108995
0.0129232
0.0175475
0.0353271
0.205773
1.55146
3.66435
0.0084601
0.0084702
0.00849712
0.0085524
0.00865821
0.00885261
0.00919961
0.00981087
0.0109057
0.0130224
0.0182647
0.0422375
0.283206
1.7379
3.37623
0.00837258
0.00838404
0.00841418
0.00847492
0.00858886
0.00879437
0.00915569
0.00978636
0.0109179
0.013181
0.019276
0.0517062
0.378229
1.8758
3.12054
0.00828658
0.00829936
0.00833261
0.00839851
0.00852006
0.00873593
0.00911103
0.00976245
0.0109419
0.013399
0.0208184
0.0671749
0.494823
1.95942
2.90218
0.00820327
0.00821746
0.00825397
0.00832521
0.00845442
0.00868057
0.00906953
0.0097442
0.0109897
0.0137544
0.0232064
0.0894133
0.620088
1.98964
2.71518
0.00812134
0.00813687
0.00817643
0.00825258
0.00838881
0.00862453
0.00902767
0.0097313
0.011069
0.0142492
0.0266157
0.12121
0.748546
1.98186
2.55347
0.00804206
0.00805898
0.00810174
0.00818299
0.00832649
0.00857234
0.00899162
0.00973309
0.0111909
0.0149933
0.0318301
0.164704
0.872974
1.95516
2.4128
0.00796399
0.00798221
0.0080279
0.00811378
0.0082639
0.0085196
0.00895755
0.00974875
0.0113859
0.0160602
0.0393699
0.220588
0.983408
1.90573
2.28502
0.0078885
0.00790808
0.00795684
0.00804761
0.00820501
0.00847224
0.00893239
0.00977903
0.0116549
0.0175912
0.0505357
0.288224
1.07282
1.85207
2.1689
0.00781405
0.00783487
0.00788642
0.00798168
0.0081459
0.00842458
0.00891038
0.00984645
0.0120621
0.0198124
0.0663799
0.36487
1.13997
1.79785
2.06346
0.00774212
0.00776426
0.0078188
0.00791893
0.00809089
0.00838422
0.00890866
0.00994926
0.0126191
0.0229664
0.0884128
0.445878
1.18667
1.74512
1.96793
0.00767105
0.00769437
0.00775161
0.00785631
0.00803633
0.00834722
0.00891814
0.0101139
0.0134257
0.0275204
0.117703
0.527606
1.21464
1.69337
1.88099
0.00760245
0.00762707
0.00768733
0.0077974
0.00798737
0.00831946
0.00894303
0.0103409
0.0145275
0.0339715
0.155171
0.605567
1.22951
1.64291
1.80163
0.00753457
0.00756036
0.00762345
0.0077388
0.00793916
0.00829596
0.0089997
0.0106725
0.0160973
0.0431487
0.200234
0.675148
1.23417
1.59358
1.7287
0.00746912
0.0074963
0.00756271
0.00768443
0.00789832
0.00829145
0.00909119
0.0111251
0.0182714
0.0558265
0.251816
0.73463
1.23263
1.54572
1.66133
0.00740435
0.00743275
0.00750235
0.00763099
0.00786157
0.00829854
0.00923274
0.0117605
0.0213413
0.07299
0.307277
0.783777
1.22778
1.50031
1.5991
0.00734197
0.00737197
0.00744576
0.00758348
0.00783468
0.00832354
0.00943097
0.012624
0.0256092
0.0953483
0.36464
0.822374
1.21804
1.45673
1.54135
0.00728038
0.0073119
0.00738986
0.00753715
0.00781203
0.00837249
0.00971437
0.0138225
0.0315859
0.123381
0.420993
0.852181
1.2055
1.41507
1.48759
0.00722121
0.00725474
0.00733824
0.00749859
0.00780843
0.00845583
0.0100974
0.0154609
0.0397918
0.156779
0.473934
0.874853
1.1908
1.37531
1.43743
0.00716309
0.00719865
0.00728819
0.00746442
0.00781588
0.00858524
0.0106304
0.0177332
0.0509161
0.194746
0.521983
0.891712
1.17448
1.33733
1.39049
0.00710747
0.00714591
0.007244
0.00744051
0.00784039
0.00876324
0.0113441
0.0208436
0.0655175
0.235838
0.564338
0.903873
1.15711
1.30108
1.34647
0.00705357
0.00709515
0.00720199
0.00742051
0.00788838
0.00901726
0.0123269
0.0251428
0.084169
0.278668
0.600744
0.911871
1.13894
1.26644
1.30508
0.00700243
0.00704783
0.0071672
0.00742202
0.00796907
0.00935678
0.0136468
0.0309815
0.106955
0.321419
0.631791
0.916592
1.12038
1.23337
1.2661
0.00695348
0.00700426
0.00713942
0.00743032
0.00809173
0.00982661
0.0154629
0.0388815
0.133773
0.362646
0.657914
0.918031
1.10144
1.20175
1.2293
0.00690894
0.00696557
0.00711846
0.0074601
0.00826119
0.0104513
0.0179143
0.0492505
0.163781
0.401317
0.67974
0.917289
1.08231
1.17144
1.19448
0.00686659
0.0069311
0.0071094
0.00751116
0.00849858
0.0113031
0.0212724
0.0626171
0.196326
0.436686
0.697911
0.915042
1.06342
1.14251
1.16151
0.00683098
0.0069056
0.00711444
0.00759567
0.00881805
0.0124412
0.0257945
0.0791808
0.230173
0.46857
0.7126
0.910652
1.04452
1.11477
1.13021
0.00679894
0.00688538
0.00713002
0.00771897
0.00925339
0.01399
0.0318796
0.0990639
0.264231
0.497012
0.724246
0.904967
1.02576
1.08816
1.10046
0.00677582
0.00687784
0.00716819
0.00789111
0.00983499
0.0160723
0.0398645
0.121882
0.297524
0.522199
0.733242
0.898188
1.00722
1.06261
1.07213
0.00675878
0.00688222
0.00723264
0.00812762
0.0106184
0.0188965
0.0501748
0.14724
0.329279
0.544304
0.739916
0.890485
0.988944
1.03806
1.0451
0.00675726
0.00689994
0.00733083
0.00844924
0.0116677
0.0226849
0.0630495
0.174376
0.359047
0.563541
0.744586
0.882047
0.970972
1.01446
1.01929
0.00676323
0.00693507
0.00746769
0.00888062
0.0130818
0.027747
0.0786629
0.202498
0.386597
0.58008
0.747458
0.872963
0.953292
0.991734
0.994604
0.00678414
0.00699999
0.00766115
0.00946102
0.0149831
0.0343845
0.0968602
0.230815
0.411881
0.594227
0.748828
0.863437
0.935973
0.969854
0.970966
0.00682475
0.00709224
0.00792072
0.0102355
0.0175422
0.0429384
0.11741
0.258632
0.434844
0.606045
0.748628
0.85338
0.918932
0.948738
0.94831
0.00689609
0.00722835
0.00827575
0.0112785
0.0209695
0.0536534
0.139821
0.285458
0.455558
0.615953
0.747642
0.843137
0.90226
0.928361
0.926576
0.00699565
0.00741194
0.00874678
0.0126744
0.0255207
0.0667009
0.163506
0.310967
0.474089
0.624038
0.745471
0.832638
0.885937
0.908683
0.905686
0.00714088
0.00766737
0.00938416
0.0145577
0.031483
0.0820288
0.187845
0.334964
0.490547
0.630456
0.742317
0.821911
0.869941
0.889659
0.88558
0.00733524
0.00800599
0.0102321
0.0170791
0.0391328
0.0994982
0.212251
0.357306
0.505029
0.635362
0.738385
0.811021
0.85426
0.871243
0.866199
0.00760435
0.00846684
0.011379
0.0204588
0.0487237
0.118755
0.236274
0.377945
0.517704
0.638963
0.733801
0.800044
0.838908
0.853406
0.8475
0.00796043
0.00907847
0.0129153
0.0249252
0.0603736
0.139345
0.259567
0.396835
0.528627
0.641296
0.72857
0.788967
0.823852
0.836104
0.829435
0.00844434
0.0099073
0.0149934
0.0307626
0.0741139
0.160772
0.281882
0.414042
0.53804
0.64266
0.722896
0.777888
0.809117
0.819321
0.811968
0.00908732
0.0110171
0.0177788
0.0382185
0.0897957
0.182552
0.303026
0.429561
0.545881
0.642775
0.716638
0.766743
0.794663
0.803016
0.795061
0.00996046
0.0125261
0.0215101
0.0475181
0.107151
0.204289
0.322875
0.443471
0.552422
0.642289
0.71005
0.755603
0.780486
0.787161
0.778675
0.0111354
0.0145638
0.0264293
0.0587651
0.125791
0.225646
0.341364
0.455873
0.557774
0.641024
0.703169
0.744513
0.766599
0.77174
0.762784
0.0127442
0.0173351
0.0328263
0.0719721
0.145304
0.246354
0.358445
0.466798
0.561915
0.638871
0.695917
0.733431
0.75297
0.756722
0.747356
0.0149406
0.0210678
0.0409311
0.0869776
0.165281
0.266207
0.37412
0.476352
0.565007
0.636107
0.688399
0.722386
0.739595
0.742088
0.732365
0.0179696
0.0260661
0.0509406
0.103519
0.185358
0.285046
0.388374
0.484564
0.567076
0.632723
0.680619
0.711369
0.726451
0.727806
0.717773
0.0221229
0.0326313
0.0629098
0.121242
0.205215
0.302767
0.401269
0.491592
0.568313
0.628851
0.672654
0.700408
0.713538
0.713859
0.703566
0.0277961
0.0410794
0.0767819
0.139777
0.224585
0.319287
0.412794
0.497375
0.568525
0.624397
0.664467
0.689488
0.70084
0.700246
0.689709
0.0354001
0.0516281
0.092345
0.158743
0.243249
0.334554
0.423007
0.502094
0.568135
0.61953
0.656108
0.67861
0.688341
0.686931
0.676188
0.0453513
0.0644081
0.109315
0.177799
0.261031
0.348541
0.43197
0.505826
0.567069
0.614298
0.647624
0.667793
0.676039
0.673894
0.662985
0.0579169
0.0793672
0.127333
0.196632
0.277798
0.361243
0.439712
0.508542
0.565186
0.608632
0.638989
0.657026
0.66392
0.661118
0.65008
0.0731585
0.0963135
0.146041
0.214978
0.293425
0.372622
0.446236
0.51029
0.562661
0.602578
0.630204
0.646296
0.651966
0.648583
0.637454
0.0908474
0.114895
0.165077
0.232619
0.307853
0.382727
0.451651
0.511186
0.559574
0.596204
0.621302
0.635608
0.640167
0.636269
0.625084
0.110514
0.134658
0.184106
0.249373
0.32099
0.391488
0.455847
0.511067
0.555811
0.589451
0.612255
0.624945
0.628508
0.624162
0.612955
0.131511
0.155078
0.202814
0.265106
0.332828
0.398995
0.459052
0.510374
0.551588
0.58241
0.603091
0.614305
0.616974
0.612243
0.601048
0.153133
0.175619
0.22091
0.279697
0.343322
0.405219
0.461174
0.508788
0.546812
0.575061
0.593804
0.60368
0.605552
0.600496
0.589344
0.174693
0.195764
0.238129
0.293076
0.352512
0.410246
0.462287
0.506393
0.541502
0.567404
0.584387
0.59306
0.594228
0.588903
0.577826
0.195599
0.215074
0.254251
0.305165
0.360342
0.413948
0.462184
0.503136
0.535608
0.559405
0.574816
0.582422
0.58298
0.577443
0.566477
0.215363
0.23317
0.269061
0.315889
0.366862
0.416562
0.461415
0.499252
0.529227
0.551092
0.565089
0.571754
0.571791
0.566097
0.555278
0.233638
0.249795
0.282454
0.325292
0.372202
0.418149
0.459672
0.494693
0.522378
0.542479
0.555205
0.561042
0.560651
0.554845
0.544207
0.250184
0.264757
0.294303
0.333268
0.376185
0.418403
0.456858
0.48936
0.515002
0.533535
0.545141
0.550267
0.54953
0.543668
0.533244
0.264852
0.277935
0.304549
0.339854
0.379032
0.417886
0.45331
0.483394
0.50715
0.524273
0.534895
0.539418
0.538414
0.532551
0.522372
0.277587
0.289305
0.313224
0.345152
0.380849
0.416495
0.449072
0.476865
0.498863
0.514704
0.52446
0.528476
0.527279
0.521471
0.51157
0.288431
0.298898
0.32033
0.349082
0.381418
0.414028
0.444064
0.469774
0.490168
0.504851
0.513844
0.51744
0.516115
0.510411
0.500821
0.29734
0.306674
0.325844
0.351713
0.38104
0.410772
0.438385
0.462156
0.48108
0.494722
0.503051
0.506305
0.504912
0.499358
0.490107
0.304553
0.312886
0.330051
0.353338
0.379905
0.406905
0.432195
0.454119
0.471664
0.48435
0.492092
0.495071
0.493662
0.4883
0.479416
0.31001
0.317422
0.332723
0.353555
0.377621
0.402265
0.425464
0.44569
0.46196
0.473772
0.480993
0.483751
0.482368
0.477232
0.468737
0.313975
0.320586
0.334274
0.353007
0.374647
0.397035
0.418272
0.436915
0.452003
0.463013
0.469771
0.472353
0.471032
0.46615
0.458064
0.316466
0.322345
0.33453
0.351487
0.370987
0.3913
0.410711
0.427871
0.441852
0.452118
0.458457
0.460899
0.459667
0.455058
0.447395
0.317666
0.322893
0.333914
0.349018
0.366628
0.385068
0.402805
0.418594
0.431545
0.441121
0.447079
0.449408
0.448283
0.443962
0.43673
0.317649
0.322453
0.332325
0.345842
0.361711
0.378435
0.394626
0.409139
0.421129
0.430061
0.435668
0.437904
0.436899
0.432874
0.426076
0.316949
0.321155
0.329851
0.341978
0.356282
0.371445
0.386219
0.399551
0.410645
0.418973
0.424256
0.426412
0.425534
0.421807
0.415441
0.315148
0.318837
0.326629
0.337519
0.350418
0.364161
0.377633
0.389872
0.400131
0.407895
0.412873
0.414959
0.414209
0.410776
0.404838
0.312412
0.315746
0.322742
0.332531
0.344169
0.356629
0.368912
0.380142
0.389622
0.396857
0.401548
0.403569
0.402945
0.3998
0.394278
0.309022
0.312014
0.318293
0.327099
0.337602
0.348898
0.360095
0.370396
0.379152
0.385889
0.390309
0.392269
0.391765
0.388897
0.383779
0.305043
0.307727
0.313364
0.321288
0.330771
0.341014
0.35122
0.360665
0.368748
0.375019
0.379181
0.381081
0.38069
0.378086
0.373355
0.300555
0.302964
0.308028
0.315164
0.323729
0.333019
0.342322
0.35098
0.358439
0.364272
0.368188
0.370027
0.369741
0.367386
0.363024
0.295636
0.2978
0.302354
0.308781
0.316522
0.324951
0.333431
0.341366
0.348245
0.353667
0.35735
0.359127
0.358936
0.356814
0.352801
0.290363
0.292306
0.296401
0.302196
0.309195
0.316845
0.324575
0.331846
0.338188
0.343226
0.346686
0.3484
0.348293
0.346387
0.342704
0.28479
0.286538
0.290225
0.295454
0.301786
0.308731
0.315778
0.32244
0.328285
0.332963
0.336211
0.337861
0.337828
0.336121
0.332746
0.278977
0.280552
0.283875
0.288597
0.294329
0.300637
0.307063
0.313166
0.318552
0.322892
0.325939
0.327523
0.327554
0.326031
0.322943
0.272977
0.274396
0.277395
0.281662
0.286855
0.292587
0.298448
0.30404
0.309001
0.313026
0.31588
0.317398
0.317485
0.316127
0.313306
0.266837
0.268118
0.270826
0.274685
0.279393
0.284603
0.28995
0.295073
0.299642
0.303374
0.306045
0.307496
0.30763
0.306421
0.303847
0.260596
0.261753
0.264201
0.267694
0.271965
0.276704
0.281584
0.286278
0.290485
0.293942
0.296441
0.297825
0.297996
0.296923
0.294576
0.254292
0.255338
0.257553
0.260718
0.264594
0.268906
0.273361
0.277663
0.281536
0.284738
0.287073
0.28839
0.288592
0.28764
0.285502
0.247956
0.248903
0.250908
0.253777
0.257298
0.261224
0.265292
0.269235
0.2728
0.275765
0.277944
0.279195
0.279421
0.278578
0.276631
0.241615
0.242473
0.24429
0.246893
0.250093
0.25367
0.257387
0.261001
0.264283
0.267027
0.269059
0.270245
0.270489
0.269743
0.26797
0.235294
0.236071
0.237719
0.240083
0.242994
0.246254
0.24965
0.252964
0.255985
0.258524
0.260418
0.26154
0.261796
0.261136
0.259523
0.229013
0.229718
0.231214
0.233362
0.236011
0.238985
0.24209
0.245128
0.247909
0.250257
0.252022
0.253081
0.253345
0.252762
0.251293
0.222789
0.22343
0.224789
0.226743
0.229155
0.231868
0.234708
0.237495
0.240055
0.242226
0.243869
0.244868
0.245136
0.244621
0.243283
0.21664
0.217222
0.218458
0.220236
0.222434
0.224911
0.22751
0.230067
0.232423
0.234431
0.235958
0.236898
0.237167
0.236713
0.235494
0.210576
0.211106
0.212231
0.21385
0.215855
0.218117
0.220496
0.222842
0.225012
0.226867
0.228288
0.229171
0.229438
0.229036
0.227925
0.20461
0.205092
0.206117
0.207593
0.209422
0.21149
0.213668
0.215822
0.217819
0.219534
0.220854
0.221683
0.221946
0.22159
0.220577
0.19875
0.199189
0.200123
0.201469
0.20314
0.205031
0.207026
0.209004
0.210843
0.212428
0.213654
0.214431
0.214688
0.214373
0.213448
0.193004
0.193405
0.194256
0.195485
0.197012
0.198742
0.200571
0.202387
0.204081
0.205545
0.206683
0.207411
0.20766
0.207381
0.206536
0.187378
0.187744
0.188521
0.189644
0.191039
0.192623
0.1943
0.195969
0.197529
0.198882
0.199938
0.200619
0.200859
0.200612
0.199838
0.181876
0.182211
0.182921
0.183947
0.185224
0.186674
0.188213
0.189747
0.191184
0.192434
0.193414
0.19405
0.194281
0.19406
0.193353
0.176503
0.176809
0.177458
0.178397
0.179565
0.180895
0.182307
0.183718
0.185042
0.186197
0.187105
0.187699
0.18792
0.187724
0.187075
0.171261
0.171541
0.172135
0.172994
0.174065
0.175284
0.176581
0.177878
0.179099
0.180166
0.181008
0.181562
0.181772
0.181597
0.181002
0.166152
0.166408
0.166952
0.167739
0.16872
0.169839
0.17103
0.172224
0.173349
0.174336
0.175116
0.175633
0.175832
0.175675
0.175128
0.161177
0.161411
0.16191
0.162631
0.163531
0.164559
0.165654
0.166753
0.16779
0.168702
0.169425
0.169906
0.170095
0.169954
0.169451
0.156336
0.156551
0.157008
0.15767
0.158496
0.15944
0.160447
0.161459
0.162416
0.163259
0.163929
0.164377
0.164556
0.164428
0.163965
0.15163
0.151827
0.152247
0.152854
0.153613
0.15448
0.155407
0.15634
0.157223
0.158002
0.158623
0.15904
0.159208
0.159093
0.158666
0.147057
0.147238
0.147623
0.148181
0.148879
0.149677
0.15053
0.15139
0.152205
0.152925
0.153502
0.153889
0.154048
0.153944
0.153549
0.142617
0.142784
0.143138
0.143651
0.144292
0.145027
0.145813
0.146606
0.147359
0.148025
0.148559
0.14892
0.149068
0.148974
0.14861
0.138308
0.138461
0.138787
0.139259
0.13985
0.140526
0.141251
0.141982
0.142678
0.143295
0.14379
0.144126
0.144265
0.144179
0.143842
0.134129
0.13427
0.13457
0.135005
0.135549
0.136172
0.136841
0.137516
0.138159
0.13873
0.13919
0.139502
0.139633
0.139554
0.139242
0.130078
0.130208
0.130484
0.130885
0.131386
0.131961
0.132578
0.133202
0.133797
0.134326
0.134753
0.135043
0.135165
0.135094
0.134805
0.126152
0.126272
0.126527
0.126896
0.127359
0.12789
0.12846
0.129037
0.129587
0.130078
0.130474
0.130744
0.130858
0.130793
0.130525
0.12235
0.12246
0.122696
0.123036
0.123464
0.123954
0.124481
0.125015
0.125525
0.12598
0.126348
0.126599
0.126707
0.126647
0.126398
0.118668
0.11877
0.118988
0.119303
0.119697
0.120151
0.120638
0.121133
0.121606
0.122027
0.122369
0.122604
0.122705
0.12265
0.12242
0.115104
0.115199
0.1154
0.115691
0.116056
0.116476
0.116927
0.117386
0.117825
0.118216
0.118535
0.118753
0.118848
0.118798
0.118584
0.111656
0.111744
0.11193
0.1122
0.112538
0.112926
0.113345
0.11377
0.114178
0.114542
0.114838
0.115042
0.115132
0.115086
0.114888
0.108321
0.108403
0.108575
0.108825
0.109138
0.109498
0.109887
0.110282
0.11066
0.110999
0.111276
0.111466
0.111551
0.111509
0.111325
0.105096
0.105172
0.105332
0.105563
0.105854
0.106188
0.106549
0.106916
0.107268
0.107584
0.107842
0.108021
0.108101
0.108063
0.107892
0.101978
0.102049
0.102197
0.102412
0.102682
0.102993
0.103328
0.10367
0.103998
0.104293
0.104534
0.104702
0.104777
0.104743
0.104585
0.098965
0.0990303
0.0991682
0.0993681
0.0996191