/*--------------------------------*- C++ -*----------------------------------*\
  =========                 |
  \\      /  F ield         | OpenFOAM: The Open Source CFD Toolbox
   \\    /   O peration     | Website:  https://openfoam.org
    \\  /    A nd           | Version:  7
     \\/     M anipulation  |
\*---------------------------------------------------------------------------*/
FoamFile
{
    version     2.0;
    format      ascii;
    class       volScalarField;
    location    "400";
    object      k;
}
// * * * * * * * * * * * * * * * * * * * * * * * * * * * * * * * * * * * * * //

dimensions      [0 2 -2 0 0 0 0];

internalField   nonuniform List<scalar> 
32100
(
0.00579596
0.00579596
0.00579596
0.00579596
0.00579596
0.00579596
0.00579596
0.00579596
0.00579596
0.00579597
0.00579598
0.0057959
0.0058002
0.00584998
0.00590062
0.00578791
0.00578791
0.00578791
0.00578791
0.00578791
0.00578791
0.00578791
0.00578791
0.00578791
0.00578792
0.00578798
0.00579005
0.0058088
0.00595213
0.00616092
0.00577988
0.00577988
0.00577988
0.00577988
0.00577988
0.00577988
0.00577988
0.00577988
0.00577989
0.00577994
0.00578047
0.00578982
0.0058205
0.00600937
0.00642486
0.00577187
0.00577187
0.00577187
0.00577187
0.00577187
0.00577187
0.00577187
0.00577187
0.00577189
0.00577206
0.00577344
0.00579043
0.00583647
0.00604149
0.0066926
0.00576388
0.00576388
0.00576388
0.00576388
0.00576388
0.00576388
0.00576388
0.00576389
0.00576393
0.00576432
0.00576702
0.00579166
0.00585204
0.00605973
0.00696291
0.00575591
0.00575591
0.00575591
0.00575591
0.00575591
0.00575591
0.00575592
0.00575593
0.00575602
0.00575672
0.00576111
0.00579172
0.0058649
0.00607033
0.00723706
0.00574797
0.00574797
0.00574797
0.00574797
0.00574797
0.00574797
0.00574798
0.005748
0.00574815
0.00574927
0.00575561
0.0057913
0.0058736
0.00607716
0.00751395
0.00574005
0.00574005
0.00574005
0.00574005
0.00574005
0.00574005
0.00574006
0.0057401
0.00574033
0.00574196
0.00575041
0.00579019
0.00587913
0.00608191
0.00779343
0.00573215
0.00573215
0.00573215
0.00573215
0.00573215
0.00573216
0.00573217
0.00573223
0.00573258
0.00573477
0.00574537
0.00578801
0.00588037
0.00608522
0.00807544
0.00572428
0.00572428
0.00572428
0.00572428
0.00572428
0.00572429
0.00572431
0.0057244
0.00572489
0.00572771
0.00574036
0.00578501
0.00587945
0.00608756
0.0083597
0.00571643
0.00571643
0.00571643
0.00571643
0.00571643
0.00571644
0.00571647
0.0057166
0.00571727
0.00572074
0.00573532
0.00578132
0.00587693
0.00608929
0.00864606
0.00570861
0.00570861
0.00570861
0.00570861
0.00570861
0.00570862
0.00570866
0.00570883
0.00570971
0.00571387
0.00573019
0.00577696
0.00587212
0.00609071
0.00893421
0.00570081
0.00570081
0.00570081
0.00570081
0.00570081
0.00570083
0.00570088
0.0057011
0.00570221
0.00570707
0.00572493
0.00577197
0.00586599
0.00609198
0.00922396
0.00569303
0.00569303
0.00569303
0.00569303
0.00569304
0.00569306
0.00569312
0.00569341
0.00569478
0.00570033
0.0057195
0.00576644
0.00585886
0.00609337
0.00951496
0.00568528
0.00568528
0.00568528
0.00568528
0.00568529
0.00568532
0.0056854
0.00568575
0.0056874
0.00569363
0.00571391
0.00576043
0.00585101
0.00609492
0.009807
0.00567755
0.00567755
0.00567756
0.00567756
0.00567757
0.0056776
0.00567771
0.00567814
0.00568007
0.00568696
0.00570813
0.00575399
0.00584265
0.00609693
0.0100997
0.00566985
0.00566985
0.00566986
0.00566986
0.00566987
0.00566991
0.00567004
0.00567056
0.00567279
0.0056803
0.00570216
0.00574718
0.00583391
0.0060993
0.0103928
0.00566218
0.00566218
0.00566218
0.00566219
0.0056622
0.00566224
0.00566241
0.00566303
0.00566555
0.00567365
0.00569602
0.00574004
0.00582495
0.00610235
0.010686
0.00565453
0.00565453
0.00565453
0.00565454
0.00565456
0.00565461
0.0056548
0.00565553
0.00565836
0.00566699
0.00568969
0.00573261
0.00581581
0.00610588
0.010979
0.0056469
0.0056469
0.0056469
0.00564691
0.00564694
0.005647
0.00564723
0.00564807
0.0056512
0.00566032
0.0056832
0.00572494
0.0058066
0.00611027
0.0112714
0.0056393
0.0056393
0.0056393
0.00563932
0.00563934
0.00563941
0.00563968
0.00564065
0.00564407
0.00565363
0.00567654
0.00571704
0.00579732
0.00611519
0.011563
0.00563172
0.00563172
0.00563173
0.00563174
0.00563177
0.00563185
0.00563217
0.00563326
0.00563697
0.00564691
0.00566972
0.00570895
0.00578803
0.00612109
0.0118534
0.00562417
0.00562417
0.00562418
0.00562419
0.00562422
0.00562432
0.00562469
0.00562591
0.0056299
0.00564015
0.00566276
0.00570069
0.00577871
0.00612749
0.0121424
0.00561664
0.00561664
0.00561665
0.00561666
0.0056167
0.00561682
0.00561723
0.00561859
0.00562284
0.00563335
0.00565566
0.00569228
0.00576943
0.00613499
0.0124295
0.00560914
0.00560914
0.00560914
0.00560916
0.00560921
0.00560934
0.00560981
0.0056113
0.0056158
0.00562651
0.00564843
0.00568372
0.00576011
0.00614292
0.0127146
0.00560166
0.00560166
0.00560166
0.00560168
0.00560173
0.00560188
0.00560241
0.00560405
0.00560877
0.00561963
0.00564107
0.00567504
0.00575083
0.00615204
0.0129972
0.0055942
0.0055942
0.00559421
0.00559423
0.00559429
0.00559446
0.00559505
0.00559682
0.00560174
0.0056127
0.00563359
0.00566624
0.00574149
0.00616148
0.0132772
0.00558677
0.00558677
0.00558677
0.0055868
0.00558686
0.00558706
0.00558771
0.00558962
0.00559473
0.00560571
0.005626
0.00565733
0.0057322
0.0061722
0.0135542
0.00557936
0.00557936
0.00557936
0.00557939
0.00557946
0.00557969
0.0055804
0.00558244
0.00558771
0.00559868
0.00561831
0.00564831
0.00572281
0.00618309
0.013828
0.00557197
0.00557197
0.00557198
0.00557201
0.00557209
0.00557234
0.00557312
0.00557528
0.0055807
0.0055916
0.00561051
0.00563921
0.00571346
0.00619536
0.0140983
0.00556461
0.00556461
0.00556462
0.00556465
0.00556474
0.00556502
0.00556586
0.00556815
0.00557368
0.00558446
0.00560262
0.00563
0.00570399
0.00620761
0.0143649
0.00555726
0.00555727
0.00555727
0.00555731
0.00555741
0.00555772
0.00555863
0.00556103
0.00556665
0.00557728
0.00559464
0.00562071
0.00569453
0.00622136
0.0146274
0.00554995
0.00554995
0.00554996
0.00555
0.00555011
0.00555045
0.00555143
0.00555393
0.00555962
0.00557004
0.00558657
0.00561132
0.00568491
0.00623487
0.0148859
0.00554265
0.00554265
0.00554266
0.00554271
0.00554283
0.0055432
0.00554425
0.00554685
0.00555258
0.00556275
0.00557842
0.00560185
0.00567531
0.00625002
0.0151397
0.00553538
0.00553538
0.00553539
0.00553544
0.00553558
0.00553598
0.00553709
0.00553979
0.00554552
0.0055554
0.00557019
0.00559229
0.00566549
0.00626468
0.0153891
0.00552812
0.00552813
0.00552814
0.0055282
0.00552835
0.00552878
0.00552996
0.00553273
0.00553846
0.00554801
0.00556187
0.00558264
0.0056557
0.00628113
0.0156335
0.00552089
0.0055209
0.00552091
0.00552097
0.00552114
0.00552161
0.00552284
0.00552569
0.00553138
0.00554057
0.00555349
0.0055729
0.00564564
0.00629682
0.0158731
0.00551369
0.00551369
0.00551371
0.00551377
0.00551396
0.00551446
0.00551575
0.00551865
0.00552428
0.00553307
0.00554502
0.00556308
0.00563561
0.0063145
0.0161074
0.0055065
0.0055065
0.00550652
0.0055066
0.0055068
0.00550733
0.00550868
0.00551163
0.00551716
0.00552553
0.00553649
0.00555316
0.00562527
0.0063311
0.0163366
0.00549934
0.00549934
0.00549936
0.00549944
0.00549966
0.00550023
0.00550163
0.00550461
0.00551003
0.00551794
0.00552789
0.00554316
0.00561496
0.00634991
0.0165601
0.00549219
0.0054922
0.00549222
0.00549231
0.00549254
0.00549315
0.0054946
0.00549759
0.00550288
0.0055103
0.00551921
0.00553305
0.00560431
0.0063673
0.0167783
0.00548507
0.00548508
0.00548511
0.0054852
0.00548545
0.00548609
0.00548758
0.00549058
0.00549571
0.00550261
0.00551047
0.00552287
0.0055937
0.00638717
0.0169906
0.00547797
0.00547798
0.00547801
0.00547811
0.00547838
0.00547905
0.00548058
0.00548358
0.00548852
0.00549487
0.00550166
0.00551258
0.0055827
0.00640524
0.0171975
0.00547089
0.0054709
0.00547094
0.00547105
0.00547133
0.00547203
0.0054736
0.00547657
0.00548131
0.00548709
0.00549278
0.00550221
0.00557177
0.00642609
0.0173982
0.00546384
0.00546385
0.00546388
0.005464
0.00546431
0.00546504
0.00546663
0.00546957
0.00547407
0.00547926
0.00548384
0.00549172
0.0055604
0.00644475
0.0175934
0.0054568
0.00545681
0.00545685
0.00545698
0.0054573
0.00545806
0.00545967
0.00546256
0.00546682
0.00547139
0.00547484
0.00548116
0.00554913
0.00646653
0.0177823
0.00544978
0.00544979
0.00544984
0.00544998
0.00545032
0.0054511
0.00545273
0.00545555
0.00545954
0.00546347
0.00546576
0.00547047
0.00553737
0.00648566
0.0179657
0.00544279
0.0054428
0.00544285
0.005443
0.00544336
0.00544417
0.00544579
0.00544854
0.00545223
0.00545551
0.00545663
0.00545971
0.00552576
0.00650831
0.0181426
0.00543581
0.00543583
0.00543588
0.00543604
0.00543641
0.00543724
0.00543887
0.00544153
0.00544491
0.0054475
0.00544743
0.00544882
0.0055136
0.00652785
0.0183141
0.00542886
0.00542888
0.00542893
0.0054291
0.00542949
0.00543034
0.00543196
0.00543452
0.00543756
0.00543944
0.00543817
0.00543786
0.00550164
0.00655132
0.018479
0.00542193
0.00542194
0.005422
0.00542218
0.00542259
0.00542346
0.00542506
0.0054275
0.00543019
0.00543135
0.00542885
0.00542677
0.00548909
0.00657119
0.0186386
0.00541501
0.00541503
0.0054151
0.00541528
0.00541571
0.00541659
0.00541817
0.00542047
0.00542279
0.00542321
0.00541946
0.00541561
0.00547678
0.00659546
0.0187915
0.00540812
0.00540814
0.00540821
0.00540841
0.00540885
0.00540973
0.00541128
0.00541344
0.00541537
0.00541503
0.00541
0.00540432
0.00546383
0.00661561
0.0189393
0.00540125
0.00540127
0.00540134
0.00540155
0.005402
0.00540289
0.00540441
0.0054064
0.00540793
0.0054068
0.00540049
0.00539296
0.00545118
0.00664063
0.0190804
0.00539439
0.00539442
0.0053945
0.00539471
0.00539518
0.00539607
0.00539754
0.00539936
0.00540046
0.00539854
0.00539091
0.00538146
0.00543786
0.00666102
0.0192167
0.00538756
0.00538759
0.00538767
0.0053879
0.00538837
0.00538926
0.00539067
0.0053923
0.00539296
0.00539023
0.00538127
0.00536989
0.00542486
0.00668677
0.0193461
0.00538075
0.00538077
0.00538086
0.0053811
0.00538158
0.00538247
0.00538381
0.00538524
0.00538544
0.00538188
0.00537157
0.00535819
0.00541119
0.00670738
0.019471
0.00537395
0.00537398
0.00537408
0.00537432
0.00537481
0.00537569
0.00537696
0.00537817
0.0053779
0.00537349
0.0053618
0.00534642
0.00539787
0.00673383
0.019589
0.00536718
0.00536721
0.00536731
0.00536756
0.00536806
0.00536892
0.00537011
0.00537109
0.00537033
0.00536506
0.00535198
0.00533453
0.00538388
0.00675466
0.0197029
0.00536042
0.00536045
0.00536056
0.00536082
0.00536132
0.00536216
0.00536326
0.00536399
0.00536274
0.00535658
0.00534209
0.00532256
0.00537024
0.0067818
0.0198099
0.00535369
0.00535372
0.00535383
0.0053541
0.0053546
0.00535541
0.00535641
0.00535689
0.00535512
0.00534807
0.00533215
0.00531047
0.00535596
0.00680284
0.0199131
0.00534697
0.00534701
0.00534712
0.00534739
0.00534789
0.00534868
0.00534957
0.00534978
0.00534748
0.00533952
0.00532214
0.00529829
0.00534203
0.00683066
0.0200095
0.00534027
0.00534031
0.00534043
0.0053407
0.0053412
0.00534195
0.00534273
0.00534266
0.00533982
0.00533093
0.00531208
0.00528602
0.00532749
0.00685194
0.0201025
0.00533359
0.00533363
0.00533376
0.00533404
0.00533453
0.00533524
0.00533589
0.00533553
0.00533212
0.00532229
0.00530195
0.00527364
0.00531328
0.00688043
0.0201885
0.00532693
0.00532697
0.0053271
0.00532738
0.00532787
0.00532853
0.00532905
0.00532839
0.00532441
0.00531363
0.00529177
0.0052612
0.00529855
0.00690199
0.0202717
0.00532029
0.00532033
0.00532046
0.00532075
0.00532122
0.00532184
0.00532221
0.00532123
0.00531667
0.00530492
0.00528152
0.00524861
0.00528408
0.00693113
0.0203479
0.00531366
0.00531371
0.00531385
0.00531413
0.00531459
0.00531515
0.00531537
0.00531407
0.00530891
0.00529617
0.00527124
0.00523602
0.0052692
0.00695306
0.0204218
0.00530706
0.00530711
0.00530724
0.00530753
0.00530797
0.00530847
0.00530852
0.00530689
0.00530112
0.00528738
0.00526087
0.00522322
0.00525448
0.0069828
0.0204886
0.00530047
0.00530052
0.00530066
0.00530094
0.00530137
0.0053018
0.00530168
0.0052997
0.00529331
0.00527857
0.00525048
0.00521049
0.00523953
0.00700528
0.0205537
0.0052939
0.00529395
0.00529409
0.00529437
0.00529478
0.00529513
0.00529484
0.00529249
0.00528547
0.0052697
0.00523999
0.00519748
0.00522457
0.00703552
0.0206115
0.00528734
0.0052874
0.00528754
0.00528782
0.0052882
0.00528847
0.00528799
0.00528528
0.00527761
0.00526082
0.00522951
0.00518465
0.00520961
0.00705878
0.0206684
0.00528081
0.00528086
0.00528101
0.00528128
0.00528163
0.00528182
0.00528115
0.00527805
0.00526973
0.00525188
0.00521889
0.00517139
0.00519443
0.00708949
0.0207177
0.00527429
0.00527435
0.00527449
0.00527475
0.00527507
0.00527517
0.0052743
0.00527081
0.00526182
0.00524293
0.00520834
0.00515851
0.00517955
0.00711382
0.0207668
0.00526779
0.00526784
0.00526799
0.00526824
0.00526852
0.00526853
0.00526744
0.00526356
0.00525389
0.00523391
0.00519757
0.00514498
0.00516417
0.00714502
0.0208078
0.0052613
0.00526136
0.0052615
0.00526175
0.00526199
0.00526189
0.00526059
0.0052563
0.00524595
0.00522491
0.00518698
0.00513211
0.00514943
0.00717094
0.0208503
0.00525483
0.00525489
0.00525503
0.00525526
0.00525546
0.00525526
0.00525373
0.00524902
0.00523796
0.0052158
0.00517604
0.00511824
0.00513391
0.00720268
0.0208825
0.00524837
0.00524843
0.00524857
0.00524879
0.00524894
0.00524863
0.00524686
0.00524173
0.00522999
0.00520678
0.00516546
0.0051055
0.00511941
0.00723133
0.0209189
0.00524193
0.00524199
0.00524213
0.00524233
0.00524243
0.005242
0.00523999
0.00523442
0.00522194
0.00519755
0.00515429
0.00509121
0.0051038
0.00726354
0.0209448
0.0052355
0.00523556
0.00523569
0.00523587
0.00523593
0.00523537
0.00523312
0.00522712
0.00521396
0.00518856
0.00514385
0.00507878
0.00508971
0.00729995
0.0209733
0.00522908
0.00522914
0.00522927
0.00522943
0.00522943
0.00522875
0.00522623
0.00521976
0.00520582
0.00517915
0.00513231
0.00506388
0.00507379
0.00731445
0.0209798
0.00521006
0.00521012
0.00521023
0.00521032
0.00521013
0.00520904
0.00520577
0.00519805
0.00518222
0.00515287
0.00510238
0.00502894
0.00503539
0.00758639
0.0260795
0.00517873
0.00517877
0.00517883
0.00517876
0.00517819
0.00517631
0.00517154
0.00516124
0.00514122
0.00510509
0.00504345
0.00495187
0.00495857
0.00842451
0.0434461
0.00514764
0.00514765
0.00514759
0.00514727
0.00514617
0.00514331
0.00513691
0.0051241
0.00510052
0.0050596
0.00499192
0.00489426
0.00495202
0.00970955
0.0498516
0.00511683
0.0051168
0.00511662
0.00511601
0.00511435
0.00511045
0.0051023
0.00508671
0.00505878
0.00501094
0.00493195
0.00482065
0.00498646
0.0123176
0.0621126
0.00508629
0.00508619
0.00508582
0.00508482
0.00508243
0.00507729
0.0050672
0.00504875
0.00501687
0.00496396
0.00488037
0.0047792
0.00517897
0.0156503
0.0696453
0.00505606
0.00505587
0.00505529
0.00505387
0.00505074
0.00504436
0.00503233
0.00501097
0.00497482
0.00491566
0.00482356
0.00472399
0.00550032
0.0208318
0.0761344
0.00502607
0.00502578
0.00502493
0.00502298
0.00501893
0.00501109
0.00499688
0.00497245
0.00493221
0.00486828
0.00477487
0.0047259
0.00613132
0.0268286
0.079212
0.00499633
0.00499592
0.00499476
0.00499226
0.0049873
0.00497806
0.00496179
0.00493445
0.0048902
0.00482155
0.00472904
0.00474695
0.00734113
0.0333409
0.0807976
0.00496681
0.00496626
0.00496475
0.0049616
0.00495557
0.0049447
0.00492608
0.00489558
0.00484761
0.00477668
0.0046956
0.0048586
0.00904204
0.04019
0.0812655
0.00493748
0.00493676
0.00493486
0.00493103
0.00492395
0.00491155
0.00489085
0.00485768
0.00480671
0.00473463
0.00467101
0.0050445
0.011717
0.0466612
0.0812459
0.00490835
0.00490745
0.00490513
0.00490055
0.00489229
0.00487817
0.00485507
0.0048189
0.0047652
0.00469586
0.00467402
0.00537879
0.0150627
0.0523175
0.0812392
0.00487935
0.00487825
0.00487545
0.00487008
0.00486065
0.00484494
0.00481986
0.0047816
0.00472727
0.00466623
0.00470612
0.00601359
0.0194075
0.0569055
0.0812775
0.00485052
0.00484922
0.00484593
0.00483975
0.00482909
0.00481163
0.00478433
0.00474384
0.0046895
0.00464029
0.00477032
0.0069596
0.0240932
0.0604683
0.0813638
0.0048218
0.00482026
0.00481643
0.00480936
0.00479745
0.00477843
0.0047495
0.00470814
0.00465675
0.00463123
0.00490496
0.00838285
0.0293066
0.0632664
0.0815472
0.00479319
0.00479142
0.00478706
0.00477916
0.00476604
0.00474544
0.00471472
0.00467252
0.00462691
0.00464025
0.00515488
0.0104072
0.0344514
0.065287
0.0816617
0.00476469
0.00476266
0.00475771
0.00474886
0.00473447
0.00471243
0.0046808
0.00464039
0.00460585
0.00466597
0.00554163
0.013036
0.0393153
0.0669672
0.0817286
0.00473625
0.00473397
0.00472847
0.00471879
0.00470332
0.00468015
0.00464789
0.00460928
0.00458782
0.00472946
0.00615549
0.0162945
0.043651
0.0684177
0.0817695
0.00470793
0.00470537
0.00469927
0.00468867
0.00467203
0.00464775
0.00461557
0.00458239
0.00458885
0.00484634
0.00705251
0.019987
0.0474681
0.0697154
0.081813
0.00467961
0.0046768
0.00467015
0.00465877
0.0046413
0.00461659
0.00458596
0.00456132
0.00460095
0.00503243
0.0083285
0.0240261
0.0507208
0.070877
0.0818694
0.00465143
0.00464837
0.00464115
0.00462894
0.00461059
0.00458565
0.00455741
0.00454385
0.00462982
0.00532781
0.0100579
0.0281708
0.053501
0.0718939
0.0819287
0.00462324
0.00461992
0.00461218
0.00459936
0.00458065
0.00455646
0.00453257
0.00453659
0.00469064
0.00576094
0.0122747
0.0322464
0.0559354
0.072793
0.0819938
0.0045952
0.00459165
0.00458346
0.00457006
0.00455098
0.00452785
0.0045106
0.00454055
0.0047955
0.00640417
0.014958
0.0360653
0.0580916
0.07358
0.0820511
0.00456716
0.00456338
0.00455475
0.00454097
0.00452233
0.0045023
0.00449533
0.00455681
0.00495562
0.00729963
0.0180139
0.0396186
0.0600478
0.0742957
0.0821117
0.00453927
0.00453533
0.00452644
0.00451259
0.0044947
0.00447784
0.00448218
0.00458918
0.00519492
0.00852766
0.0213573
0.0428167
0.061802
0.0749442
0.0821714
0.00451146
0.00450737
0.00449824
0.00448443
0.00446789
0.00445706
0.00448293
0.00465265
0.00554372
0.010128
0.0248323
0.0457077
0.0633872
0.0755346
0.0822307
0.00448381
0.00447964
0.0044705
0.00445734
0.00444354
0.00444111
0.00449011
0.00475018
0.00604272
0.0121284
0.0283048
0.0483405
0.0648214
0.0760753
0.0822894
0.00445632
0.00445214
0.00444317
0.00443098
0.00442051
0.00442802
0.00451002
0.00489683
0.00673866
0.0144915
0.0316723
0.0507488
0.0661217
0.0765705
0.0823466
0.00442908
0.00442497
0.00441644
0.00440587
0.00440045
0.0044235
0.00454897
0.00510756
0.00768008
0.0171689
0.0348758
0.0529646
0.0673095
0.0770268
0.0824025
0.00440212
0.00439821
0.00439042
0.0043822
0.00438387
0.00442686
0.00461414
0.00540942
0.00891709
0.0200719
0.0378734
0.0550005
0.0683977
0.077448
0.0824561
0.00437556
0.00437194
0.00436532
0.00436068
0.00437164
0.00443934
0.00471093
0.0058306
0.0104801
0.023101
0.0406764
0.0568739
0.0693982
0.0778379
0.0825075
0.00434936
0.00434637
0.00434155
0.00434117
0.0043635
0.00446424
0.00485079
0.00641086
0.0123731
0.0261555
0.0432935
0.0585974
0.0703201
0.0782001
0.0825571
0.00432405
0.0043216
0.00431877
0.00432464
0.00436495
0.00451025
0.00504975
0.00719001
0.0145669
0.0291686
0.0457403
0.0601884
0.0711694
0.0785354
0.0826034
0.00429889
0.00429769
0.0042986
0.00431308
0.00437239
0.00457938
0.00532631
0.00820856
0.0170155
0.0320835
0.0480317
0.0616638
0.0719582
0.0788487
0.0826475
0.00427565
0.00427565
0.00427997
0.00430339
0.00438976
0.0046794
0.00570822
0.00950519
0.0196506
0.034877
0.0501673
0.0630277
0.0726889
0.0791403
0.0826889
0.00425226
0.00425405
0.00426428
0.00430373
0.00442401
0.00482069
0.00622503
0.011089
0.0223856
0.0375385
0.0521605
0.0642951
0.0733667
0.0794114
0.0827268
0.00423175
0.00423615
0.00425354
0.00430875
0.00447707
0.0050182
0.00691455
0.0129566
0.0251633
0.0400722
0.0540242
0.065475
0.0739978
0.0796642
0.0827614
0.00421187
0.00421893
0.00424459
0.00432255
0.0045538
0.00528823
0.00781003
0.0150761
0.0279161
0.0424746
0.0557656
0.066573
0.0745852
0.0798995
0.0827923
0.00419504
0.00420636
0.00424484
0.0043497
0.00466252
0.00565555
0.00894884
0.0174046
0.0306165
0.0447518
0.0573971
0.0675982
0.0751335
0.0801188
0.0828194
0.00418069
0.00419696
0.00424996
0.00439384
0.00481369
0.00614734
0.010345
0.0198735
0.0332368
0.0469018
0.058923
0.068554
0.0756442
0.0803223
0.0828426
0.00417011
0.00419284
0.00426238
0.00445774
0.00502074
0.00679638
0.0120037
0.0224327
0.035772
0.0489356
0.0603551
0.0694486
0.0761215
0.0805114
0.0828614
0.00416399
0.00419538
0.00428888
0.0045487
0.00530097
0.00763503
0.013907
0.0250204
0.0382071
0.0508523
0.0616953
0.0702834
0.0765659
0.0806859
0.0828757
0.00416423
0.00420314
0.00432964
0.00467436
0.00567715
0.00869563
0.0160211
0.0276034
0.0405442
0.0526657
0.0629557
0.0710656
0.0769808
0.0808467
0.0828849
0.00417046
0.00422238
0.00438995
0.00484679
0.00617634
0.00999492
0.0182972
0.0301516
0.0427765
0.0543747
0.0641367
0.0717976
0.0773678
0.0809949
0.08289
0.00418252
0.00425365
0.00447427
0.00507898
0.0068283
0.0115419
0.0206872
0.0326478
0.0449061
0.0559875
0.0652457
0.0724822
0.0777277
0.0811296
0.0828886
0.00420867
0.00430184
0.00459179
0.00539136
0.00766624
0.0133241
0.0231398
0.0350752
0.0469329
0.0575088
0.066287
0.0731222
0.078062
0.0812517
0.0828824
0.00424825
0.00436976
0.00475062
0.00580554
0.00871683
0.0153146
0.0256207
0.0374279
0.048863
0.0589458
0.067266
0.0737216
0.0783724
0.0813613
0.0828697
0.00430696
0.00446563
0.00496639
0.00635164
0.0100007
0.0174745
0.0280974
0.0396959
0.0506958
0.0603002
0.0681845
0.0742812
0.0786592
0.0814583
0.0828505
0.00438812
0.00459542
0.00525376
0.00705795
0.0115225
0.019759
0.0305497
0.0418797
0.0524387
0.0615796
0.0690481
0.0748043
0.0789242
0.0815435
0.0828254
0.00450093
0.00477252
0.00563801
0.00795916
0.0132754
0.0221283
0.0329588
0.0439741
0.0540907
0.0627847
0.0698578
0.075292
0.0791679
0.0816169
0.082794
0.00465281
0.0050092
0.00614331
0.00907818
0.0152313
0.0245438
0.0353114
0.045981
0.0556595
0.0639225
0.0706177
0.0757463
0.0793908
0.0816784
0.0827557
0.0048591
0.00532751
0.00680457
0.0104361
0.0173589
0.0269793
0.0376009
0.0479017
0.057147
0.0649948
0.0713309
0.0761691
0.0795942
0.0817283
0.0827106
0.00513494
0.00575007
0.00765252
0.0120327
0.0196161
0.0294069
0.0398171
0.0497336
0.058554
0.0660036
0.071998
0.076561
0.0797782
0.0817667
0.0826584
0.00550698
0.00631146
0.00872239
0.0138592
0.0219683
0.0318103
0.0419581
0.0514818
0.0598871
0.0669538
0.0726217
0.0769231
0.0799428
0.081793
0.0825984
0.00600393
0.00704636
0.0100358
0.015887
0.0243779
0.0341711
0.0440185
0.0531456
0.0611471
0.0678467
0.0732039
0.0772569
0.0800892
0.081808
0.0825313
0.00667021
0.00799946
0.0116079
0.0180854
0.0268183
0.0364811
0.0459998
0.05473
0.0623388
0.0686858
0.0737462
0.0775624
0.080216
0.0818093
0.0824549
0.00755207
0.00920735
0.0134325
0.0204149
0.029262
0.0387283
0.0478976
0.0562334
0.0634619
0.0694716
0.0742495
0.0778411
0.0803258
0.0818011
0.0823713
0.00870891
0.010707
0.0154948
0.0228418
0.0316908
0.0409082
0.0497147
0.0576614
0.0645216
0.0702073
0.0747158
0.0780938
0.0804177
0.0817801
0.0822791
0.0101906
0.0125133
0.0177624
0.0253302
0.0340864
0.0430146
0.0514496
0.0590134
0.0655179
0.0708941
0.0751457
0.07832
0.0804907
0.0817451
0.0821769
0.0120395
0.0146306
0.0202044
0.0278548
0.0364377
0.0450445
0.0531025
0.060291
0.0664528
0.0715331
0.0755398
0.0785205
0.0805454
0.0816975
0.0820652
0.0142636
0.0170357
0.0227803
0.0303869
0.0387302
0.0469918
0.0546723
0.0614952
0.0673272
0.072124
0.0758976
0.0786944
0.0805812
0.0816363
0.0819431
0.0168415
0.0196938
0.0254576
0.0329098
0.0409593
0.0488584
0.0561626
0.0626296
0.0681441
0.0726701
0.0762215
0.0788433
0.0805988
0.0815618
0.0818107
0.0197138
0.0225504
0.0281982
0.0354021
0.0431135
0.0506375
0.0575694
0.0636915
0.0689014
0.0731689
0.0765089
0.0789642
0.0805947
0.0814712
0.0816658
0.0228021
0.0255452
0.0309704
0.0378521
0.0451914
0.0523326
0.0588976
0.0646852
0.0696025
0.0736236
0.076763
0.0790614
0.0805752
0.0813678
0.0815102
0.0260167
0.0286119
0.0337382
0.040243
0.0471845
0.0539377
0.0601421
0.0656072
0.0702456
0.0740323
0.0769813
0.0791306
0.0805328
0.0812477
0.0813415
0.0292726
0.0316882
0.0364699
0.0425629
0.0490897
0.0554535
0.0613051
0.0664597
0.0708317
0.074396
0.0771648
0.079173
0.0804695
0.0811112
0.0811594
0.0324957
0.0347171
0.0391321
0.044795
0.0508991
0.0568759
0.0623843
0.0672404
0.0713582
0.074711
0.0773085
0.0791824
0.0803816
0.0809557
0.0809621
0.0356241
0.03765
0.0416966
0.0469281
0.052611
0.0582069
0.0633811
0.0679496
0.0718252
0.0749783
0.0774158
0.0791665
0.080272
0.0807818
0.0807498
0.0386141
0.0404515
0.0441408
0.0489499
0.0542183
0.059441
0.0642923
0.068587
0.0722335
0.0751991
0.0774869
0.079122
0.0801399
0.0805895
0.0805219
0.0414328
0.0430928
0.0464432
0.050847
0.0557147
0.0605771
0.0651181
0.0691511
0.0725799
0.0753673
0.0775123
0.0790391
0.079979
0.080375
0.0802758
0.0440581
0.0455546
0.0485903
0.0526125
0.057098
0.0616134
0.0658552
0.0696376
0.0728604
0.0754816
0.077496
0.0789217
0.0797888
0.0801362
0.0800094
0.0464797
0.0478277
0.0505745
0.0542414
0.058366
0.0625518
0.0665098
0.0700553
0.0730848
0.0755513
0.0774438
0.0787739
0.0795723
0.0798745
0.0797229
0.0486929
0.0499061
0.0523889
0.0557268
0.0595127
0.0633861
0.0670732
0.0703916
0.0732349
0.0755512
0.0773342
0.0785821
0.0793214
0.079585
0.0794132
0.0506942
0.0517867
0.0540315
0.0570691
0.0605411
0.064121
0.0675525
0.0706582
0.0733302
0.075513
0.077185
0.0783535
0.0790379
0.0792672
0.0790788
0.0524948
0.0534792
0.0555088
0.0582714
0.0614522
0.0647566
0.0679458
0.0708482
0.0733551
0.0754139
0.0769883
0.0780851
0.0787203
0.07892
0.0787187
0.0540928
0.0549804
0.0568164
0.0593298
0.0622438
0.0652932
0.068256
0.0709688
0.0733233
0.075257
0.0767416
0.0777738
0.078366
0.078541
0.0783306
0.0555056
0.0563071
0.0579697
0.0602568
0.0629251
0.0657368
0.0684873
0.0710203
0.0732333
0.0750515
0.0764505
0.0774224
0.0779758
0.07813
0.0779139
0.0567357
0.05746
0.0589667
0.0610489
0.0634925
0.0660839
0.0686353
0.0709992
0.0730732
0.0747879
0.0761099
0.077028
0.0775478
0.0776854
0.0774671
0.0578005
0.0584561
0.0598232
0.0617207
0.0639605
0.0663503
0.0687183
0.0709258
0.0728659
0.0744785
0.0757261
0.0765938
0.0770833
0.0772075
0.0769897
0.058704
0.0592979
0.060539
0.0622685
0.0643195
0.0665201
0.0687125
0.0707741
0.0725967
0.0741171
0.0752969
0.076119
0.076582
0.0766959
0.0764814
0.0594633
0.0600021
0.061131
0.0627101
0.0645917
0.066622
0.0686576
0.0705733
0.0722798
0.073711
0.0748263
0.0756058
0.0760451
0.0761513
0.0759422
0.0600807
0.0605705
0.0615981
0.0630396
0.0647642
0.0666337
0.0685262
0.0703135
0.071913
0.0732609
0.0743158
0.0750557
0.0754738
0.0755743
0.0753725
0.0605755
0.0610216
0.061959
0.0632779
0.0648626
0.0665893
0.0683369
0.0700023
0.0715008
0.0727698
0.0737677
0.0744707
0.0748696
0.0749663
0.0747731
0.0609507
0.0613568
0.0622112
0.0634167
0.0648699
0.06647
0.0680904
0.0696423
0.0710459
0.0722406
0.0731847
0.073853
0.0742344
0.0743284
0.074145
0.0612202
0.0615909
0.0623722
0.0634777
0.064819
0.0662882
0.0677908
0.069237
0.0705515
0.0716761
0.0725692
0.0732049
0.0735702
0.0736625
0.0734896
0.0613918
0.0617301
0.0624439
0.0634575
0.0646929
0.066049
0.0674423
0.0687899
0.0700207
0.071079
0.0719238
0.0725286
0.0728789
0.0729703
0.0728083
0.0614683
0.061777
0.0624332
0.063372
0.0645032
0.0657561
0.0670486
0.0683042
0.0694566
0.0704523
0.0712513
0.0718267
0.0721628
0.0722537
0.0721029
0.0614647
0.0617536
0.062361
0.0632137
0.0642557
0.0654136
0.066613
0.0677831
0.0688619
0.0697986
0.0705541
0.0711015
0.0714242
0.0715149
0.0713752
0.061407
0.061667
0.0622136
0.0629962
0.063956
0.0650264
0.0661394
0.0672299
0.0682397
0.0691206
0.0698348
0.0703554
0.0706653
0.0707559
0.0706271
0.0612632
0.0614987
0.0620017
0.0627223
0.0636076
0.0645979
0.0656311
0.0666474
0.0675925
0.0684208
0.0690958
0.0695908
0.0698883
0.0699787
0.0698605
0.0610515
0.0612697
0.0617332
0.0623974
0.0632148
0.0641315
0.0650912
0.0660385
0.0669231
0.0677017
0.0683394
0.0688099
0.0690954
0.0691855
0.0690775
0.060786
0.0609871
0.0614141
0.0620266
0.0627818
0.063631
0.0645226
0.0654058
0.0662337
0.0669656
0.0675678
0.0680148
0.0682887
0.0683783
0.0682799
0.0604706
0.0606558
0.0610493
0.0616145
0.0623127
0.0630997
0.0639284
0.064752
0.0655269
0.0662146
0.0667832
0.0672077
0.0674701
0.067559
0.0674697
0.0601097
0.0602804
0.0606433
0.0611652
0.0618111
0.0625408
0.0633112
0.0640794
0.0648046
0.0654508
0.0659874
0.0663903
0.0666417
0.0667296
0.0666487
0.0597079
0.0598653
0.0602002
0.0606825
0.0612804
0.0619573
0.0626739
0.0633904
0.0640692
0.0646762
0.0651825
0.0655647
0.0658052
0.065892
0.0658188
0.0592693
0.0594146
0.059724
0.0601699
0.0607237
0.0613519
0.0620186
0.0626871
0.0633224
0.0638926
0.0643701
0.0647325
0.0649624
0.0650476
0.0649816
0.0587979
0.0589322
0.0592181
0.0596308
0.060144
0.0607273
0.0613478
0.0619716
0.0625663
0.0631017
0.0635519
0.0638953
0.0641148
0.0641984
0.0641388
0.0582972
0.0584214
0.0586859
0.059068
0.0595439
0.0600858
0.0606635
0.0612458
0.0618023
0.0623051
0.0627295
0.0630546
0.0632641
0.0633457
0.063292
0.0577707
0.0578856
0.0581305
0.0584846
0.0589261
0.0594298
0.0599678
0.0605114
0.0610323
0.0615044
0.0619042
0.0622119
0.0624115
0.062491
0.0624427
0.0572214
0.0573278
0.0575547
0.057883
0.0582929
0.0587612
0.0592624
0.05977
0.0602576
0.0607008
0.0610774
0.0613684
0.0615585
0.0616357
0.061592
0.0566521
0.0567508
0.0569611
0.0572657
0.0576464
0.0580821
0.0585492
0.0590232
0.0594797
0.0598957
0.0602503
0.0605255
0.0607062
0.0607809
0.0607416
0.0560655
0.056157
0.0563521
0.0566349
0.0569887
0.0573942
0.0578297
0.0582724
0.0586998
0.0590903
0.0594241
0.0596841
0.0598558
0.0599279
0.0598923
0.0554639
0.0555488
0.0557299
0.0559926
0.0563217
0.0566992
0.0571053
0.057519
0.0579192
0.0582856
0.0585998
0.0588453
0.0590083
0.0590777
0.0590455
0.0548495
0.0549284
0.0550967
0.0553408
0.055647
0.0559986
0.0563775
0.0567641
0.0571388
0.0574827
0.0577783
0.0580101
0.0581647
0.0582313
0.0582021
0.0542245
0.0542978
0.0544542
0.0546813
0.0549662
0.055294
0.0556475
0.0560089
0.0563598
0.0566825
0.0569607
0.0571793
0.0573258
0.0573897
0.057363
0.0535905
0.0536587
0.0538042
0.0540155
0.0542809
0.0545864
0.0549165
0.0552543
0.055583
0.0558859
0.0561475
0.0563538
0.0564925
0.0565535
0.0565292
0.0529494
0.0530129
0.0531483
0.053345
0.0535923
0.0538773
0.0541856
0.0545015
0.0548094
0.0550937
0.0553397
0.0555342
0.0556655
0.0557238
0.0557014
0.0523027
0.0523618
0.0524879
0.0526712
0.0529018
0.0531677
0.0534557
0.0537513
0.0540398
0.0543066
0.054538
0.0547213