/*--------------------------------*- C++ -*----------------------------------*\
  =========                 |
  \\      /  F ield         | OpenFOAM: The Open Source CFD Toolbox
   \\    /   O peration     | Website:  https://openfoam.org
    \\  /    A nd           | Version:  7
     \\/     M anipulation  |
\*---------------------------------------------------------------------------*/
FoamFile
{
    version     2.0;
    format      ascii;
    class       volScalarField;
    location    "400";
    object      nut;
}
// * * * * * * * * * * * * * * * * * * * * * * * * * * * * * * * * * * * * * //

dimensions      [0 2 -1 0 0 0 0];

internalField   nonuniform List<scalar> 
32100
(
0.000263484
0.000263484
0.000263484
0.000263484
0.000263484
0.000263484
0.000263484
0.000263484
0.000263484
0.000263484
0.000263487
0.000263509
0.000261889
0.000217326
1.42099e-05
0.000263455
0.000263455
0.000263455
0.000263455
0.000263455
0.000263455
0.000263455
0.000263455
0.000263455
0.000263455
0.000263454
0.000263244
0.000258687
0.000171501
1.452e-05
0.000263425
0.000263425
0.000263425
0.000263425
0.000263425
0.000263425
0.000263425
0.000263426
0.000263426
0.000263427
0.000263421
0.000263
0.000251909
0.000145409
1.48277e-05
0.000263396
0.000263396
0.000263396
0.000263396
0.000263396
0.000263396
0.000263396
0.000263396
0.000263397
0.000263401
0.000263381
0.000262446
0.000244334
0.000128195
1.51335e-05
0.000263367
0.000263367
0.000263367
0.000263367
0.000263367
0.000263367
0.000263367
0.000263367
0.000263369
0.000263375
0.00026331
0.000261435
0.000236214
0.000115211
1.54361e-05
0.000263338
0.000263338
0.000263338
0.000263338
0.000263338
0.000263338
0.000263338
0.000263339
0.000263341
0.000263349
0.000263191
0.000259995
0.000228041
0.000105478
1.57371e-05
0.000263309
0.000263309
0.000263309
0.000263309
0.000263309
0.000263309
0.000263309
0.00026331
0.000263314
0.000263318
0.000262998
0.000258222
0.000219861
9.69963e-05
1.60353e-05
0.00026328
0.00026328
0.00026328
0.00026328
0.00026328
0.00026328
0.00026328
0.000263282
0.000263287
0.000263279
0.000262734
0.000256128
0.000211846
8.9638e-05
1.63308e-05
0.000263251
0.000263251
0.000263251
0.000263251
0.000263251
0.000263251
0.000263252
0.000263254
0.000263261
0.000263228
0.000262356
0.000253714
0.000203971
8.32542e-05
1.66236e-05
0.000263222
0.000263222
0.000263222
0.000263222
0.000263222
0.000263223
0.000263223
0.000263226
0.000263233
0.000263159
0.000261871
0.000251035
0.000196408
7.76901e-05
1.69137e-05
0.000263194
0.000263194
0.000263194
0.000263194
0.000263194
0.000263194
0.000263195
0.000263199
0.000263203
0.000263069
0.0002613
0.00024814
0.000189193
7.28126e-05
1.72009e-05
0.000263165
0.000263165
0.000263165
0.000263165
0.000263165
0.000263166
0.000263167
0.000263172
0.000263171
0.000262955
0.000260624
0.000245063
0.000182272
6.85066e-05
1.74852e-05
0.000263137
0.000263137
0.000263137
0.000263137
0.000263137
0.000263138
0.000263139
0.000263144
0.000263134
0.000262812
0.000259816
0.00024184
0.000175691
6.46824e-05
1.77665e-05
0.000263108
0.000263108
0.000263108
0.000263108
0.000263109
0.000263109
0.000263112
0.000263117
0.000263092
0.000262636
0.000258899
0.000238502
0.000169447
6.12646e-05
1.80445e-05
0.00026308
0.00026308
0.00026308
0.00026308
0.000263081
0.000263082
0.000263084
0.000263089
0.000263044
0.000262424
0.000257875
0.000235081
0.000163533
5.81941e-05
1.83194e-05
0.000263052
0.000263052
0.000263052
0.000263052
0.000263053
0.000263054
0.000263057
0.00026306
0.000262987
0.000262173
0.000256748
0.0002316
0.000157934
5.54207e-05
1.85907e-05
0.000263024
0.000263024
0.000263024
0.000263025
0.000263025
0.000263026
0.00026303
0.000263029
0.000262921
0.000261882
0.000255524
0.000228084
0.000152638
5.29048e-05
1.88586e-05
0.000262996
0.000262996
0.000262997
0.000262997
0.000262997
0.000262999
0.000263003
0.000262997
0.000262844
0.000261548
0.000254208
0.00022455
0.000147625
5.06123e-05
1.91227e-05
0.000262969
0.000262969
0.000262969
0.000262969
0.00026297
0.000262972
0.000262976
0.000262963
0.000262755
0.000261171
0.000252809
0.000221016
0.000142881
4.85161e-05
1.93831e-05
0.000262941
0.000262941
0.000262942
0.000262942
0.000262943
0.000262945
0.000262948
0.000262927
0.000262651
0.000260747
0.000251332
0.000217494
0.000138386
4.65927e-05
1.96395e-05
0.000262914
0.000262914
0.000262914
0.000262915
0.000262916
0.000262918
0.00026292
0.000262887
0.000262534
0.000260282
0.000249785
0.000213997
0.000134128
4.48225e-05
1.9892e-05
0.000262887
0.000262887
0.000262887
0.000262887
0.000262889
0.000262891
0.000262892
0.000262843
0.000262399
0.000259766
0.000248173
0.000210532
0.000130086
4.31893e-05
2.01402e-05
0.00026286
0.00026286
0.00026286
0.00026286
0.000262862
0.000262864
0.000262863
0.000262796
0.000262249
0.000259216
0.000246505
0.000207109
0.000126251
4.16781e-05
2.03842e-05
0.000262833
0.000262833
0.000262833
0.000262834
0.000262835
0.000262838
0.000262834
0.000262743
0.00026208
0.000258603
0.000244785
0.000203732
0.000122604
4.0278e-05
2.06238e-05
0.000262806
0.000262806
0.000262806
0.000262807
0.000262808
0.000262811
0.000262803
0.000262685
0.000261891
0.000257959
0.000243019
0.000200408
0.000119138
3.89766e-05
2.0859e-05
0.000262779
0.000262779
0.000262779
0.00026278
0.000262782
0.000262784
0.000262771
0.000262621
0.000261684
0.000257282
0.000241216
0.000197138
0.000115836
3.77671e-05
2.10895e-05
0.000262753
0.000262753
0.000262753
0.000262754
0.000262756
0.000262757
0.000262738
0.000262551
0.000261456
0.000256555
0.000239378
0.000193927
0.000112691
3.66385e-05
2.13155e-05
0.000262726
0.000262726
0.000262726
0.000262727
0.000262729
0.00026273
0.000262703
0.000262473
0.000261208
0.000255789
0.000237512
0.000190776
0.000109689
3.55873e-05
2.15367e-05
0.0002627
0.0002627
0.0002627
0.000262701
0.000262703
0.000262702
0.000262666
0.000262388
0.000260938
0.000254985
0.000235621
0.000187687
0.000106826
3.4603e-05
2.17532e-05
0.000262673
0.000262673
0.000262674
0.000262675
0.000262677
0.000262675
0.000262626
0.000262295
0.000260647
0.000254145
0.000233711
0.000184659
0.000104088
3.36851e-05
2.19647e-05
0.000262647
0.000262647
0.000262648
0.000262649
0.000262651
0.000262646
0.000262585
0.000262193
0.000260335
0.00025327
0.000231785
0.000181697
0.000101472
3.28226e-05
2.21714e-05
0.000262621
0.000262621
0.000262622
0.000262623
0.000262624
0.000262618
0.000262541
0.000262082
0.000260001
0.000252362
0.000229848
0.000178796
9.89658e-05
3.2018e-05
2.23731e-05
0.000262595
0.000262595
0.000262596
0.000262597
0.000262598
0.000262588
0.000262493
0.000261962
0.000259645
0.000251423
0.000227902
0.000175959
9.65687e-05
3.12594e-05
2.25699e-05
0.000262569
0.000262569
0.00026257
0.000262571
0.000262572
0.000262558
0.000262443
0.000261832
0.000259268
0.000250454
0.00022595
0.000173184
9.42684e-05
3.05523e-05
2.27615e-05
0.000262543
0.000262544
0.000262544
0.000262546
0.000262546
0.000262527
0.000262389
0.000261692
0.000258869
0.000249459
0.000223997
0.000170473
9.20652e-05
2.98831e-05
2.29482e-05
0.000262518
0.000262518
0.000262519
0.00026252
0.000262519
0.000262495
0.000262331
0.000261541
0.000258448
0.000248437
0.000222043
0.000167822
8.99481e-05
2.92603e-05
2.31297e-05
0.000262492
0.000262492
0.000262493
0.000262494
0.000262492
0.000262461
0.000262269
0.00026138
0.000258007
0.000247391
0.000220092
0.000165232
8.79179e-05
2.86685e-05
2.33063e-05
0.000262467
0.000262467
0.000262468
0.000262469
0.000262466
0.000262427
0.000262204
0.000261207
0.000257545
0.000246323
0.000218145
0.000162701
8.59646e-05
2.81194e-05
2.34777e-05
0.000262441
0.000262441
0.000262442
0.000262443
0.000262438
0.000262391
0.000262133
0.000261024
0.000257063
0.000245234
0.000216206
0.00016023
8.40892e-05
2.7595e-05
2.36441e-05
0.000262416
0.000262416
0.000262417
0.000262418
0.000262411
0.000262354
0.000262058
0.000260829
0.000256561
0.000244126
0.000214274
0.000157816
8.22832e-05
2.71105e-05
2.38053e-05
0.000262391
0.000262391
0.000262392
0.000262392
0.000262383
0.000262315
0.000261978
0.000260622
0.00025604
0.000243
0.000212353
0.000155459
8.05469e-05
2.66451e-05
2.39616e-05
0.000262365
0.000262366
0.000262367
0.000262366
0.000262355
0.000262274
0.000261892
0.000260403
0.000255499
0.000241859
0.000210444
0.000153156
7.88738e-05
2.62177e-05
2.41127e-05
0.00026234
0.000262341
0.000262341
0.000262341
0.000262326
0.000262232
0.000261801
0.000260173
0.000254941
0.000240702
0.000208547
0.000150908
7.7263e-05
2.58041e-05
2.42591e-05
0.000262315
0.000262316
0.000262316
0.000262315
0.000262296
0.000262187
0.000261705
0.000259931
0.000254364
0.000239533
0.000206665
0.000148713
7.57102e-05
2.54275e-05
2.44002e-05
0.00026229
0.000262291
0.000262291
0.000262289
0.000262266
0.00026214
0.000261603
0.000259677
0.000253771
0.000238352
0.000204797
0.00014657
7.4213e-05
2.50595e-05
2.45368e-05
0.000262266
0.000262266
0.000262266
0.000262263
0.000262235
0.000262091
0.000261494
0.000259411
0.00025316
0.00023716
0.000202946
0.000144477
7.27696e-05
2.47283e-05
2.46681e-05
0.000262241
0.000262241
0.000262241
0.000262237
0.000262204
0.000262039
0.00026138
0.000259133
0.000252534
0.000235959
0.000201111
0.000142434
7.13755e-05
2.44007e-05
2.4795e-05
0.000262216
0.000262216
0.000262216
0.000262211
0.000262171
0.000261984
0.000261259
0.000258843
0.00025189
0.00023475
0.000199294
0.000140439
7.00318e-05
2.411e-05
2.49168e-05
0.000262192
0.000262192
0.000262192
0.000262184
0.000262138
0.000261927
0.000261132
0.000258542
0.000251236
0.000233534
0.000197495
0.000138491
6.87314e-05
2.38182e-05
2.50343e-05
0.000262167
0.000262167
0.000262167
0.000262157
0.000262103
0.000261867
0.000260999
0.000258229
0.000250561
0.000232312
0.000195715
0.000136589
6.7479e-05
2.35642e-05
2.51467e-05
0.000262142
0.000262143
0.000262142
0.00026213
0.000262068
0.000261804
0.000260858
0.000257904
0.000249877
0.000231085
0.000193954
0.000134731
6.6264e-05
2.33042e-05
2.52551e-05
0.000262118
0.000262118
0.000262117
0.000262103
0.000262031
0.000261738
0.000260711
0.000257568
0.000249182
0.000229854
0.000192213
0.000132918
6.50952e-05
2.30834e-05
2.53585e-05
0.000262094
0.000262094
0.000262091
0.000262075
0.000261993
0.000261669
0.000260557
0.000257221
0.000248471
0.000228621
0.000190492
0.000131146
6.39583e-05
2.28516e-05
2.5458e-05
0.000262069
0.000262069
0.000262066
0.000262047
0.000261954
0.000261596
0.000260396
0.000256863
0.000247749
0.000227386
0.000188792
0.000129418
6.28664e-05
2.2661e-05
2.55527e-05
0.000262045
0.000262045
0.000262041
0.000262018
0.000261913
0.00026152
0.000260228
0.000256493
0.000247016
0.00022615
0.000187111
0.000127728
6.18009e-05
2.24543e-05
2.56437e-05
0.000262021
0.00026202
0.000262016
0.000261989
0.000261871
0.00026144
0.000260053
0.000256113
0.000246273
0.000224913
0.000185452
0.000126079
6.07796e-05
2.22913e-05
2.573e-05
0.000261997
0.000261996
0.00026199
0.000261959
0.000261828
0.000261357
0.000259871
0.000255722
0.000245519
0.000223676
0.000183813
0.000124467
5.97797e-05
2.21071e-05
2.58129e-05
0.000261972
0.000261971
0.000261964
0.000261928
0.000261782
0.00026127
0.000259682
0.000255321
0.000244757
0.000222441
0.000182196
0.000122895
5.88236e-05
2.19694e-05
2.5891e-05
0.000261948
0.000261947
0.000261938
0.000261897
0.000261735
0.000261179
0.000259486
0.00025491
0.000243985
0.000221208
0.000180599
0.000121356
5.7884e-05
2.18051e-05
2.59662e-05
0.000261924
0.000261923
0.000261912
0.000261866
0.000261686
0.000261084
0.000259282
0.000254489
0.000243205
0.000219976
0.000179024
0.000119855
5.69879e-05
2.1691e-05
2.60366e-05
0.0002619
0.000261898
0.000261886
0.000261833
0.000261636
0.000260985
0.000259072
0.000254058
0.000242417
0.000218748
0.00017747
0.000118387
5.61039e-05
2.15442e-05
2.61043e-05
0.000261876
0.000261873
0.000261859
0.0002618
0.000261583
0.000260881
0.000258854
0.000253618
0.000241623
0.000217524
0.000175938
0.000116954
5.52631e-05
2.14522e-05
2.61674e-05
0.000261852
0.000261849
0.000261832
0.000261766
0.000261528
0.000260774
0.000258629
0.000253169
0.000240821
0.000216303
0.000174426
0.000115552
5.44305e-05
2.13208e-05
2.62281e-05
0.000261828
0.000261824
0.000261805
0.000261731
0.000261471
0.000260662
0.000258397
0.00025271
0.000240014
0.000215087
0.000172935
0.000114183
5.36408e-05
2.12496e-05
2.62842e-05
0.000261804
0.000261799
0.000261778
0.000261695
0.000261412
0.000260546
0.000258157
0.000252244
0.000239201
0.000213876
0.000171466
0.000112845
5.28558e-05
2.11316e-05
2.63383e-05
0.000261779
0.000261774
0.00026175
0.000261658
0.000261351
0.000260426
0.000257911
0.000251768
0.000238382
0.000212671
0.000170016
0.000111536
5.2113e-05
2.10801e-05
2.63877e-05
0.000261755
0.000261749
0.000261721
0.00026162
0.000261288
0.000260301
0.000257658
0.000251285
0.00023756
0.000211471
0.000168589
0.000110258
5.13725e-05
2.09738e-05
2.64356e-05
0.000261731
0.000261724
0.000261693
0.000261581
0.000261222
0.000260172
0.000257398
0.000250794
0.000236732
0.000210277
0.000167179
0.000109006
5.06725e-05
2.0941e-05
2.64788e-05
0.000261707
0.000261698
0.000261663
0.000261541
0.000261153
0.000260038
0.000257132
0.000250295
0.000235902
0.000209091
0.000165795
0.000107786
4.99737e-05
2.08448e-05
2.65209e-05
0.000261682
0.000261673
0.000261634
0.0002615
0.000261082
0.0002599
0.000256858
0.000249789
0.000235067
0.00020791
0.000164424
0.000106585
4.93125e-05
2.08297e-05
2.65581e-05
0.000261658
0.000261647
0.000261603
0.000261457
0.000261009
0.000259757
0.000256578
0.000249276
0.00023423
0.000206739
0.000163081
0.000105422
4.86534e-05
2.07422e-05
2.65947e-05
0.000261633
0.000261621
0.000261573
0.000261413
0.000260933
0.000259609
0.000256291
0.000248756
0.00023339
0.000205571
0.000161747
0.000104267
4.80265e-05
2.07441e-05
2.66264e-05
0.000261608
0.000261594
0.000261541
0.000261368
0.000260854
0.000259457
0.000255998
0.00024823
0.000232549
0.000204416
0.000160447
0.000103161
4.74056e-05
2.06637e-05
2.66582e-05
0.000261583
0.000261568
0.000261509
0.000261321
0.000260772
0.000259301
0.000255698
0.000247697
0.000231704
0.000203262
0.000159147
0.000102045
4.68078e-05
2.06818e-05
2.66839e-05
0.000261558
0.000261541
0.000261476
0.000261273
0.000260688
0.000259139
0.000255392
0.000247159
0.000230861
0.000202126
0.000157892
0.000100996
4.62245e-05
2.06076e-05
2.67119e-05
0.000261532
0.000261513
0.000261443
0.000261224
0.000260601
0.000258973
0.00025508
0.000246614
0.000230011
0.000200984
0.000156621
9.99115e-05
4.56495e-05
2.06382e-05
2.67322e-05
0.000261506
0.000261485
0.000261408
0.000261172
0.000260511
0.000258802
0.000254762
0.000246066
0.00022917
0.000199872
0.000155415
9.8924e-05
4.51042e-05
2.05775e-05
2.67542e-05
0.000261481
0.000261457
0.000261373
0.00026112
0.000260418
0.000258627
0.000254438
0.000245509
0.000228316
0.000198739
0.000154166
9.78598e-05
4.45432e-05
2.05873e-05
2.67722e-05
0.000261454
0.000261428
0.000261337
0.000261065
0.000260321
0.000258447
0.000254109
0.000244954
0.00022748
0.000197657
0.000153017
9.69397e-05
4.404e-05
2.05146e-05
2.68057e-05
0.000261428
0.0002614
0.0002613
0.000261009
0.000260223
0.000258263
0.000253772
0.000244384
0.000226618
0.000196525
0.000151776
9.58782e-05
4.34426e-05
2.03975e-05
2.67205e-05
0.000261347
0.00026131
0.000261186
0.000260834
0.000259916
0.000257699
0.000252765
0.000242725
0.000224187
0.000193461
0.000148606
9.341e-05
4.22829e-05
2.16519e-05
3.00739e-05
0.000261208
0.000261154
0.000260979
0.000260509
0.000259343
0.000256659
0.000250948
0.000239793
0.000219945
0.00018811
0.00014295
8.8679e-05
3.9158e-05
2.04216e-05
4.95715e-05
0.000261044
0.000260967
0.000260726
0.000260114
0.00025867
0.000255498
0.000249033
0.000236892
0.000216037
0.000183602
0.000138739
8.56725e-05
3.75969e-05
2.26622e-05
5.91219e-05
0.000260876
0.000260772
0.000260456
0.000259686
0.000257945
0.000254267
0.000247044
0.000233923
0.000212041
0.000178864
0.00013389
8.12766e-05
3.44604e-05
2.6681e-05
8.16008e-05
0.000260678
0.00026054
0.000260133
0.000259181
0.000257115
0.000252916
0.000244957
0.000230964
0.000208303
0.000174798
0.000130204
7.83668e-05
3.32057e-05
3.30742e-05
9.91638e-05
0.000260471
0.000260294
0.000259788
0.000258643
0.000256242
0.000251525
0.000242854
0.000228025
0.000204574
0.00017054
0.000125711
7.342e-05
3.06062e-05
4.46779e-05
0.000119394
0.000260227
0.000260005
0.000259384
0.000258024
0.000255267
0.000250019
0.000240655
0.000225069
0.000201003
0.000166733
0.000122003
6.99517e-05
2.99805e-05
5.85196e-05
0.000133468
0.000259969
0.000259698
0.000258955
0.000257372
0.000254259
0.000248499
0.000238486
0.000222199
0.000197511
0.000162733
0.000117248
6.40427e-05
3.18255e-05
7.50091e-05
0.000148328
0.000259667
0.000259341
0.000258462
0.00025664
0.000253152
0.000246871
0.00023622
0.000219272
0.00019404
0.0001589
0.000113086
6.01391e-05
3.57592e-05
9.36999e-05
0.000162203
0.000259345
0.00025896
0.000257941
0.000255876
0.000252024
0.00024525
0.000234014
0.000216467
0.000190672
0.000154925
0.00010751
5.42226e-05
4.36286e-05
0.000112753
0.00017596
0.000258973
0.000258525
0.000257354
0.000255033
0.000250803
0.000243529
0.000231709
0.000213559
0.000187183
0.000150565
0.000102002
5.0358e-05
5.39878e-05
0.000131325
0.000190347
0.000258578
0.000258064
0.000256738
0.000254163
0.000249568
0.00024183
0.00022948
0.000210781
0.00018381
0.000146252
9.57462e-05
4.8451e-05
6.85063e-05
0.000148739
0.00020486
0.000258127
0.000257542
0.000256055
0.000253217
0.00024825
0.000240038
0.000227143
0.000207853
0.000180099
0.000140893
8.82529e-05
4.87539e-05
8.42513e-05
0.000165395
0.000219435
0.000257652
0.000256996
0.000255346
0.000252248
0.000246924
0.000238275
0.000224886
0.000205008
0.000176319
0.000135471
8.13532e-05
5.21782e-05
0.000103266
0.000181767
0.000234385
0.000257114
0.000256384
0.000254567
0.000251208
0.000245525
0.000236426
0.000222493
0.00020188
0.000172171
0.00012925
7.51349e-05
5.91849e-05
0.000122365
0.000196207
0.000248747
0.000256556
0.000255752
0.000253768
0.000250149
0.000244118
0.000234592
0.000220137
0.000198794
0.000167685
0.000122005
7.02024e-05
6.93345e-05
0.000141459
0.00021179
0.000263089
0.000255928
0.000255048
0.000252896
0.000249021
0.000242646
0.000232682
0.000217664
0.00019553
0.000162535
0.000114438
6.74792e-05
8.29079e-05
0.000159847
0.000227469
0.000277451
0.000255285
0.000254331
0.000252014
0.000247883
0.000241165
0.00023077
0.000215177
0.000191931
0.000157118
0.000106692
6.74363e-05
9.85365e-05
0.000177891
0.000243302
0.000291938
0.000254567
0.000253536
0.000251052
0.000246671
0.000239621
0.000228783
0.000212467
0.000188205
0.000150976
9.92444e-05
7.06092e-05
0.000116518
0.000195112
0.000259077
0.000306532
0.000253841
0.000252738
0.000250093
0.000245464
0.000238067
0.000226727
0.000209606
0.000183727
0.000143692
9.28294e-05
7.73524e-05
0.000135373
0.000212089
0.000274711
0.000321165
0.000253036
0.000251856
0.000249046
0.000244167
0.000236425
0.000224596
0.000206751
0.00017912
0.000136306
8.79252e-05
8.7388e-05
0.000154541
0.000229026
0.000290274
0.000335846
0.000252228
0.000250979
0.000248015
0.000242891
0.000234789
0.000222413
0.000203461
0.000173858
0.000128575
8.55461e-05
0.000100566
0.000173389
0.00024609
0.000305766
0.000350503
0.000251342
0.000250017
0.000246885
0.000241506
0.00023304
0.000220029
0.000200053
0.000167981
0.000120967
8.59019e-05
0.000115978
0.000192297
0.000263272
0.000321395
0.000365255
0.000250454
0.000249064
0.000245786
0.000240167
0.000231278
0.000217459
0.000195835
0.00016117
0.00011381
8.96683e-05
0.000133599
0.000210512
0.00027998
0.000336928
0.000380021
0.000249496
0.00024803
0.000244578
0.000238664
0.000229312
0.000214799
0.000191783
0.000154328
0.000108007
9.68219e-05
0.0001522
0.00022864
0.000296882
0.000352498
0.00039483
0.000248532
0.000247
0.000243399
0.000237239
0.000227477
0.000212017
0.000186785
0.000146918
0.000104043
0.000107299
0.000171272
0.000246793
0.000313698
0.000368088
0.000409682
0.000247506
0.0002459
0.000242123
0.000235647
0.000225228
0.000208691
0.000181297
0.000139585
0.000102706
0.000120555
0.000190495
0.000264947
0.000330439
0.000383677
0.000424569
0.000246473
0.0002448
0.000240861
0.000234051
0.000222977
0.000205127
0.000175194
0.000132399
0.00010426
0.000136226
0.000209717
0.000283132
0.000347175
0.00039929
0.000439496
0.000245387
0.000243633
0.000239484
0.000232287
0.000220608
0.000201266
0.00016891
0.000126348
0.000109227
0.000153747
0.000228755
0.000301209
0.000363874
0.000414914
0.000454454
0.000244287
0.000242453
0.000238134
0.00023063
0.000218044
0.0001967
0.000162032
0.00012169
0.000117442
0.000172353
0.000247878
0.000319253
0.000380574
0.000430567
0.000469452
0.000243134
0.000241235
0.000236691
0.000228526
0.000215033
0.000191695
0.00015518
0.000119391
0.000128825
0.000191557
0.000267002
0.000337151
0.000397224
0.000446236
0.000484489
0.000242004
0.000239977
0.000235125
0.000226535
0.000211914
0.000186311
0.00014842
0.000119663
0.00014276
0.00021115
0.000286201
0.000355149
0.000413876
0.000461912
0.00049955
0.000240738
0.000238647
0.00023362
0.000224426
0.000208275
0.000180587
0.000142527
0.00012313
0.000159099
0.000230843
0.000305461
0.000373075
0.000430577
0.00047765
0.000514664
0.00023961
0.00023738
0.000231895
0.000221899
0.00020407
0.000174351
0.000137856
0.000129859
0.000177018
0.000250698
0.000324552
0.000390719
0.00044717
0.000493377
0.000529805
0.000238232
0.000235856
0.000230034
0.000219465
0.000199757
0.000168112
0.000135207
0.000139768
0.000195942
0.000270659
0.000343622
0.000408551
0.000463795
0.000509123
0.000544973
0.000237051
0.000234562
0.000228377
0.000216464
0.000194953
0.000162002
0.000134976
0.000152514
0.000215673
0.000290779
0.000362688
0.000426344
0.000480437
0.0005249
0.000560174
0.00023563
0.000232914
0.000226206
0.000213101
0.000189766
0.000156598
0.000137708
0.000167835
0.000235738
0.000310932
0.000381705
0.000444091
0.000497077
0.000540699
0.000575408
0.00023434
0.00023138
0.000224217
0.000209507
0.000184258
0.000152339
0.000143645
0.000185159
0.000256206
0.000331148
0.000400719
0.000461834
0.000513734
0.000556528
0.000590675
0.000232792
0.000229756
0.000221748
0.000205642
0.000178737
0.000149927
0.000152763
0.000203846
0.000276903
0.000351314
0.00041966
0.000479531
0.00053038
0.000572373
0.00060597
0.000231411
0.000228143
0.000218958
0.000201386
0.000173425
0.000149824
0.000164856
0.000223658
0.000297901
0.000371539
0.000438615
0.000497249
0.000547055
0.00058825
0.000621293
0.00023002
0.000226301
0.000216091
0.000196824
0.000168792
0.000152581
0.000179706
0.0002441
0.000318977
0.000391663
0.000457471
0.000514894
0.000563703
0.000604132
0.000636638
0.000228678
0.000224185
0.000213001
0.000192122
0.000165356
0.000158489
0.000196754
0.000265146
0.000340225
0.000411902
0.000476482
0.000532622
0.000580395
0.000620042
0.000651993
0.000226991
0.000221983
0.000209582
0.000187456
0.000163726
0.000167573
0.000215494
0.00028663
0.000361502
0.000432005
0.000495179
0.000550255
0.000597078
0.000635977
0.000667368
0.000225056
0.000219702
0.000205986
0.000183176
0.000164428
0.000179748
0.000235566
0.000308486
0.000382818
0.000452079
0.000513945
0.00056787
0.000613749
0.000651911
0.000682739
0.000223245
0.000217222
0.000202214
0.000179698
0.000168009
0.000194784
0.000256545
0.000330556
0.000404126
0.000472125
0.000532733
0.000585487
0.000630422
0.000667857
0.000698135
0.000221436
0.000214656
0.000198508
0.000177608
0.000174751
0.000212149
0.00027834
0.000352852
0.000425488
0.000492183
0.000551507
0.000603115
0.000647111
0.000683816
0.000713536
0.000219544
0.000211976
0.000195082
0.000177474
0.000184742
0.000231418
0.000300717
0.000375236
0.000446791
0.000512159
0.000570212
0.000620706
0.000663785
0.000699773
0.000728942
0.000217702
0.000209354
0.000192345
0.000179871
0.000197921
0.000252163
0.000323598
0.000397777
0.000468163
0.00053218
0.000588944
0.000638318
0.000680478
0.000715749
0.000744368
0.000215914
0.000206911
0.000190807
0.000185334
0.000214012
0.000274114
0.000346831
0.000420331
0.00048941
0.000552037
0.00060757
0.000655878
0.000697154
0.000731726
0.000759803
0.000214406
0.00020498
0.000191049
0.000194074
0.00023252
0.00029699
0.000370332
0.000442969
0.000510768
0.000572125
0.000626282
0.000673465
0.000713839
0.000747708
0.000775243
0.000213341
0.000203927
0.000193732
0.00020628
0.000253097
0.00032067
0.0003941
0.000465671
0.000532057
0.000591929
0.000644924
0.000691046
0.000730534
0.000763703
0.000790694
0.000213111
0.000204321
0.000199419
0.000221743
0.000275307
0.000344916
0.000417987
0.000488314
0.00055322
0.00061165
0.000663473
0.000708575
0.00074721
0.000779694
0.000806148
0.000214169
0.000206812
0.000208589
0.000240189
0.000298922
0.000369674
0.000442031
0.000510999
0.000574431
0.000631509
0.000682053
0.000726101
0.000763877
0.000795679
0.000821596
0.000217144
0.000212107
0.000221459
0.000261167
0.000323604
0.000394768
0.000466124
0.000533641
0.00059558
0.000651284
0.000700601
0.000743614
0.000780542
0.000811668
0.000837052
0.000222834
0.000220947
0.00023806
0.000284365
0.000349214
0.000420208
0.000490348
0.000556343
0.000616762
0.000671063
0.000719146
0.000761115
0.000797183
0.000827622
0.000852487
0.000232024
0.000233818
0.000258129
0.000309373
0.000375529
0.000445852
0.000514558
0.00057893
0.000637794
0.000690732
0.000737629
0.000778591
0.000813833
0.000843623
0.00086794
0.000245576
0.000251161
0.000281421
0.000335944
0.000402466
0.000471719
0.000538863
0.000601628
0.000659027
0.000710471
0.000756127
0.000796066
0.000830476
0.000859583
0.000883397
0.000264022
0.000272962
0.00030749
0.000363768
0.000429885
0.000497747
0.000563195
0.000624249
0.000680003
0.000730131
0.000774595
0.00081352
0.00084709
0.000875493
0.000898824
0.000287652
0.000299105
0.000336088
0.000392748
0.000457776
0.000523928
0.000587515
0.000646765
0.000700863
0.000749682
0.000792996
0.000830933
0.00086368
0.000891392
0.000914232
0.000316152
0.000329093
0.00036679
0.00042263
0.000485974
0.000550158
0.000611798
0.000669266
0.000721825
0.000769215
0.000811345
0.000848295
0.000880226
0.000907257
0.000929608
0.000348929
0.000362423
0.000399393
0.000453419
0.000514577
0.000576569
0.000636169
0.000691807
0.000742766
0.000788752
0.000829692
0.000865647
0.000896756
0.000923104
0.00094496
0.00038501
0.000398336
0.000433509
0.000484904
0.000543408
0.000602972
0.000660423
0.00071421
0.000763557
0.000808167
0.000847936
0.000882904
0.000913192
0.000938878
0.00096025
0.000423424
0.000436143
0.000468885
0.000517098
0.000572614
0.000629605
0.000684886
0.000736842
0.00078445
0.000827615
0.00086619
0.00090018
0.000929683
0.000954663
0.000975522
0.000463217
0.0004751
0.000505112
0.000549799
0.000602034
0.000656236
0.000709149
0.000759027
0.000805131
0.000846946
0.000884361
0.000917376
0.000946066
0.000970378
0.000990736
0.000503611
0.000514596
0.000541871
0.000582929
0.000631717
0.000682985
0.000733451
0.000781308
0.000825772
0.00086622
0.00090248
0.000934522
0.000962395
0.000986038
0.00100589
0.000544028
0.000554112
0.000578758
0.0006162
0.000661437
0.000709667
0.000757671
0.000803555
0.000846312
0.000885357
0.00092044
0.000951484
0.000978596
0.0010016
0.00102096
0.000583933
0.000593176
0.000615435
0.000649493
0.000691324
0.000736623
0.000782252
0.000825905
0.00086686
0.000904455
0.000938365
0.000968473
0.000994757
0.00101709
0.00103596
0.000623109
0.000631595
0.000651739
0.000682672
0.00072116
0.000763371
0.000806248
0.000848021
0.000887316
0.000923515
0.000956274
0.000985435
0.00101089
0.00103255
0.0010509
0.000661284
0.000669064
0.00068729
0.000715319
0.000750592
0.00078982
0.00083023
0.000869972
0.000907592
0.000942379
0.000973936
0.00100215
0.00102684
0.00104788
0.00106573
0.000698287
0.00070544
0.000722015
0.000747526
0.000779979
0.00081658
0.000854361
0.000891871
0.000927721
0.000961084
0.000991499
0.00101874
0.00104264
0.00106308
0.00108043
0.000734118
0.000740726
0.000755875
0.000779134
0.000808884
0.000842682
0.000878252
0.000913743
0.000947895
0.000979871
0.00100913
0.00103534
0.0010584
0.00107819
0.00109504
0.000768731
0.000774807
0.000788617
0.000809768
0.00083697
0.000868203
0.000901624
0.000935166
0.000967604
0.000998087
0.0010263
0.00105163
0.00107395
0.00109314
0.00110949
0.000801894
0.000807524
0.000820236
0.000839685
0.000864853
0.000893744
0.00092487
0.000956488
0.000987333
0.00101654
0.00104346
0.00106782
0.00108935
0.00110792
0.00112378
0.000834106
0.000839334
0.00085105
0.000868891
0.000891965
0.000918778
0.000947788
0.000977489
0.00100667
0.00103463
0.00106043
0.00108384
0.00110459
0.00112255
0.00113791
0.000864687
0.000869506
0.000880256
0.000896598
0.000917824
0.000942942
0.000970164
0.000998177
0.00102588
0.00105239
0.0010771
0.00109962
0.00111961
0.00113697
0.00115184
0.000894418
0.000898942
0.000908997
0.000924269
0.000943699
0.000966825
0.000992202
0.00101853
0.00104485
0.00107002
0.00109361
0.0011152
0.00113445
0.00115119
0.00116558
0.000922701
0.000926892
0.000936167
0.0009502
0.000968422
0.000989931
0.00101363
0.00103837
0.00106321
0.00108721
0.00110978
0.00113051
0.00114903
0.00116519
0.0011791
0.000950118
0.000954074
0.000962825
0.000975427
0.000992446
0.00101256
0.00103479
0.00105813
0.00108147
0.00110421
0.00112573
0.00114558
0.00116338
0.00117895
0.00119239
0.000976356
0.000980083
0.000987822
0.000999843
0.00101555
0.00103422
0.00105492
0.00107696
0.00109913
0.00112078
0.00114134
0.00116035
0.00117745
0.00119245
0.00120543
0.00100183
0.00100487
0.00101205
0.00102339
0.00103809
0.00105557
0.00107506
0.0010956
0.00111651
0.00113704
0.00115663
0.00117483
0.00119125
0.00120569
0.00121821
0.001025
0.00102813
0.00103528
0.00104586
0.00105954
0.00107581
0.00109426
0.00111365
0.00113342
0.00115292
0.00117159
0.001189
0.00120476
0.00121865
0.00123072
0.0010479
0.00105109
0.00105778
0.0010677
0.00108055
0.00109587
0.00111297
0.00113121
0.00114991
0.00116841
0.0011862
0.00120284
0.00121797
0.00123131
0.00124295
0.00107022
0.00107307
0.00107926
0.00108847
0.00110042
0.00111501
0.00113108
0.00114827
0.00116594
0.00118351
0.00120045
0.00121636
0.00123086
0.00124368
0.00125488
0.00109155
0.00109421
0.00110001
0.00110868
0.00112006
0.00113349
0.00114859
0.0011648
0.00118152
0.0011982
0.00121433
0.00122953
0.00124343
0.00125574
0.00126652
0.00111199
0.00111448
0.00111989
0.00112801
0.00113875
0.00115134
0.00116554
0.00118083
0.00119665
0.00121247
0.00122784
0.00124235
0.00125567
0.00126749
0.00127786
0.00113141
0.00113372
0.00113889
0.00114684
0.00115671