/*--------------------------------*- C++ -*----------------------------------*\
  =========                 |
  \\      /  F ield         | OpenFOAM: The Open Source CFD Toolbox
   \\    /   O peration     | Website:  https://openfoam.org
    \\  /    A nd           | Version:  7
     \\/     M anipulation  |
\*---------------------------------------------------------------------------*/
FoamFile
{
    version     2.0;
    format      ascii;
    class       volScalarField;
    location    "400";
    object      p;
}
// * * * * * * * * * * * * * * * * * * * * * * * * * * * * * * * * * * * * * //

dimensions      [0 2 -2 0 0 0 0];

internalField   nonuniform List<scalar> 
32100
(
2.36769
2.36771
2.36775
2.36781
2.36789
2.36797
2.36804
2.36808
2.36804
2.36782
2.36721
2.3659
2.36007
2.33145
2.45433
2.36768
2.3677
2.36774
2.3678
2.36788
2.36796
2.36805
2.3681
2.3681
2.36798
2.36749
2.36681
2.37039
2.33661
2.43329
2.36764
2.36766
2.36771
2.36777
2.36786
2.36796
2.36807
2.36817
2.36825
2.36834
2.3684
2.36754
2.37855
2.34482
2.41248
2.36758
2.36761
2.36766
2.36773
2.36783
2.36794
2.36808
2.36825
2.36844
2.36871
2.36944
2.36756
2.38136
2.35179
2.39983
2.3675
2.36753
2.36758
2.36766
2.36777
2.36791
2.36808
2.3683
2.36858
2.36888
2.37018
2.36734
2.38132
2.35617
2.39293
2.3674
2.36743
2.36748
2.36757
2.36769
2.36785
2.36804
2.3683
2.36864
2.36888
2.37057
2.36722
2.38056
2.35856
2.3883
2.36726
2.3673
2.36736
2.36745
2.36758
2.36775
2.36796
2.36823
2.36863
2.36877
2.37071
2.36715
2.37965
2.35993
2.3846
2.3671
2.36714
2.3672
2.3673
2.36743
2.36761
2.36784
2.36811
2.36856
2.36859
2.37066
2.36701
2.37866
2.361
2.38153
2.36691
2.36695
2.36701
2.36712
2.36725
2.36743
2.36767
2.36792
2.36841
2.36836
2.37046
2.36681
2.37758
2.3619
2.37902
2.3667
2.36673
2.3668
2.3669
2.36704
2.36722
2.36745
2.36769
2.36819
2.36807
2.37015
2.36656
2.37646
2.3626
2.37696
2.36644
2.36649
2.36655
2.36665
2.36678
2.36696
2.36719
2.36741
2.36791
2.36773
2.36976
2.36629
2.37534
2.36309
2.37523
2.36616
2.36621
2.36626
2.36636
2.3665
2.36666
2.36689
2.36709
2.36759
2.36736
2.36932
2.366
2.37425
2.36342
2.37372
2.36585
2.3659
2.36595
2.36605
2.36618
2.36634
2.36656
2.36673
2.36722
2.36696
2.36882
2.36569
2.3732
2.36361
2.37239
2.36552
2.36556
2.36561
2.3657
2.36583
2.36598
2.36619
2.36634
2.36681
2.36653
2.36829
2.36535
2.37218
2.3637
2.3712
2.36515
2.36519
2.36524
2.36533
2.36545
2.36559
2.36579
2.36592
2.36637
2.36608
2.36774
2.36499
2.37119
2.36369
2.37012
2.36476
2.3648
2.36484
2.36493
2.36504
2.36517
2.36536
2.36547
2.36591
2.36561
2.36716
2.36461
2.37024
2.3636
2.36913
2.36434
2.36438
2.36442
2.3645
2.3646
2.36472
2.36491
2.365
2.36542
2.36512
2.36657
2.36421
2.36932
2.36343
2.3682
2.3639
2.36394
2.36398
2.36405
2.36415
2.36426
2.36443
2.36451
2.3649
2.36461
2.36597
2.36379
2.36842
2.36321
2.36733
2.36343
2.36347
2.36351
2.36358
2.36367
2.36377
2.36393
2.36401
2.36437
2.36409
2.36535
2.36335
2.36755
2.36293
2.36649
2.36295
2.36299
2.36302
2.36308
2.36317
2.36326
2.36342
2.36348
2.36382
2.36355
2.36473
2.36289
2.3667
2.36261
2.36568
2.36244
2.36248
2.36251
2.36257
2.36265
2.36274
2.36288
2.36294
2.36326
2.363
2.36409
2.36241
2.36587
2.36224
2.3649
2.36192
2.36196
2.36199
2.36204
2.36212
2.3622
2.36233
2.36238
2.36268
2.36244
2.36345
2.36191
2.36505
2.36184
2.36413
2.36138
2.36142
2.36144
2.3615
2.36157
2.36164
2.36177
2.36181
2.36209
2.36187
2.3628
2.3614
2.36425
2.3614
2.36338
2.36083
2.36087
2.36089
2.36094
2.361
2.36107
2.36119
2.36123
2.36149
2.36128
2.36215
2.36087
2.36345
2.36094
2.36264
2.36026
2.3603
2.36031
2.36036
2.36042
2.36048
2.36059
2.36063
2.36088
2.36068
2.36149
2.36032
2.36267
2.36045
2.3619
2.35968
2.35971
2.35973
2.35977
2.35983
2.35989
2.35999
2.36002
2.36026
2.36008
2.36082
2.35976
2.36189
2.35994
2.36118
2.35908
2.35912
2.35913
2.35917
2.35922
2.35928
2.35938
2.35941
2.35962
2.35946
2.36015
2.35919
2.36112
2.3594
2.36045
2.35847
2.35851
2.35852
2.35856
2.35861
2.35866
2.35875
2.35878
2.35898
2.35883
2.35947
2.3586
2.36035
2.35884
2.35973
2.35785
2.35789
2.3579
2.35793
2.35798
2.35803
2.35811
2.35814
2.35833
2.3582
2.35879
2.358
2.35958
2.35827
2.359
2.35722
2.35726
2.35727
2.3573
2.35734
2.35739
2.35747
2.3575
2.35768
2.35755
2.3581
2.35739
2.35882
2.35768
2.35828
2.35658
2.35662
2.35662
2.35666
2.3567
2.35674
2.35682
2.35684
2.35701
2.3569
2.35741
2.35677
2.35806
2.35707
2.35755
2.35593
2.35596
2.35597
2.356
2.35604
2.35608
2.35615
2.35618
2.35634
2.35623
2.35671
2.35613
2.3573
2.35645
2.35683
2.35527
2.35531
2.35531
2.35534
2.35538
2.35541
2.35548
2.35551
2.35565
2.35556
2.356
2.35549
2.35654
2.35581
2.3561
2.3546
2.35464
2.35464
2.35467
2.35471
2.35474
2.3548
2.35483
2.35497
2.35488
2.35529
2.35484
2.35578
2.35516
2.35537
2.35393
2.35396
2.35397
2.35399
2.35403
2.35406
2.35412
2.35414
2.35427
2.3542
2.35457
2.35417
2.35501
2.3545
2.35463
2.35324
2.35328
2.35328
2.35331
2.35334
2.35337
2.35343
2.35345
2.35357
2.35351
2.35385
2.3535
2.35425
2.35383
2.35389
2.35255
2.35259
2.35259
2.35261
2.35264
2.35267
2.35273
2.35275
2.35286
2.35281
2.35313
2.35282
2.35349
2.35315
2.35315
2.35186
2.35189
2.35189
2.35191
2.35194
2.35197
2.35202
2.35204
2.35215
2.3521
2.3524
2.35213
2.35272
2.35246
2.35241
2.35115
2.35119
2.35119
2.35121
2.35124
2.35126
2.35131
2.35133
2.35143
2.35139
2.35166
2.35143
2.35195
2.35176
2.35166
2.35044
2.35048
2.35048
2.3505
2.35052
2.35055
2.35059
2.35061
2.35071
2.35067
2.35092
2.35072
2.35119
2.35105
2.35091
2.34973
2.34976
2.34976
2.34978
2.3498
2.34983
2.34987
2.34989
2.34998
2.34995
2.35018
2.35001
2.35041
2.35033
2.35016
2.34901
2.34904
2.34904
2.34906
2.34908
2.3491
2.34914
2.34916
2.34924
2.34922
2.34943
2.34929
2.34964
2.34961
2.3494
2.34828
2.34831
2.34831
2.34833
2.34835
2.34837
2.34841
2.34843
2.34851
2.34849
2.34868
2.34857
2.34887
2.34888
2.34864
2.34755
2.34758
2.34758
2.3476
2.34761
2.34764
2.34767
2.34769
2.34776
2.34775
2.34792
2.34784
2.34809
2.34814
2.34787
2.34681
2.34685
2.34684
2.34686
2.34688
2.3469
2.34693
2.34695
2.34701
2.34701
2.34716
2.3471
2.34731
2.34739
2.34711
2.34607
2.3461
2.3461
2.34612
2.34613
2.34615
2.34618
2.3462
2.34626
2.34626
2.3464
2.34636
2.34653
2.34664
2.34634
2.34533
2.34536
2.34535
2.34537
2.34538
2.3454
2.34543
2.34545
2.34551
2.34551
2.34563
2.34561
2.34575
2.34589
2.34556
2.34458
2.34461
2.3446
2.34462
2.34463
2.34465
2.34468
2.34469
2.34475
2.34475
2.34487
2.34486
2.34496
2.34513
2.34479
2.34382
2.34386
2.34385
2.34386
2.34388
2.34389
2.34392
2.34394
2.34398
2.34399
2.34409
2.34411
2.34418
2.34436
2.34401
2.34307
2.3431
2.34309
2.34311
2.34312
2.34313
2.34316
2.34317
2.34322
2.34323
2.34332
2.34335
2.34339
2.3436
2.34323
2.34231
2.34234
2.34233
2.34235
2.34236
2.34237
2.34239
2.34241
2.34245
2.34246
2.34254
2.34258
2.3426
2.34282
2.34244
2.34155
2.34158
2.34157
2.34158
2.34159
2.34161
2.34163
2.34164
2.34168
2.34169
2.34176
2.34181
2.34181
2.34205
2.34166
2.34078
2.34081
2.3408
2.34082
2.34082
2.34084
2.34086
2.34087
2.3409
2.34092
2.34098
2.34104
2.34101
2.34127
2.34087
2.34001
2.34004
2.34003
2.34005
2.34005
2.34007
2.34008
2.3401
2.34013
2.34014
2.3402
2.34027
2.34022
2.34048
2.34008
2.33924
2.33927
2.33926
2.33927
2.33928
2.33929
2.33931
2.33932
2.33935
2.33937
2.33941
2.33949
2.33942
2.3397
2.33929
2.33847
2.3385
2.33849
2.3385
2.33851
2.33852
2.33853
2.33854
2.33857
2.33859
2.33862
2.33871
2.33863
2.33891
2.3385
2.33769
2.33772
2.33771
2.33772
2.33773
2.33774
2.33775
2.33776
2.33778
2.33781
2.33783
2.33793
2.33783
2.33812
2.33771
2.33691
2.33695
2.33694
2.33694
2.33695
2.33696
2.33697
2.33698
2.337
2.33702
2.33704
2.33715
2.33703
2.33733
2.33692
2.33614
2.33617
2.33616
2.33616
2.33617
2.33618
2.33619
2.3362
2.33621
2.33624
2.33625
2.33636
2.33624
2.33653
2.33612
2.33536
2.33539
2.33537
2.33538
2.33539
2.33539
2.3354
2.33541
2.33542
2.33545
2.33546
2.33558
2.33544
2.33574
2.33533
2.33457
2.33461
2.33459
2.3346
2.3346
2.33461
2.33461
2.33462
2.33464
2.33466
2.33466
2.33479
2.33464
2.33494
2.33453
2.33379
2.33382
2.33381
2.33381
2.33382
2.33382
2.33383
2.33383
2.33384
2.33387
2.33387
2.334
2.33384
2.33414
2.33373
2.33301
2.33304
2.33302
2.33303
2.33303
2.33303
2.33304
2.33304
2.33305
2.33308
2.33307
2.33321
2.33304
2.33335
2.33294
2.33222
2.33225
2.33224
2.33224
2.33224
2.33224
2.33225
2.33225
2.33226
2.33229
2.33228
2.33241
2.33224
2.33255
2.33214
2.33144
2.33147
2.33145
2.33146
2.33145
2.33146
2.33146
2.33146
2.33147
2.3315
2.33148
2.33162
2.33144
2.33175
2.33135
2.33065
2.33068
2.33067
2.33067
2.33067
2.33067
2.33067
2.33067
2.33067
2.3307
2.33068
2.33083
2.33064
2.33095
2.33056
2.32987
2.3299
2.32988
2.32988
2.32988
2.32987
2.32987
2.32988
2.32988
2.32991
2.32988
2.33003
2.32984
2.33015
2.32976
2.32908
2.32911
2.32909
2.32909
2.32909
2.32908
2.32908
2.32908
2.32908
2.32911
2.32908
2.32923
2.32905
2.32935
2.32897
2.3283
2.32833
2.32831
2.32831
2.3283
2.32829
2.32829
2.32828
2.32828
2.32831
2.32828
2.32844
2.32825
2.32855
2.32818
2.32752
2.32755
2.32752
2.32752
2.32751
2.3275
2.32749
2.32749
2.32748
2.32751
2.32748
2.32764
2.32745
2.32776
2.3274
2.32674
2.32676
2.32674
2.32674
2.32672
2.32671
2.3267
2.32669
2.32668
2.32671
2.32668
2.32684
2.32665
2.32696
2.32662
2.32596
2.32599
2.32596
2.32595
2.32594
2.32592
2.3259
2.32589
2.32587
2.3259
2.32587
2.32603
2.32585
2.32616
2.32585
2.32519
2.32521
2.32519
2.32518
2.32515
2.32513
2.32511
2.32509
2.32507
2.32509
2.32505
2.32522
2.32505
2.32537
2.32508
2.32442
2.32444
2.32442
2.3244
2.32437
2.32434
2.32431
2.32429
2.32426
2.32428
2.32423
2.3244
2.32424
2.32457
2.32433
2.32366
2.32368
2.32365
2.32363
2.3236
2.32356
2.32352
2.32349
2.32344
2.32346
2.3234
2.32357
2.32342
2.32377
2.3236
2.32291
2.32293
2.32289
2.32287
2.32282
2.32278
2.32273
2.32268
2.32263
2.32263
2.32256
2.32273
2.32259
2.32297
2.32289
2.32216
2.32218
2.32214
2.32211
2.32206
2.32201
2.32194
2.32188
2.32181
2.32179
2.32171
2.32187
2.32174
2.32214
2.3222
2.32143
2.32145
2.3214
2.32136
2.32131
2.32124
2.32116
2.32108
2.32099
2.32095
2.32084
2.32097
2.32085
2.32129
2.32163
2.32071
2.32072
2.32068
2.32063
2.32056
2.32048
2.32039
2.32029
2.32017
2.32009
2.31995
2.32003
2.31989
2.32031
2.3209
2.32001
2.32002
2.31997
2.31991
2.31983
2.31974
2.31963
2.31951
2.31936
2.31924
2.31905
2.31905
2.3189
2.31936
2.321
2.31798
2.31797
2.31792
2.31784
2.31774
2.3176
2.31744
2.31724
2.31701
2.31674
2.3164
2.31601
2.31545
2.31471
2.31182
2.31498
2.31496
2.3149
2.31479
2.31465
2.31447
2.31425
2.31397
2.31363
2.31323
2.31273
2.31212
2.31128
2.31109
2.31264
2.31282
2.3128
2.31274
2.31265
2.31253
2.31238
2.31219
2.31197
2.31173
2.31146
2.31118
2.31091
2.31034
2.30971
2.31098
2.31147
2.31146
2.31142
2.31136
2.31129
2.31119
2.31109
2.31097
2.31083
2.31069
2.31054
2.31047
2.31027
2.30968
2.30966
2.31058
2.31057
2.31054
2.3105
2.31045
2.31039
2.31031
2.31022
2.31012
2.31
2.30985
2.30973
2.30963
2.30922
2.30804
2.30991
2.30991
2.30989
2.30985
2.30981
2.30976
2.3097
2.30963
2.30955
2.30946
2.30935
2.30922
2.30924
2.30925
2.30746
2.30946
2.30945
2.30944
2.30941
2.30938
2.30935
2.30931
2.30926
2.30921
2.30916
2.30909
2.30897
2.30896
2.30911
2.30706
2.30918
2.30918
2.30917
2.30915
2.30913
2.30911
2.30909
2.30906
2.30902
2.30899
2.30895
2.30885
2.30884
2.30893
2.30677
2.30901
2.30901
2.30901
2.309
2.30898
2.30897
2.30895
2.30893
2.30891
2.30889
2.30886
2.30879
2.30882
2.30872
2.30665
2.30891
2.30891
2.3089
2.30889
2.30889
2.30888
2.30887
2.30885
2.30884
2.30882
2.3088
2.30874
2.30884
2.30847
2.30661
2.30884
2.30884
2.30884
2.30883
2.30883
2.30882
2.30881
2.3088
2.30879
2.30878
2.30876
2.30871
2.30885
2.3082
2.30661
2.3088
2.3088
2.3088
2.3088
2.30879
2.30879
2.30878
2.30878
2.30877
2.30876
2.30874
2.30869
2.30885
2.30795
2.30661
2.30879
2.30879
2.30879
2.30878
2.30878
2.30878
2.30877
2.30877
2.30877
2.30876
2.30874
2.30872
2.30883
2.30778
2.30662
2.30879
2.30879
2.30879
2.30879
2.30878
2.30878
2.30878
2.30878
2.30877
2.30877
2.30874
2.30876
2.30877
2.30765
2.30665
2.3088
2.3088
2.3088
2.3088
2.30879
2.30879
2.30879
2.30879
2.30879
2.30877
2.30875
2.3088
2.30865
2.30756
2.30667
2.30881
2.30881
2.30881
2.30881
2.30881
2.30881
2.30881
2.30881
2.3088
2.30879
2.30877
2.30885
2.30853
2.30751
2.30665
2.30884
2.30884
2.30884
2.30884
2.30884
2.30884
2.30884
2.30883
2.30883
2.30882
2.3088
2.3089
2.30841
2.30749
2.30665
2.30887
2.30887
2.30887
2.30887
2.30887
2.30887
2.30887
2.30886
2.30886
2.30884
2.30884
2.30892
2.3083
2.30748
2.30666
2.3089
2.3089
2.3089
2.3089
2.3089
2.3089
2.3089
2.3089
2.30889
2.30887
2.30889
2.3089
2.30821
2.30747
2.30667
2.30893
2.30893
2.30893
2.30893
2.30893
2.30893
2.30893
2.30893
2.30892
2.3089
2.30894
2.30885
2.30814
2.30744
2.30668
2.30896
2.30896
2.30896
2.30896
2.30896
2.30896
2.30896
2.30896
2.30895
2.30893
2.30899
2.30878
2.30809
2.30741
2.30667
2.30899
2.30899
2.30899
2.30899
2.30899
2.30899
2.30899
2.30899
2.30897
2.30897
2.30903
2.30871
2.30805
2.30739
2.30667
2.30902
2.30902
2.30902
2.30902
2.30902
2.30902
2.30902
2.30902
2.309
2.30901
2.30905
2.30863
2.30802
2.30737
2.30667
2.30906
2.30906
2.30906
2.30906
2.30906
2.30906
2.30905
2.30905
2.30903
2.30905
2.30904
2.30856
2.30799
2.30735
2.30668
2.30909
2.30909
2.30909
2.30909
2.30909
2.30909
2.30909
2.30908
2.30907
2.3091
2.30902
2.30851
2.30796
2.30734
2.30668
2.30913
2.30913
2.30913
2.30913
2.30913
2.30913
2.30913
2.30912
2.30911
2.30915
2.30898
2.30848
2.30793
2.30732
2.30668
2.30917
2.30917
2.30917
2.30917
2.30917
2.30917
2.30917
2.30916
2.30916
2.30919
2.30895
2.30845
2.30791
2.30731
2.30669
2.30921
2.30921
2.30921
2.30921
2.30921
2.30921
2.30921
2.3092
2.30921
2.30922
2.3089
2.30842
2.30789
2.3073
2.3067
2.30926
2.30926
2.30926
2.30926
2.30926
2.30926
2.30925
2.30924
2.30926
2.30923
2.30887
2.3084
2.30787
2.3073
2.30671
2.3093
2.3093
2.3093
2.3093
2.3093
2.3093
2.3093
2.30929
2.30931
2.30923
2.30884
2.30838
2.30785
2.30729
2.30672
2.30935
2.30935
2.30935
2.30935
2.30935
2.30935
2.30934
2.30934
2.30936
2.30921
2.30881
2.30836
2.30784
2.30728
2.30672
2.3094
2.3094
2.3094
2.3094
2.3094
2.30939
2.30939
2.30939
2.3094
2.30919
2.30879
2.30834
2.30782
2.30728
2.30673
2.30944
2.30944
2.30944
2.30944
2.30944
2.30944
2.30943
2.30944
2.30943
2.30917
2.30877
2.30832
2.30781
2.30728
2.30674
2.30949
2.30949
2.30949
2.30949
2.30949
2.30949
2.30948
2.3095
2.30944
2.30914
2.30875
2.30829
2.30779
2.30727
2.30675
2.30954
2.30954
2.30954
2.30954
2.30954
2.30953
2.30953
2.30955
2.30945
2.30913
2.30873
2.30827
2.30778
2.30727
2.30676
2.30959
2.30959
2.30959
2.30959
2.30959
2.30958
2.30958
2.30959
2.30944
2.30911
2.30871
2.30825
2.30776
2.30726
2.30677
2.30964
2.30964
2.30964
2.30964
2.30963
2.30963
2.30964
2.30963
2.30943
2.30909
2.30868
2.30823
2.30775
2.30726
2.30677
2.30969
2.30969
2.30969
2.30969
2.30968
2.30968
2.30969
2.30965
2.30941
2.30907
2.30866
2.30821
2.30773
2.30725
2.30678
2.30974
2.30974
2.30974
2.30974
2.30973
2.30973
2.30974
2.30967
2.3094
2.30905
2.30864
2.30819
2.30772
2.30725
2.30678
2.30979
2.30979
2.30979
2.30979
2.30978
2.30978
2.30979
2.30967
2.30938
2.30903
2.30861
2.30817
2.3077
2.30724
2.30678
2.30984
2.30984
2.30984
2.30984
2.30983
2.30984
2.30983
2.30967
2.30937
2.309
2.30859
2.30815
2.30769
2.30723
2.30678
2.30989
2.30989
2.30989
2.30989
2.30989
2.3099
2.30986
2.30966
2.30935
2.30898
2.30857
2.30813
2.30768
2.30723
2.30679
2.30995
2.30995
2.30995
2.30994
2.30994
2.30995
2.30988
2.30965
2.30933
2.30896
2.30854
2.30811
2.30766
2.30722
2.30679
2.31001
2.31
2.31
2.31
2.31
2.31
2.30989
2.30964
2.30931
2.30893
2.30852
2.30809
2.30765
2.30721
2.30679
2.31006
2.31006
2.31006
2.31006
2.31006
2.31005
2.3099
2.30963
2.30929
2.30891
2.30849
2.30807
2.30763
2.30721
2.30679
2.31012
2.31012
2.31012
2.31012
2.31012
2.31008
2.3099
2.30962
2.30927
2.30888
2.30847
2.30805
2.30762
2.3072
2.30679
2.31019
2.31018
2.31018
2.31018
2.31018
2.31011
2.3099
2.3096
2.30925
2.30886
2.30845
2.30803
2.30761
2.30719
2.30679
2.31025
2.31025
2.31025
2.31025
2.31024
2.31013
2.3099
2.30958
2.30922
2.30883
2.30842
2.30801
2.30759
2.30718
2.30679
2.31032
2.31032
2.31032
2.31032
2.31029
2.31015
2.30989
2.30957
2.3092
2.3088
2.3084
2.30798
2.30758
2.30718
2.30679
2.3104
2.31039
2.31039
2.31039
2.31033
2.31016
2.30988
2.30955
2.30917
2.30878
2.30837
2.30796
2.30756
2.30717
2.30679
2.31048
2.31047
2.31047
2.31045
2.31037
2.31016
2.30986
2.30952
2.30914
2.30875
2.30835
2.30794
2.30754
2.30716
2.30678
2.31056
2.31055
2.31054
2.31052
2.3104
2.31016
2.30985
2.30949
2.30911
2.30872
2.30832
2.30792
2.30753
2.30714
2.30677
2.31065
2.31063
2.31063
2.31058
2.31042
2.31015
2.30983
2.30947
2.30908
2.30869
2.30829
2.30789
2.30751
2.30713
2.30677
2.31075
2.31073
2.31071
2.31063
2.31043
2.31015
2.30981
2.30944
2.30905
2.30866
2.30826
2.30787
2.30749
2.30711
2.30676
2.31086
2.31082
2.31079
2.31067
2.31044
2.31013
2.30979
2.30941
2.30902
2.30863
2.30823
2.30784
2.30746
2.3071
2.30674
2.31098
2.31093
2.31087
2.31071
2.31045
2.31012
2.30976
2.30938
2.30899
2.30859
2.3082
2.30782
2.30744
2.30708
2.30673
2.31111
2.31103
2.31094
2.31074
2.31045
2.31011
2.30974
2.30935
2.30895
2.30856
2.30817
2.30779
2.30742
2.30706
2.30671
2.31125
2.31113
2.31101
2.31076
2.31044
2.31009
2.3097
2.30931
2.30892
2.30852
2.30814
2.30776
2.30739
2.30704
2.3067
2.3114
2.31123
2.31106
2.31078
2.31044
2.31006
2.30967
2.30928
2.30888
2.30849
2.3081
2.30773
2.30736
2.30701
2.30668
2.31154
2.31132
2.31111
2.31079
2.31043
2.31004
2.30964
2.30924
2.30884
2.30845
2.30806
2.30769
2.30733
2.30698
2.30665
2.31166
2.31139
2.31114
2.3108
2.31042
2.31002
2.30961
2.30921
2.3088
2.30841
2.30803
2.30766
2.3073
2.30696
2.30663
2.31176
2.31143
2.31117
2.3108
2.3104
2.30999
2.30958
2.30917
2.30876
2.30837
2.30799
2.30762
2.30726
2.30692
2.3066
2.31183
2.31146
2.31118
2.3108
2.31038
2.30996
2.30954
2.30913
2.30872
2.30833
2.30795
2.30758
2.30723
2.30689
2.30657
2.31186
2.31145
2.31116
2.31077
2.31035
2.30992
2.3095
2.30908
2.30868
2.30828
2.3079
2.30754
2.30719
2.30685
2.30653
2.31185
2.31141
2.31113
2.31074
2.31031
2.30988
2.30945
2.30903
2.30863
2.30824
2.30786
2.30749
2.30714
2.30681
2.30649
2.31181
2.31134
2.31107
2.31069
2.31026
2.30983
2.3094
2.30898
2.30857
2.30818
2.30781
2.30744
2.3071
2.30677
2.30645
2.31173
2.31125
2.31099
2.31062
2.3102
2.30977
2.30934
2.30892
2.30852
2.30813
2.30775
2.30739
2.30705
2.30672
2.3064
2.31161
2.31112
2.31088
2.31053
2.31012
2.30969
2.30927
2.30886
2.30846
2.30807
2.30769
2.30733
2.30699
2.30666
2.30635
2.31146
2.31097
2.31075
2.31042
2.31002
2.3096
2.30919
2.30878
2.30838
2.308
2.30763
2.30727
2.30693
2.30661
2.3063
2.3113
2.3108
2.3106
2.31029
2.30991
2.3095
2.3091
2.30869
2.3083
2.30792
2.30755
2.3072
2.30686
2.30654
2.30624
2.31111
2.3106
2.31043
2.31014
2.30977
2.30939
2.30899
2.3086
2.30821
2.30784
2.30747
2.30713
2.30679
2.30647
2.30617
2.31089
2.31039
2.31024
2.30997
2.30962
2.30925
2.30887
2.30849
2.30811
2.30774
2.30739
2.30704
2.30671
2.3064
2.3061
2.31067
2.31017
2.31003
2.30978
2.30946
2.30911
2.30874
2.30837
2.308
2.30764
2.30729
2.30695
2.30663
2.30632
2.30602
2.31043
2.30993
2.30981
2.30958
2.30928
2.30894
2.30859
2.30823
2.30788
2.30753
2.30718
2.30685
2.30653
2.30623
2.30593
2.31018
2.30968
2.30957
2.30936
2.30908
2.30877
2.30843
2.30809
2.30774
2.3074
2.30707
2.30674
2.30643
2.30613
2.30584
2.30992
2.30942
2.30933
2.30914
2.30887
2.30857
2.30826
2.30793
2.3076
2.30727
2.30694
2.30662
2.30632
2.30602
2.30574
2.30964
2.30915
2.30907
2.3089
2.30865
2.30837
2.30807
2.30776
2.30744
2.30712
2.3068
2.3065
2.3062
2.30591
2.30563
2.30936
2.30887
2.30881
2.30865
2.30842
2.30815
2.30787
2.30757
2.30727
2.30696
2.30666
2.30636
2.30607
2.30579
2.30551
2.30907
2.30859
2.30853
2.30839
2.30817
2.30793
2.30766
2.30738
2.30709
2.30679
2.3065
2.30621
2.30593
2.30565
2.30539
2.30878
2.3083
2.30825
2.30812
2.30792
2.30769
2.30744
2.30717
2.30689
2.30661
2.30633
2.30605
2.30578
2.30551
2.30525
2.30847
2.30801
2.30797
2.30785
2.30766
2.30745
2.30721
2.30696
2.30669
2.30642
2.30615
2.30588
2.30562
2.30536
2.30511
2.30817
2.30771
2.30767
2.30756
2.30739
2.30719
2.30697
2.30673
2.30648
2.30622
2.30596
2.30571
2.30545
2.3052
2.30496
2.30786
2.3074
2.30738
2.30728
2.30712
2.30693
2.30672
2.3065
2.30626
2.30601
2.30577
2.30552
2.30527
2.30503
2.3048
2.30754
2.3071
2.30707
2.30698
2.30684
2.30666
2.30646
2.30625
2.30603
2.3058
2.30556
2.30532
2.30509
2.30485
2.30463
2.30723
2.30679
2.30677
2.30669
2.30655
2.30639
2.3062
2.306
2.30579
2.30557
2.30535
2.30512
2.30489
2.30467
2.30445
2.30691
2.30647
2.30646
2.30639
2.30626
2.3061
2.30593
2.30574
2.30554
2.30534
2.30512
2.30491
2.30469
2.30447
2.30426
2.30658
2.30616
2.30615
2.30608
2.30596
2.30582
2.30566
2.30548
2.30529
2.3051
2.30489
2.30469
2.30448
2.30427
2.30407
2.30626
2.30584
2.30583
2.30577
2.30566
2.30553
2.30538
2.30521
2.30503
2.30485
2.30465
2.30446
2.30426
2.30406
2.30386
2.30593
2.30552
2.30552
2.30546
2.30536
2.30523
2.30509
2.30494
2.30477
2.30459
2.30441
2.30422
2.30403
2.30384
2.30366
2.3056
2.30519
2.3052
2.30515
2.30505
2.30493
2.3048
2.30466
2.3045
2.30433
2.30416
2.30398
2.3038
2.30362
2.30344
2.30527
2.30487
2.30488
2.30483
2.30474
2.30463
2.30451
2.30437
2.30422
2.30407
2.3039
2.30373
2.30356
2.30339
2.30322
2.30493
2.30454
2.30455
2.30451
2.30443
2.30433
2.30421
2.30408
2.30394
2.30379
2.30364
2.30348
2.30332
2.30315
2.30299
2.3046
2.30422
2.30423
2.30419
2.30411
2.30402
2.30391
2.30379
2.30366
2.30352
2.30337
2.30322
2.30306
2.30291
2.30275
2.30426
2.30389
2.3039
2.30387
2.3038
2.30371
2.30361
2.30349
2.30337
2.30324
2.3031
2.30295
2.30281
2.30266
2.30251
2.30393
2.30356
2.30357
2.30355
2.30348
2.3034
2.3033
2.30319
2.30308
2.30295
2.30282
2.30269
2.30255
2.3024
2.30226
2.30359
2.30323
2.30325
2.30322
2.30316
2.30308
2.30299
2.30289
2.30278
2.30266
2.30254
2.30241
2.30228
2.30214
2.30201
2.30325
2.3029
2.30292
2.30289
2.30284
2.30276
2.30268
2.30259
2.30248
2.30237
2.30226
2.30214
2.30201
2.30188
2.30175
2.30291
2.30257
2.30259
2.30257
2.30251
2.30244
2.30237
2.30228
2.30218
2.30208
2.30197
2.30185
2.30173
2.30161
2.30149
2.30257
2.30224
2.30226
2.30224
2.30219
2.30213
2.30205
2.30197
2.30188
2.30178
2.30168
2.30157
2.30146
2.30134
2.30122
2.30223
2.3019
2.30192
2.30191
2.30186
2.3018
2.30174
2.30166
2.30157
2.30148
2.30138
2.30128
2.30118
2.30107
2.30095
2.3019
2.30157
2.30159
2.30158
2.30154
2.30148
2.30142
2.30135
2.30127
2.30118
2.30109
2.30099
2.30089
2.30079
2.30068
2.30155
2.30124
2.30126
2.30125
2.30121
2.30116
2.3011
2.30103
2.30096
2.30088
2.30079
2.3007
2.3006
2.3005
2.3004
2.30122
2.30091
2.30093
2.30092
2.30088
2.30084
2.30078
2.30072
2.30065
2.30057
2.30049
2.3004
2.30031
2.30022
2.30012
2.30087
2.30057
2.3006
2.30059
2.30056
2.30051
2.30046
2.3004
2.30033
2.30026
2.30018
2.3001
2.30002
2.29993
2.29984
2.30054
2.30024
2.30027
2.30026
2.30023
2.30019
2.30014
2.30008
2.30002
2.29995
2.29988
2.2998
2.29972
2.29964
2.29956
2.30019
2.29991
2.29993
2.29993
2.2999
2.29986
2.29981
2.29976
2.2997
2.29964
2.29957
2.2995
2.29942
2.29935
2.29927
2.29985
2.29958
2.2996
2.2996
2.29957
2.29953
2.29949
2.29944
2.29939
2.29933
2.29926
2.2992
2.29913
2.29905
2.29898
2.29951
2.29924
2.29927
2.29926
2.29924
2.2992
2.29916
2.29912
2.29907
2.29901
2.29895
2.29889
2.29882
2.29875
2.29868
2.29917
2.29891
2.29893
2.29893
2.29891
2.29888
2.29884
2.2988
2.29875
2.2987
2.29864
2.29858
2.29852
2.29845
2.29839
2.29883
2.29857
2.2986
2.2986
2.29858
2.29855
2.29851
2.29847
2.29843
2.29838
2.29833
2.29827
2.29821
2.29815
2.29809
2.29849
2.29824
2.29827
2.29827
2.29825
2.29822
2.29819
2.29815
2.29811
2.29806
2.29801
2.29796
2.29791
2.29785
2.29779
2.29815
2.29791
2.29793
2.29793
2.29792
2.29789
2.29786
2.29783
2.29779
2.29774
2.2977
2.29765
2.2976
2.29754
2.29748
2.29781
2.29757
2.2976
2.2976
2.29759
2.29756
2.29753
2.2975
2.29747
2.29743
2.29738
2.29733
2.29729
2.29723
2.29718
2.29747
2.29724
2.29726
2.29727
2.29725
2.29723
2.2972
2.29717
2.29714
2.2971
2.29706
2.29702
2.29697
2.29692
2.29687
2.29713
2.29691
2.29693
2.29694
2.29692
2.2969
2.29688
2.29685
2.29682
2.29678
2.29674
2.2967
2.29666
2.29661
2.29656
2.29679
2.29657
2.2966
2.2966
2.29659
2.29657
2.29655
2.29652
2.29649
2.29646
2.29642
2.29638
2.29634
2.2963
2.29625
2.29645
2.29624
2.29626
2.29627
2.29626
2.29624
2.29622
2.29619
2.29617
2.29614
2.2961
2.29607
2.29603
2.29599
2.29594
2.29611
2.29591
2.29593
2.29594
2.29593
2.29591
2.29589
2.29587
2.29584
2.29581
2.29578
2.29575
2.29571
2.29567
2.29563
2.29578
2.29557
2.2956
2.2956
2.29559
2.29558
2.29556
2.29554
2.29552
2.29549
2.29546
2.29543
2.29539
2.29535
2.29532
2.29544
2.29524
2.29527
2.29527
2.29526
2.29525
2.29523
2.29521
2.29519
2.29516
2.29514
2.29511
2.29507
2.29504
2.295
2.2951
2.29491
2.29494
2.29494
2.29493
2.29492
2.2949
2.29489
2.29486
2.29484
2.29481
2.29479
2.29475
2.29472
2.29469
2.29477
2.29458
2.29461
2.29461
2.2946
2.29459
2.29458
2.29456
2.29454
2.29452
2.29449
2.29446
2.29443
2.2944
2.29437
2.29443
2.29426
2.29428
2.29429
2.29428
2.29427
2.29425
2.29424
2.29422
2.29419
2.29417
2.29414
2.29412
2.29409
2.29405
2.2941
2.29393
2.29395
2.29396
2.29395
2.29394
2.29393
2.29391
2.29389
2.29387
2.29385
2.29383
2.2938
2.29377
2.29374
2.29378
2.29361
2.29363
2.29364
2.29363
2.29362
2.29361
2.29359
2.29357
2.29356
2.29353
2.29351
2.29348
2.29345
2.29342
2.29345
2.29329
2.29331
2.29332
2.29331
2.2933
2.29329
2.29328
2.29326
2.29324
2.29322
2.29319
2.29317
2.29314
2.29311
2.29314
2.29298
2.293
2.293
2.293
2.29299
2.29298
2.29296
2.29295
2.29293
2.29291
2.29288
2.29286
2.29283
2.2928
2.29282
2.29267
2.29269
2.2927
2.29269
2.29268
2.29267
2.29265
2.29264
2.29262
2.2926
2.29258
2.29255
2.29253
2.2925
2.29252
2.29237
2.29239
2.29239
2.29239
2.29238
2.29237
2.29235
2.29234
2.29232
2.2923
2.29228
2.29225
2.29222
2.2922
2.29222
2.29208
2.29209
2.2921
2.29209
2.29209
2.29207
2.29206
2.29204
2.29203
2.29201
2.29198
2.29196
2.29193
2.2919
2.29194
2.29179
2.29181
2.29182
2.29181
2.2918
2.29179
2.29178
2.29176
2.29174
2.29172
2.2917
2.29167
2.29164
2.29161
2.29167
2.29152
2.29154
2.29155
2.29154
2.29153
2.29152
2.2915
2.29149
2.29147
2.29145
2.29142
2.2914
2.29137
2.29134
2.29141
2.29127
2.29128
2.29129
2.29128
2.29127
2.29126
2.29124
2.29123
2.29121
2.29119
2.29116
2.29113
2.2911
2.29107
2.29117
2.29103
2.29105
2.29105
2.29104
2.29103
2.29102
2.291
2.29098
2.29096
2.29094
2.29092
2.29089
2.29086
2.29082
2.29095
2.29081
2.29083
2.29083
2.29082
2.29081
2.29079
2.29078
2.29076
2.29074
2.29071
2.29069
2.29066
2.29062
2.29059
2.29075
2.29062
2.29063
2.29063
2.29062
2.29061
2.2906
2.29058
2.29056
2.29054
2.29051
2.29048
2.29045
2.29041
2.29038
2.29058
2.29045
2.29046
2.29046
2.29045
2.29044
2.29042
2.2904
2.29038
2.29035
2.29033
2.2903
2.29026
2.29023
2.29019
2.29045
2.29031
2.29032
2.29032
2.29031
2.2903
2.29028
2.29026
2.29023
2.29021
2.29018
2.29014
2.29011
2.29007
2.29003
2.29035
2.29021
2.29022
2.29022
2.2902
2.29019
2.29017
2.29015
2.29012
2.29009
2.29006
2.29002
2.28998
2.28994
2.28989
2.29029
2.29015
2.29016
2.29016
2.29014
2.29012
2.2901
2.29008
2.29005
2.29002
2.28998
2.28994
2.2899
2.28985
2.2898
2.29028
2.29013
2.29014
2.29014
2.29012
2.2901
2.29007
2.29005
2.29002
2.28998
2.28994
2.2899
2.28985
2.2898
2.28975
2.29032
2.29017
2.29018
2.29017
2.29015
2.29013
2.2901
2.29007
2.29004
2.29
2.28996
2.28991
2.28986
2.28981
2.28975
2.29042
2.29026
2.29027
2.29026
2.29024
2.29021
2.29018
2.29015
2.29011
2.29007
2.29002
2.28997
2.28992
2.28986
2.28979
2.29059
2.29043
2.29043
2.29042
2.2904
2.29037
2.29033
2.2903
2.29026
2.29021
2.29016
2.2901
2.29004
2.28998
2.28991
2.29083
2.29066
2.29066
2.29065
2.29062
2.29059
2.29055
2.29051
2.29046
2.29041
2.29036
2.2903
2.29023
2.29016
2.29008
2.29116
2.29097
2.29097
2.29096
2.29093
2.29089
2.29085
2.29081
2.29076
2.2907
2.29064
2.29057
2.2905
2.29042
2.29034
2.29157
2.29137
2.29137
2.29135
2.29132
2.29128
2.29123
2.29118
2.29113
2.29107
2.291
2.29093
2.29085
2.29077
2.29068
2.29209
2.29187
2.29187
2.29185
2.29181
2.29177
2.29172
2.29166
2.2916
2.29154
2.29146
2.29138
2.2913
2.29121
2.29111
2.2927
2.29247
2.29247
2.29244
2.2924
2.29235
2.2923
2.29224
2.29217
2.2921
2.29202
2.29193
2.29184
2.29174
2.29164
2.29345
2.2932
2.29319
2.29316
2.29312
2.29306
2.293
2.29293
2.29286
2.29278
2.29269
2.2926
2.2925
2.29239
2.29228
2.2943
2.29403
2.29402
2.29399
2.29394
2.29388
2.29381
2.29374
2.29366
2.29357
2.29348
2.29338
2.29327
2.29315
2.29303
2.2953
2.295
2.29499
2.29495
2.2949
2.29483
2.29476
2.29468
2.29459
2.2945
2.2944
2.29429
2.29417
2.29405
2.29391
2.29643
2.2961
2.29608
2.29604
2.29598
2.29591
2.29583
2.29574
2.29565
2.29554
2.29543
2.29532
2.29519
2.29506
2.29491
2.2977
2.29734
2.29732
2.29728
2.29721
2.29713
2.29704
2.29695
2.29684
2.29673
2.29661
2.29649
2.29635
2.29621
2.29606
2.29911
2.2987
2.29868
2.29863
2.29855
2.29847
2.29837
2.29827
2.29816
2.29804
2.29791
2.29778
2.29763
2.29748
2.29731
2.30065
2.30019
2.30016
2.30011
2.30003
2.29993
2.29983
2.29972
2.2996
2.29948
2.29934
2.2992
2.29904
2.29888
2.29871
2.30228
2.30178
2.30175
2.30169
2.3016
2.3015
2.30139
2.30128
2.30115
2.30102
2.30088
2.30072
2.30056
2.30039
2.30022
2.30402
2.30346
2.30343
2.30337
2.30328
2.30317
2.30306
2.30294
2.30281
2.30267
2.30252
2.30236
2.3022
2.30202
2.30184
2.3058
2.30519
2.30516
2.3051
2.305
2.30489
2.30478
2.30465
2.30452
2.30438
2.30423
2.30407
2.3039
2.30372
2.30353
2.30757
2.3069
2.30688
2.30682
2.30672
2.30661
2.30649
2.30637
2.30623
2.30609
2.30594
2.30578
2.30561
2.30543
2.30524
2.3092
2.30848
2.30847
2.30843
2.30833
2.30823
2.30811
2.30799
2.30786
2.30772
2.30758
2.30742
2.30726
2.30709
2.30691
2.31059
2.30984
2.30985
2.30982
2.30974
2.30964
2.30954
2.30944
2.30932
2.3092
2.30908
2.30894
2.3088
2.30864
2.30849
2.31168
2.31092
2.31095
2.31094
2.31087
2.3108
2.31073
2.31065
2.31056
2.31047
2.31038
2.31028
2.31017
2.31005
2.30993
2.31236
2.31161
2.31166
2.31168
2.31165
2.31161
2.31157
2.31153
2.31149
2.31145
2.3114
2.31135
2.3113
2.31123
2.31117
2.31256
2.31185
2.31193
2.31198
2.31199
2.312
2.31202
2.31203
2.31205
2.31208
2.3121
2.31212
2.31214
2.31215
2.31217
2.31216
2.31153
2.31164
2.31173
2.3118
2.31187
2.31195
2.31204
2.31214
2.31225
2.31237
2.31248
2.3126
2.31272
2.31284
2.31104
2.31054
2.31068
2.31082
2.31095
2.31109
2.31126
2.31145
2.31166
2.31189
2.31212
2.31237
2.31262
2.31287
2.31313
2.30895
2.30864
2.30882
2.30901
2.30922
2.30947
2.30976
2.31008
2.31043
2.3108
2.31119
2.31161