/*--------------------------------*- C++ -*----------------------------------*\
  =========                 |
  \\      /  F ield         | OpenFOAM: The Open Source CFD Toolbox
   \\    /   O peration     | Website:  https://openfoam.org
    \\  /    A nd           | Version:  7
     \\/     M anipulation  |
\*---------------------------------------------------------------------------*/
FoamFile
{
    version     2.0;
    format      ascii;
    class       volScalarField;
    location    "400";
    object      p_tot;
}
// * * * * * * * * * * * * * * * * * * * * * * * * * * * * * * * * * * * * * //

dimensions      [0 2 -2 0 0 0 0];

internalField   nonuniform List<scalar> 
32100
(
3.24507
3.24509
3.24513
3.24519
3.24527
3.24535
3.24542
3.24546
3.24542
3.24521
3.24459
3.24329
3.23745
3.20883
3.33171
3.23402
3.23404
3.23409
3.23415
3.23422
3.23431
3.23439
3.23445
3.23445
3.23432
3.23384
3.23315
3.23673
3.20296
3.29963
3.22295
3.22297
3.22302
3.22308
3.22317
3.22327
3.22337
3.22348
3.22356
3.22365
3.22371
3.22285
3.23386
3.20013
3.26779
3.21186
3.21188
3.21193
3.212
3.2121
3.21222
3.21236
3.21252
3.21271
3.21298
3.21372
3.21184
3.22563
3.19607
3.2441
3.20074
3.20077
3.20082
3.2009
3.20101
3.20115
3.20132
3.20154
3.20182
3.20212
3.20342
3.20057
3.21456
3.18941
3.22617
3.1896
3.18963
3.18968
3.18977
3.18989
3.19005
3.19025
3.1905
3.19084
3.19108
3.19278
3.18942
3.20276
3.18076
3.2105
3.17843
3.17846
3.17852
3.17862
3.17874
3.17891
3.17913
3.17939
3.1798
3.17993
3.18188
3.17831
3.19082
3.1711
3.19576
3.16723
3.16727
3.16733
3.16743
3.16756
3.16774
3.16796
3.16823
3.16868
3.16872
3.17079
3.16714
3.17878
3.16113
3.18165
3.15601
3.15604
3.15611
3.15621
3.15634
3.15652
3.15676
3.15702
3.1575
3.15745
3.15955
3.1559
3.16667
3.15099
3.16811
3.14475
3.14479
3.14485
3.14495
3.14509
3.14527
3.14551
3.14575
3.14624
3.14612
3.14821
3.14462
3.15451
3.14065
3.15502
3.13346
3.1335
3.13356
3.13367
3.1338
3.13398
3.13421
3.13443
3.13493
3.13475
3.13678
3.13331
3.14236
3.13011
3.14225
3.12215
3.12219
3.12225
3.12235
3.12248
3.12265
3.12288
3.12307
3.12357
3.12334
3.1253
3.12199
3.13024
3.1194
3.1297
3.1108
3.11084
3.1109
3.11099
3.11112
3.11128
3.1115
3.11168
3.11217
3.1119
3.11377
3.11064
3.11814
3.10856
3.11734
3.09943
3.09947
3.09952
3.09961
3.09974
3.09989
3.1001
3.10025
3.10072
3.10044
3.1022
3.09926
3.10609
3.09761
3.10511
3.08802
3.08806
3.08811
3.0882
3.08832
3.08846
3.08866
3.08879
3.08925
3.08895
3.09061
3.08787
3.09407
3.08656
3.093
3.07659
3.07664
3.07668
3.07676
3.07688
3.07701
3.0772
3.07731
3.07774
3.07745
3.079
3.07645
3.08208
3.07543
3.08097
3.06514
3.06518
3.06522
3.0653
3.06541
3.06553
3.06571
3.06581
3.06622
3.06592
3.06737
3.06501
3.07012
3.06423
3.069
3.05366
3.0537
3.05374
3.05381
3.05391
3.05402
3.0542
3.05428
3.05467
3.05438
3.05573
3.05355
3.05819
3.05297
3.05709
3.04216
3.0422
3.04224
3.04231
3.0424
3.0425
3.04266
3.04274
3.0431
3.04282
3.04408
3.04208
3.04628
3.04166
3.04522
3.03064
3.03068
3.03071
3.03078
3.03086
3.03096
3.03111
3.03117
3.03152
3.03125
3.03242
3.03058
3.0344
3.0303
3.03337
3.0191
3.01914
3.01917
3.01923
3.01931
3.0194
3.01954
3.01959
3.01992
3.01966
3.02075
3.01906
3.02253
3.0189
3.02155
3.00754
3.00758
3.00761
3.00766
3.00774
3.00782
3.00795
3.008
3.0083
3.00806
3.00907
3.00753
3.01067
3.00746
3.00975
2.99597
2.99601
2.99603
2.99608
2.99615
2.99622
2.99635
2.99639
2.99668
2.99645
2.99739
2.99598
2.99883
2.99599
2.99796
2.98438
2.98441
2.98444
2.98448
2.98455
2.98462
2.98473
2.98477
2.98504
2.98483
2.9857
2.98441
2.987
2.98449
2.98619
2.97277
2.97281
2.97283
2.97287
2.97293
2.973
2.97311
2.97314
2.97339
2.9732
2.974
2.97283
2.97518
2.97296
2.97442
2.96115
2.96119
2.9612
2.96125
2.96131
2.96136
2.96147
2.9615
2.96173
2.96155
2.9623
2.96124
2.96337
2.96141
2.96265
2.94952
2.94955
2.94957
2.94961
2.94966
2.94972
2.94982
2.94985
2.95006
2.9499
2.95059
2.94963
2.95156
2.94984
2.95089
2.93787
2.93791
2.93792
2.93796
2.93801
2.93806
2.93815
2.93818
2.93839
2.93823
2.93888
2.938
2.93975
2.93825
2.93913
2.92622
2.92625
2.92626
2.9263
2.92635
2.9264
2.92648
2.92651
2.9267
2.92656
2.92716
2.92637
2.92795
2.92664
2.92737
2.91455
2.91459
2.9146
2.91463
2.91467
2.91472
2.9148
2.91483
2.91501
2.91488
2.91543
2.91472
2.91615
2.91501
2.91561
2.90287
2.90291
2.90292
2.90295
2.90299
2.90303
2.90311
2.90314
2.9033
2.90319
2.9037
2.90306
2.90435
2.90336
2.90385
2.89119
2.89122
2.89123
2.89126
2.8913
2.89134
2.89141
2.89144
2.89159
2.89149
2.89196
2.89139
2.89256
2.89171
2.89209
2.87949
2.87953
2.87953
2.87956
2.8796
2.87964
2.8797
2.87973
2.87988
2.87978
2.88022
2.87971
2.88076
2.88003
2.88032
2.86779
2.86782
2.86783
2.86786
2.86789
2.86793
2.86799
2.86801
2.86815
2.86807
2.86848
2.86802
2.86896
2.86835
2.86855
2.85608
2.85611
2.85611
2.85614
2.85617
2.85621
2.85627
2.85629
2.85642
2.85635
2.85672
2.85632
2.85716
2.85665
2.85678
2.84436
2.84439
2.84439
2.84442
2.84445
2.84448
2.84454
2.84456
2.84468
2.84462
2.84497
2.84461
2.84536
2.84494
2.84501
2.83263
2.83267
2.83267
2.83269
2.83272
2.83275
2.8328
2.83283
2.83294
2.83289
2.8332
2.83289
2.83356
2.83323
2.83323
2.8209
2.82093
2.82093
2.82096
2.82098
2.82101
2.82106
2.82108
2.82119
2.82114
2.82144
2.82117
2.82176
2.8215
2.82145
2.80916
2.80919
2.80919
2.80921
2.80924
2.80927
2.80932
2.80934
2.80944
2.8094
2.80967
2.80943
2.80996
2.80976
2.80967
2.79741
2.79745
2.79744
2.79747
2.79749
2.79752
2.79756
2.79758
2.79768
2.79764
2.79789
2.79769
2.79815
2.79802
2.79788
2.78566
2.78569
2.78569
2.78571
2.78573
2.78576
2.7858
2.78582
2.78591
2.78588
2.78611
2.78594
2.78635
2.78626
2.78609
2.7739
2.77394
2.77393
2.77395
2.77397
2.774
2.77404
2.77406
2.77414
2.77412
2.77433
2.77419
2.77454
2.7745
2.77429
2.76214
2.76217
2.76217
2.76219
2.76221
2.76223
2.76227
2.76229
2.76236
2.76235
2.76254
2.76243
2.76273
2.76274
2.7625
2.75037
2.75041
2.7504
2.75042
2.75044
2.75046
2.75049
2.75051
2.75058
2.75057
2.75075
2.75066
2.75091
2.75096
2.7507
2.7386
2.73863
2.73863
2.73864
2.73866
2.73868
2.73872
2.73873
2.7388
2.73879
2.73895
2.73889
2.7391
2.73918
2.73889
2.72682
2.72686
2.72685
2.72687
2.72688
2.7269
2.72693
2.72695
2.72701
2.72701
2.72715
2.72711
2.72728
2.72739
2.72709
2.71504
2.71507
2.71507
2.71508
2.7151
2.71512
2.71515
2.71516
2.71522
2.71522
2.71535
2.71533
2.71546
2.7156
2.71528
2.70326
2.70329
2.70328
2.7033
2.70331
2.70333
2.70336
2.70337
2.70343
2.70343
2.70354
2.70354
2.70364
2.70381
2.70346
2.69147
2.6915
2.69149
2.69151
2.69152
2.69154
2.69156
2.69158
2.69163
2.69163
2.69174
2.69175
2.69182
2.69201
2.69165
2.67967
2.67971
2.6797
2.67971
2.67973
2.67974
2.67976
2.67978
2.67982
2.67983
2.67992
2.67995
2.67999
2.6802
2.67983
2.66788
2.66791
2.6679
2.66792
2.66793
2.66794
2.66796
2.66798
2.66802
2.66803
2.66811
2.66815
2.66817
2.66839
2.66801
2.65608
2.65611
2.6561
2.65612
2.65613
2.65614
2.65616
2.65617
2.65621
2.65622
2.65629
2.65635
2.65634
2.65658
2.65619
2.64428
2.64431
2.6443
2.64431
2.64432
2.64433
2.64435
2.64437
2.6444
2.64442
2.64448
2.64454
2.64451
2.64476
2.64437
2.63247
2.63251
2.6325
2.63251
2.63252
2.63253
2.63254
2.63256
2.63259
2.63261
2.63266
2.63273
2.63268
2.63294
2.63254
2.62067
2.6207
2.62069
2.6207
2.62071
2.62072
2.62073
2.62074
2.62077
2.62079
2.62083
2.62092
2.62085
2.62112
2.62072
2.60886
2.60889
2.60888
2.60889
2.60889
2.6089
2.60892
2.60893
2.60895
2.60898
2.60901
2.6091
2.60902
2.6093
2.60889
2.59704
2.59708
2.59707
2.59707
2.59708
2.59709
2.5971
2.59711
2.59714
2.59716
2.59718
2.59728
2.59718
2.59747
2.59706
2.58523
2.58526
2.58525
2.58526
2.58527
2.58527
2.58528
2.58529
2.58531
2.58534
2.58536
2.58546
2.58535
2.58564
2.58523
2.57342
2.57345
2.57344
2.57344
2.57345
2.57345
2.57346
2.57347
2.57349
2.57352
2.57353
2.57364
2.57352
2.57381
2.5734
2.5616
2.56163
2.56162
2.56163
2.56163
2.56163
2.56164
2.56165
2.56167
2.56169
2.5617
2.56182
2.56168
2.56198
2.56157
2.54978
2.54981
2.5498
2.54981
2.54981
2.54981
2.54982
2.54983
2.54984
2.54987
2.54987
2.54999
2.54985
2.55015
2.54974
2.53796
2.53799
2.53798
2.53799
2.53799
2.53799
2.538
2.53801
2.53802
2.53804
2.53804
2.53817
2.53801
2.53831
2.53791
2.52614
2.52617
2.52616
2.52616
2.52616
2.52617
2.52617
2.52618
2.52619
2.52622
2.52621
2.52634
2.52617
2.52648
2.52607
2.51432
2.51435
2.51434
2.51434
2.51434
2.51434
2.51435
2.51435
2.51436
2.51439
2.51438
2.51451
2.51434
2.51464
2.51424
2.5025
2.50253
2.50251
2.50252
2.50252
2.50252
2.50252
2.50252
2.50253
2.50256
2.50254
2.50268
2.5025
2.50281
2.50241
2.49068
2.49071
2.49069
2.49069
2.49069
2.49069
2.49069
2.4907
2.4907
2.49073
2.49071
2.49085
2.49067
2.49097
2.49058
2.47886
2.47889
2.47887
2.47887
2.47887
2.47886
2.47886
2.47887
2.47887
2.4789
2.47887
2.47902
2.47883
2.47914
2.47875
2.46703
2.46706
2.46705
2.46705
2.46704
2.46704
2.46703
2.46703
2.46703
2.46707
2.46704
2.46719
2.467
2.4673
2.46693
2.45522
2.45524
2.45523
2.45522
2.45522
2.45521
2.4552
2.4552
2.4552
2.45523
2.4552
2.45535
2.45516
2.45547
2.4551
2.4434
2.44343
2.4434
2.4434
2.44339
2.44338
2.44337
2.44337
2.44336
2.44339
2.44336
2.44352
2.44333
2.44364
2.44328
2.43158
2.43161
2.43159
2.43158
2.43157
2.43155
2.43154
2.43153
2.43152
2.43156
2.43152
2.43168
2.43149
2.4318
2.43147
2.41977
2.4198
2.41977
2.41976
2.41974
2.41973
2.41971
2.4197
2.41968
2.41971
2.41967
2.41984
2.41966
2.41997
2.41966
2.40796
2.40799
2.40796
2.40795
2.40792
2.4079
2.40788
2.40786
2.40784
2.40787
2.40782
2.40799
2.40782
2.40814
2.40786
2.39616
2.39618
2.39615
2.39614
2.39611
2.39608
2.39605
2.39602
2.39599
2.39602
2.39597
2.39614
2.39597
2.39631
2.39607
2.38436
2.38438
2.38435
2.38433
2.3843
2.38426
2.38422
2.38418
2.38414
2.38416
2.3841
2.38427
2.38412
2.38447
2.3843
2.37257
2.37259
2.37255
2.37253
2.37249
2.37244
2.37239
2.37235
2.37229
2.37229
2.37223
2.37239
2.37225
2.37263
2.37255
2.36079
2.36081
2.36077
2.36074
2.36069
2.36063
2.36057
2.36051
2.36044
2.36042
2.36034
2.36049
2.36036
2.36076
2.36083
2.34902
2.34904
2.34899
2.34895
2.3489
2.34883
2.34875
2.34867
2.34858
2.34854
2.34843
2.34856
2.34844
2.34888
2.34922
2.33727
2.33728
2.33723
2.33718
2.33712
2.33704
2.33694
2.33684
2.33672
2.33665
2.3365
2.33658
2.33644
2.33686
2.33745
2.32553
2.32553
2.32548
2.32543
2.32535
2.32526
2.32515
2.32502
2.32487
2.32476
2.32457
2.32457
2.32442
2.32488
2.32652
2.29073
2.29072
2.29067
2.29059
2.29049
2.29035
2.29019
2.28999
2.28976
2.28949
2.28915
2.28876
2.2882
2.28746
2.28457
2.23323
2.23321
2.23315
2.23304
2.2329
2.23272
2.2325
2.23222
2.23188
2.23148
2.23098
2.23037
2.22953
2.22934
2.23089
2.17657
2.17655
2.17649
2.1764
2.17628
2.17613
2.17594
2.17572
2.17548
2.17521
2.17493
2.17466
2.17409
2.17346
2.17473
2.12072
2.12071
2.12067
2.12061
2.12054
2.12044
2.12034
2.12022
2.12008
2.11994
2.11979
2.11972
2.11952
2.11893
2.11891
2.06533
2.06532
2.06529
2.06525
2.0652
2.06514
2.06506
2.06497
2.06487
2.06475
2.0646
2.06448
2.06438
2.06397
2.06279
2.01016
2.01016
2.01014
2.0101
2.01006
2.01001
2.00995
2.00988
2.0098
2.00971
2.0096
2.00947
2.00949
2.0095
2.00771
1.95521
1.9552
1.95519
1.95516
1.95513
1.9551
1.95506
1.95501
1.95496
1.95491
1.95484
1.95472
1.95471
1.95486
1.95281
1.90043
1.90043
1.90042
1.9004
1.90038
1.90036
1.90034
1.90031
1.90027
1.90024
1.9002
1.9001
1.90009
1.90018
1.89802
1.84576
1.84576
1.84576
1.84575
1.84573
1.84572
1.8457
1.84568
1.84566
1.84564
1.84561
1.84554
1.84557
1.84547
1.8434
1.79116
1.79116
1.79115
1.79114
1.79114
1.79113
1.79112
1.7911
1.79109
1.79107
1.79105
1.79099
1.79109
1.79072
1.78886
1.73659
1.73659
1.73659
1.73658
1.73658
1.73657
1.73656
1.73655
1.73654
1.73653
1.73651
1.73646
1.7366
1.73595
1.73436
1.68205
1.68205
1.68205
1.68205
1.68204
1.68204
1.68203
1.68203
1.68202
1.68201
1.68199
1.68194
1.6821
1.6812
1.67986
1.62754
1.62754
1.62754
1.62753
1.62753
1.62753
1.62752
1.62752
1.62752
1.62751
1.62749
1.62747
1.62758
1.62653
1.62537
1.57304
1.57304
1.57304
1.57304
1.57303
1.57303
1.57303
1.57303
1.57302
1.57302
1.57299
1.57301
1.57302
1.5719
1.5709
1.51855
1.51855
1.51855
1.51855
1.51854
1.51854
1.51854
1.51854
1.51854
1.51852
1.5185
1.51855
1.5184
1.51731
1.51642
1.46406
1.46406
1.46406
1.46406
1.46406
1.46406
1.46406
1.46406
1.46405
1.46404
1.46402
1.4641
1.46378
1.46276
1.4619
1.40959
1.40959
1.40959
1.40959
1.40959
1.40959
1.40959
1.40958
1.40958
1.40957
1.40955
1.40965
1.40916
1.40824
1.4074
1.35512
1.35512
1.35512
1.35512
1.35512
1.35512
1.35512
1.35511
1.35511
1.35509
1.35509
1.35517
1.35455
1.35373
1.35291
1.30065
1.30065
1.30065
1.30065
1.30065
1.30065
1.30065
1.30065
1.30064
1.30062
1.30064
1.30065
1.29996
1.29922
1.29842
1.24618
1.24618
1.24618
1.24618
1.24618
1.24618
1.24618
1.24618
1.24617
1.24615
1.24619
1.2461
1.24539
1.24469
1.24393
1.19171
1.19171
1.19171
1.19171
1.19171
1.19171
1.19171
1.19171
1.1917
1.19168
1.19174
1.19153
1.19084
1.19016
1.18942
1.13724
1.13724
1.13724
1.13724
1.13724
1.13724
1.13724
1.13724
1.13722
1.13722
1.13728
1.13696
1.1363
1.13564
1.13492
1.08277
1.08277
1.08277
1.08277
1.08277
1.08277
1.08277
1.08277
1.08275
1.08276
1.0828
1.08238
1.08177
1.08112
1.08042
1.02831
1.02831
1.02831
1.02831
1.02831
1.02831
1.0283
1.0283
1.02828
1.0283
1.02829
1.02781
1.02724
1.0266
1.02593
0.973843
0.973843
0.973843
0.973843
0.973842
0.973841
0.97384
0.973832
0.97382
0.973852
0.973768
0.973263
0.972708
0.972086
0.971427
0.919382
0.919382
0.919382
0.919381
0.919381
0.91938
0.919378
0.919369
0.91936
0.919401
0.919235
0.918726
0.918182
0.917571
0.91693
0.864922
0.864922
0.864922
0.864922
0.864921
0.864921
0.864918
0.864907
0.864906
0.864941
0.864695
0.864197
0.863659
0.86306
0.862438
0.810465
0.810465
0.810465
0.810464
0.810464
0.810463
0.81046
0.810449
0.810456
0.810468
0.810155
0.809673
0.809139
0.808552
0.807947
0.756009
0.756009
0.756009
0.756009
0.756008
0.756007
0.756002
0.755992
0.756011
0.755979
0.755618
0.755151
0.754622
0.754046
0.753456
0.701554
0.701554
0.701554
0.701554
0.701553
0.701552
0.701546
0.701538
0.701565
0.701476
0.701088
0.700628
0.700105
0.69954
0.698965
0.6471
0.6471
0.6471
0.6471
0.6471
0.647098
0.64709
0.647087
0.647114
0.646963
0.646564
0.646106
0.645588
0.645035
0.644475
0.592647
0.592647
0.592647
0.592647
0.592646
0.592644
0.592636
0.59264
0.592655
0.592444
0.592044
0.591586
0.591072
0.59053
0.589984
0.538194
0.538194
0.538194
0.538194
0.538194
0.53819
0.538183
0.538194
0.538181
0.537919
0.537522
0.537065
0.536559
0.536027
0.535494
0.483741
0.483741
0.483741
0.483741
0.48374
0.483735
0.483729
0.483746
0.483693
0.483395
0.482999
0.482544
0.482045
0.481524
0.481003
0.429289
0.429289
0.429289
0.429289
0.429288
0.429282
0.429279
0.429298
0.429197
0.428876
0.428479
0.428023
0.427528
0.427018
0.426509
0.374838
0.374838
0.374838
0.374838
0.374836
0.37483
0.374832
0.374843
0.374692
0.374357
0.373957
0.373503
0.373014
0.372512
0.372015
0.320388
0.320387
0.320387
0.320387
0.320384
0.320378
0.320386
0.320378
0.32018
0.319838
0.319435
0.318982
0.318499
0.318007
0.317521
0.265937
0.265937
0.265937
0.265936
0.265933
0.265928
0.26594
0.265902
0.265665
0.265318
0.264912
0.26446
0.263984
0.263502
0.263025
0.211487
0.211487
0.211487
0.211486
0.211482
0.211479
0.211492
0.211415
0.21115
0.210797
0.210388
0.209939
0.209469
0.208995
0.208529
0.157039
0.157038
0.157038
0.157036
0.157032
0.157033
0.157039
0.15692
0.156634
0.156276
0.155865
0.155418
0.154955
0.154489
0.154032
0.102591
0.10259
0.10259
0.102588
0.102584
0.102589
0.102579
0.102418
0.102119
0.101754
0.101341
0.100897
0.10044
0.0999828
0.0995349
0.0481443
0.0481431
0.0481431
0.0481404
0.0481373
0.0481451
0.0481106
0.0479119
0.0476016
0.0472311
0.0468169
0.0463767
0.0459259
0.0454765
0.0450374
-0.00630132
-0.0063028
-0.00630309
-0.00630625
-0.00630754
-0.00630089
-0.00636831
-0.00659819
-0.00691882
-0.00729438
-0.00770771
-0.00814297
-0.00858725
-0.0090292
-0.00946015
-0.060745
-0.0607468
-0.0607474
-0.0607507
-0.0607496
-0.0607501
-0.0608552
-0.0611086
-0.0614382
-0.061818
-0.0622318
-0.0626639
-0.0631017
-0.0635358
-0.0639585
-0.115186
-0.115189
-0.115189
-0.115192
-0.115189
-0.115204
-0.115348
-0.11562
-0.115958
-0.116342
-0.116756
-0.117184
-0.117616
-0.118043
-0.118457
-0.169625
-0.169628
-0.169629
-0.169631
-0.169627
-0.169666
-0.169846
-0.170133
-0.170479
-0.170867
-0.17128
-0.171704
-0.17213
-0.17255
-0.172957
-0.224062
-0.224066
-0.224067
-0.224067
-0.224067
-0.224137
-0.224348
-0.224649
-0.225002
-0.225392
-0.225804
-0.226225
-0.226645
-0.227057
-0.227457
-0.278495
-0.2785
-0.278501
-0.278501
-0.27851
-0.278616
-0.278853
-0.279166
-0.279527
-0.279919
-0.280328
-0.280745
-0.281159
-0.281565
-0.281958
-0.332926
-0.332932
-0.332933
-0.332932
-0.332959
-0.333102
-0.333361
-0.333684
-0.334051
-0.334445
-0.334854
-0.335266
-0.335674
-0.336074
-0.336461
-0.387352
-0.38736
-0.38736
-0.387362
-0.387415
-0.387593
-0.387871
-0.388205
-0.388577
-0.388973
-0.389379
-0.389787
-0.390191
-0.390584
-0.390964
-0.441774
-0.441785
-0.441784
-0.441795
-0.441881
-0.442091
-0.442386
-0.44273
-0.443107
-0.443502
-0.443904
-0.444308
-0.444707
-0.445095
-0.445469
-0.496191
-0.496205
-0.496205
-0.496232
-0.496354
-0.496593
-0.496903
-0.497256
-0.497636
-0.498031
-0.498432
-0.498831
-0.499224
-0.499607
-0.499975
-0.5506
-0.550618
-0.550623
-0.550673
-0.550833
-0.551097
-0.55142
-0.551781
-0.552165
-0.552561
-0.55296
-0.553356
-0.553743
-0.55412
-0.554483
-0.605001
-0.605025
-0.605039
-0.605122
-0.605319
-0.605604
-0.605941
-0.606309
-0.606696
-0.607092
-0.607489
-0.607881
-0.608264
-0.608636
-0.608993
-0.659392
-0.659426
-0.659458
-0.659578
-0.659809
-0.660115
-0.660464
-0.660839
-0.661229
-0.661624
-0.662018
-0.662407
-0.662786
-0.663152
-0.663505
-0.713771
-0.713823
-0.71388
-0.714041
-0.714304
-0.714629
-0.714989
-0.71537
-0.715762
-0.716157
-0.716549
-0.716934
-0.717309
-0.717671
-0.718019
-0.768139
-0.768218
-0.768308
-0.768511
-0.768803
-0.769144
-0.769515
-0.769902
-0.770296
-0.770692
-0.771082
-0.771463
-0.771834
-0.772192
-0.772535
-0.822499
-0.822616
-0.822744
-0.822988
-0.823306
-0.823664
-0.824045
-0.824437
-0.824833
-0.825226
-0.825614
-0.825993
-0.82636
-0.826714
-0.827053
-0.876855
-0.87702
-0.877189
-0.87747
-0.877813
-0.878186
-0.878576
-0.878972
-0.87937
-0.879763
-0.880149
-0.880524
-0.880888
-0.881238
-0.881573
-0.931214
-0.931434
-0.931642
-0.931956
-0.93232
-0.932707
-0.933105
-0.933507
-0.933907
-0.934301
-0.934685
-0.935059
-0.935419
-0.935765
-0.936097
-0.985587
-0.985865
-0.986106
-0.986447
-0.986832
-0.987232
-0.987638
-0.988044
-0.988445
-0.988839
-0.989223
-0.989594
-0.989951
-0.990295
-0.990623
-1.03999
-1.04032
-1.04058
-1.04095
-1.04135
-1.04176
-1.04217
-1.04258
-1.04299
-1.04338
-1.04376
-1.04413
-1.04449
-1.04483
-1.04515
-1.09442
-1.09479
-1.09507
-1.09545
-1.09587
-1.09629
-1.09671
-1.09712
-1.09753
-1.09792
-1.0983
-1.09867
-1.09902
-1.09936
-1.09968
-1.14889
-1.1493
-1.14959
-1.14998
-1.1504
-1.15083
-1.15125
-1.15167
-1.15207
-1.15247
-1.15285
-1.15321
-1.15356
-1.1539
-1.15422
-1.2034
-1.20384
-1.20412
-1.20451
-1.20494
-1.20537
-1.2058
-1.20622
-1.20662
-1.20701
-1.20739
-1.20776
-1.20811
-1.20844
-1.20876
-1.25794
-1.25841
-1.25868
-1.25906
-1.25949
-1.25992
-1.26035
-1.26077
-1.26118
-1.26157
-1.26194
-1.26231
-1.26265
-1.26298
-1.2633
-1.31252
-1.313
-1.31326
-1.31363
-1.31405
-1.31448
-1.31491
-1.31533
-1.31573
-1.31612
-1.3165
-1.31686
-1.3172
-1.31753
-1.31785
-1.36714
-1.36763
-1.36787
-1.36822
-1.36863
-1.36906
-1.36948
-1.36989
-1.37029
-1.37068
-1.37106
-1.37142
-1.37176
-1.37209
-1.3724
-1.42179
-1.42228
-1.4225
-1.42283
-1.42323
-1.42365
-1.42406
-1.42447
-1.42487
-1.42525
-1.42562
-1.42598
-1.42632
-1.42664
-1.42695
-1.47645
-1.47695
-1.47715
-1.47746
-1.47784
-1.47825
-1.47865
-1.47906
-1.47945
-1.47983
-1.4802
-1.48055
-1.48089
-1.48121
-1.48151
-1.53114
-1.53165
-1.53182
-1.53211
-1.53248
-1.53286
-1.53326
-1.53365
-1.53404
-1.53441
-1.53478
-1.53512
-1.53546
-1.53578
-1.53608
-1.58586
-1.58636
-1.58651
-1.58678
-1.58713
-1.5875
-1.58788
-1.58826
-1.58864
-1.58901
-1.58936
-1.58971
-1.59004
-1.59035
-1.59065
-1.64058
-1.64108
-1.64122
-1.64147
-1.64179
-1.64214
-1.64251
-1.64288
-1.64325
-1.64361
-1.64396
-1.6443
-1.64462
-1.64493
-1.64523
-1.69532
-1.69582
-1.69594
-1.69617
-1.69647
-1.69681
-1.69716
-1.69752
-1.69787
-1.69822
-1.69857
-1.6989
-1.69922
-1.69952
-1.69982
-1.75007
-1.75057
-1.75068
-1.75089
-1.75117
-1.75148
-1.75182
-1.75216
-1.75251
-1.75285
-1.75318
-1.75351
-1.75382
-1.75412
-1.75441
-1.80483
-1.80533
-1.80542
-1.80561
-1.80588
-1.80618
-1.80649
-1.80682
-1.80715
-1.80748
-1.80781
-1.80813
-1.80843
-1.80873
-1.80901
-1.85961
-1.8601
-1.86018
-1.86035
-1.8606
-1.86088
-1.86118
-1.86149
-1.86181
-1.86213
-1.86245
-1.86275
-1.86305
-1.86334
-1.86362
-1.91439
-1.91488
-1.91494
-1.9151
-1.91533
-1.9156
-1.91588
-1.91618
-1.91648
-1.91679
-1.91709
-1.91739
-1.91768
-1.91796
-1.91824
-1.96918
-1.96966
-1.96972
-1.96986
-1.97008
-1.97032
-1.97059
-1.97087
-1.97116
-1.97146
-1.97175
-1.97204
-1.97232
-1.9726
-1.97286
-2.02397
-2.02445
-2.0245
-2.02463
-2.02483
-2.02506
-2.02531
-2.02558
-2.02586
-2.02614
-2.02642
-2.0267
-2.02697
-2.02724
-2.0275
-2.07878
-2.07924
-2.07928
-2.0794
-2.07959
-2.0798
-2.08004
-2.08029
-2.08056
-2.08083
-2.0811
-2.08137
-2.08163
-2.08189
-2.08214
-2.13358
-2.13404
-2.13408
-2.13419
-2.13436
-2.13456
-2.13478
-2.13502
-2.13527
-2.13553
-2.13579
-2.13604
-2.1363
-2.13655
-2.13679
-2.18839
-2.18885
-2.18887
-2.18897
-2.18913
-2.18932
-2.18953
-2.18975
-2.18999
-2.19024
-2.19048
-2.19073
-2.19098
-2.19122
-2.19145
-2.24321
-2.24365
-2.24368
-2.24377
-2.24391
-2.24409
-2.24429
-2.2445
-2.24472
-2.24495
-2.24519
-2.24543
-2.24566
-2.2459
-2.24612
-2.29802
-2.29846
-2.29848
-2.29856
-2.2987
-2.29886
-2.29905
-2.29925
-2.29946
-2.29968
-2.2999
-2.30013
-2.30036
-2.30058
-2.3008
-2.35284
-2.35328
-2.35329
-2.35336
-2.35349
-2.35365
-2.35382
-2.35401
-2.35421
-2.35441
-2.35463
-2.35484
-2.35506
-2.35528
-2.35549
-2.40767
-2.40809
-2.4081
-2.40817
-2.40829
-2.40843
-2.40859
-2.40877
-2.40896
-2.40915
-2.40936
-2.40956
-2.40977
-2.40998
-2.41018
-2.46249
-2.46291
-2.46292
-2.46298
-2.46309
-2.46322
-2.46337
-2.46354
-2.46372
-2.4639
-2.4641
-2.46429
-2.46449
-2.46469
-2.46489
-2.51732
-2.51773
-2.51773
-2.51779
-2.51789
-2.51802
-2.51816
-2.51831
-2.51848
-2.51866
-2.51884
-2.51903
-2.51922
-2.51941
-2.51959
-2.57215
-2.57256
-2.57255
-2.5726
-2.5727
-2.57282
-2.57295
-2.57309
-2.57325
-2.57342
-2.57359
-2.57377
-2.57395
-2.57413
-2.57431
-2.62698
-2.62738
-2.62737
-2.62742
-2.62751
-2.62762
-2.62774
-2.62788
-2.62803
-2.62818
-2.62835
-2.62852
-2.62869
-2.62886
-2.62903
-2.68182
-2.68221
-2.6822
-2.68224
-2.68232
-2.68242
-2.68254
-2.68267
-2.68281
-2.68296
-2.68311
-2.68327
-2.68343
-2.6836
-2.68376
-2.73665
-2.73703
-2.73702
-2.73706
-2.73714
-2.73723
-2.73734
-2.73746
-2.73759
-2.73773
-2.73788
-2.73803
-2.73819
-2.73834
-2.7385
-2.79149
-2.79186
-2.79185
-2.79188
-2.79195
-2.79204
-2.79214
-2.79226
-2.79238
-2.79251
-2.79265
-2.7928
-2.79294
-2.79309
-2.79324
-2.84632
-2.84669
-2.84668
-2.8467
-2.84677
-2.84685
-2.84695
-2.84706
-2.84717
-2.8473
-2.84743
-2.84756
-2.8477
-2.84785
-2.84799
-2.90116
-2.90152
-2.9015
-2.90153
-2.90159
-2.90167
-2.90176
-2.90186
-2.90197
-2.90209
-2.90221
-2.90234
-2.90247
-2.90261
-2.90274
-2.956
-2.95635
-2.95633
-2.95636
-2.95641
-2.95649
-2.95657
-2.95666
-2.95677
-2.95688
-2.95699
-2.95711
-2.95724
-2.95737
-2.9575
-3.01084
-3.01118
-3.01116
-3.01118
-3.01124
-3.01131
-3.01138
-3.01147
-3.01157
-3.01167
-3.01178
-3.0119
-3.01202
-3.01214
-3.01226
-3.06568
-3.06601
-3.06599
-3.06601
-3.06606
-3.06612
-3.0662
-3.06628
-3.06637
-3.06647
-3.06657
-3.06668
-3.06679
-3.06691
-3.06703
-3.12052
-3.12085
-3.12083
-3.12084
-3.12089
-3.12095
-3.12101
-3.12109
-3.12118
-3.12127
-3.12137
-3.12147
-3.12157
-3.12168
-3.1218
-3.17535
-3.17568
-3.17566
-3.17567
-3.17571
-3.17577
-3.17583
-3.1759
-3.17598
-3.17607
-3.17616
-3.17626
-3.17636
-3.17646
-3.17657
-3.2302
-3.23051
-3.23049
-3.2305
-3.23054
-3.23059
-3.23065
-3.23072
-3.23079
-3.23087
-3.23096
-3.23105
-3.23115
-3.23125
-3.23135
-3.28503
-3.28534
-3.28532
-3.28533
-3.28537
-3.28541
-3.28547
-3.28553
-3.2856
-3.28568
-3.28576
-3.28585
-3.28594
-3.28603
-3.28613
-3.33988
-3.34018
-3.34015
-3.34016
-3.34019
-3.34024
-3.34029
-3.34035
-3.34042
-3.34049
-3.34057
-3.34065
-3.34073
-3.34082
-3.34091
-3.39471
-3.39501
-3.39498
-3.39499
-3.39502
-3.39506
-3.39511
-3.39517
-3.39523
-3.3953
-3.39537
-3.39545
-3.39553
-3.39561
-3.39569
-3.44956
-3.44984
-3.44982
-3.44982
-3.44985
-3.44989
-3.44994
-3.44999
-3.45005
-3.45011
-3.45018
-3.45025
-3.45033
-3.4504
-3.45048
-3.5044
-3.50467
-3.50465
-3.50465
-3.50468
-3.50472
-3.50476
-3.50481
-3.50486
-3.50492
-3.50499
-3.50505
-3.50512
-3.5052
-3.50527
-3.55924
-3.55951
-3.55948
-3.55949
-3.55951
-3.55955
-3.55959
-3.55963
-3.55968
-3.55974
-3.5598
-3.55986
-3.55993
-3.56
-3.56007
-3.61408
-3.61434
-3.61432
-3.61432
-3.61434
-3.61437
-3.61441
-3.61445
-3.6145
-3.61455
-3.61461
-3.61467
-3.61473
-3.6148
-3.61486
-3.66892
-3.66918
-3.66915
-3.66915
-3.66917
-3.6692
-3.66924
-3.66928
-3.66932
-3.66937
-3.66942
-3.66948
-3.66954
-3.6696
-3.66966
-3.72376
-3.72401
-3.72398
-3.72398
-3.724
-3.72403
-3.72406
-3.7241
-3.72414
-3.72419
-3.72424
-3.72429
-3.72434
-3.7244
-3.72446
-3.7786
-3.77884
-3.77882
-3.77882
-3.77883
-3.77886
-3.77889
-3.77892
-3.77896
-3.77901
-3.77905
-3.7791
-3.77915
-3.77921
-3.77927
-3.83344
-3.83368
-3.83365
-3.83365
-3.83366
-3.83369
-3.83372
-3.83375
-3.83378
-3.83382
-3.83387
-3.83392
-3.83396
-3.83402
-3.83407
-3.88828
-3.88851
-3.88849
-3.88848
-3.8885
-3.88852
-3.88855
-3.88858
-3.88861
-3.88865
-3.88869
-3.88873
-3.88878
-3.88883
-3.88888
-3.94312
-3.94334
-3.94332
-3.94331
-3.94333
-3.94335
-3.94337
-3.9434
-3.94343
-3.94347
-3.94351
-3.94355
-3.94359
-3.94364
-3.94369
-3.99796
-3.99818
-3.99815
-3.99815
-3.99816
-3.99818
-3.9982
-3.99823
-3.99826
-3.99829
-3.99833
-3.99837
-3.99841
-3.99845
-3.9985
-4.0528
-4.05301
-4.05299
-4.05298
-4.05299
-4.05301
-4.05303
-4.05306
-4.05308
-4.05311
-4.05315
-4.05318
-4.05322
-4.05326
-4.05331
-4.10764
-4.10784
-4.10782
-4.10781
-4.10782
-4.10784
-4.10786
-4.10788
-4.10791
-4.10794
-4.10797
-4.108
-4.10804
-4.10808
-4.10812
-4.16247
-4.16268
-4.16265
-4.16265
-4.16266
-4.16267
-4.16269
-4.16271
-4.16273
-4.16276
-4.16279
-4.16282
-4.16286
-4.1629
-4.16293
-4.21731
-4.21751
-4.21748
-4.21748
-4.21749
-4.2175
-4.21752
-4.21754
-4.21756
-4.21759
-4.21761
-4.21764
-4.21768
-4.21771
-4.21775
-4.27215
-4.27234
-4.27231
-4.27231
-4.27232
-4.27233
-4.27235
-4.27236
-4.27239
-4.27241
-4.27244
-4.27246
-4.2725
-4.27253
-4.27256
-4.32698
-4.32717
-4.32714
-4.32714
-4.32715
-4.32716
-4.32717
-4.32719
-4.32721
-4.32723
-4.32726
-4.32729
-4.32732
-4.32735
-4.32738
-4.38182
-4.38199
-4.38197
-4.38196
-4.38197
-4.38198
-4.382
-4.38201
-4.38203
-4.38206
-4.38208
-4.38211
-4.38213
-4.38216
-4.3822
-4.43665
-4.43682
-4.4368
-4.43679
-4.4368
-4.43681
-4.43682
-4.43684
-4.43686
-4.43688
-4.4369
-4.43692
-4.43695
-4.43698
-4.43701
-4.49147
-4.49164
-4.49162
-4.49161
-4.49162
-4.49163
-4.49164
-4.49166
-4.49168
-4.49169
-4.49172
-4.49174
-4.49177
-4.4918
-4.49183
-4.5463
-4.54646
-4.54644
-4.54643
-4.54644
-4.54645
-4.54646
-4.54647
-4.54649
-4.54651
-4.54653
-4.54656
-4.54658
-4.54661
-4.54664
-4.60111
-4.60127
-4.60125
-4.60125
-4.60125
-4.60126
-4.60127
-4.60129
-4.6013
-4.60132
-4.60134
-4.60137
-4.60139
-4.60142
-4.60145
-4.65593
-4.65608
-4.65606
-4.65605
-4.65606
-4.65607
-4.65608
-4.6561
-4.65611
-4.65613
-4.65615
-4.65617
-4.6562
-4.65622
-4.65625
-4.71073
-4.71088
-4.71086
-4.71086
-4.71086
-4.71087
-4.71088
-4.7109
-4.71091
-4.71093
-4.71095
-4.71097
-4.711
-4.71103
-4.71105
-4.76553
-4.76567
-4.76566
-4.76565
-4.76566
-4.76566
-4.76568
-4.76569
-4.76571
-4.76572
-4.76574
-4.76577
-4.76579
-4.76582
-4.76585
-4.82031
-4.82046
-4.82044
-4.82043
-4.82044
-4.82045
-4.82046
-4.82047
-4.82049
-4.82051
-4.82053
-4.82055
-4.82058
-4.82061
-4.82064
-4.87508
-4.87523
-4.87521
-4.8752
-4.87521
-4.87522
-4.87523
-4.87525
-4.87526
-4.87528
-4.8753
-4.87533
-4.87535
-4.87538
-4.87541
-4.92984
-4.92998
-4.92997
-4.92996
-4.92997
-4.92998
-4.92999
-4.93001
-4.93002
-4.93004
-4.93006
-4.93009
-4.93012
-4.93015
-4.93018
-4.98458
-4.98472
-4.9847
-4.9847
-4.98471
-4.98472
-4.98473
-4.98475
-4.98477
-4.98479
-4.98481
-4.98483
-4.98486
-4.98489
-4.98493
-5.0393
-5.03944
-5.03942
-5.03942
-5.03943
-5.03944
-5.03946
-5.03947
-5.03949
-5.03951
-5.03954
-5.03956
-5.03959
-5.03963
-5.03966
-5.094
-5.09413
-5.09412
-5.09412
-5.09413
-5.09414
-5.09415
-5.09417
-5.09419
-5.09421
-5.09424
-5.09427
-5.0943
-5.09434
-5.09437
-5.14867
-5.1488
-5.14879
-5.14879
-5.1488
-5.14881
-5.14883
-5.14885
-5.14887
-5.1489
-5.14892
-5.14895
-5.14899
-5.14902
-5.14906
-5.2033
-5.20344
-5.20343
-5.20343
-5.20344
-5.20345
-5.20347
-5.20349
-5.20352
-5.20354
-5.20357
-5.20361
-5.20364
-5.20368
-5.20372
-5.2579
-5.25804
-5.25803
-5.25803
-5.25805
-5.25806
-5.25808
-5.2581
-5.25813
-5.25816
-5.25819
-5.25823
-5.25827
-5.25831
-5.25836
-5.31246
-5.3126
-5.31259
-5.31259
-5.31261
-5.31263
-5.31265
-5.31267
-5.3127
-5.31273
-5.31277
-5.31281
-5.31285
-5.3129
-5.31295
-5.36697
-5.36712
-5.36711
-5.36711
-5.36713
-5.36715
-5.36718
-5.3672
-5.36723
-5.36727
-5.36731
-5.36735
-5.3674
-5.36745
-5.3675
-5.42143
-5.42158
-5.42157
-5.42158
-5.4216
-5.42162
-5.42165
-5.42168
-5.42171
-5.42175
-5.42179
-5.42184
-5.42189
-5.42194
-5.422
-5.47583
-5.47599
-5.47598
-5.47599
-5.47601
-5.47604
-5.47607
-5.4761
-5.47614
-5.47618
-5.47623
-5.47628
-5.47633
-5.47639
-5.47646
-5.53016
-5.53032
-5.53032
-5.53033
-5.53035
-5.53038
-5.53042
-5.53045
-5.53049
-5.53054
-5.53059
-5.53065
-5.53071
-5.53077
-5.53084
-5.58442
-5.58459
-5.58459
-5.5846
-5.58463
-5.58466
-5.5847
-5.58474
-5.58479
-5.58484
-5.58489
-5.58495
-5.58502
-5.58509
-5.58517
-5.63859
-5.63878
-5.63878
-5.63879
-5.63882
-5.63886
-5.6389
-5.63894
-5.63899
-5.63905
-5.63911
-5.63918
-5.63925
-5.63933
-5.63941
-5.69268
-5.69288
-5.69288
-5.6929
-5.69293
-5.69297
-5.69302
-5.69307
-5.69312
-5.69318
-5.69325
-5.69332
-5.6934
-5.69348
-5.69357
-5.74666
-5.74688
-5.74688
-5.7469
-5.74694
-5.74698
-5.74703
-5.74709
-5.74715
-5.74721
-5.74729
-5.74737
-5.74745
-5.74754
-5.74764
-5.80055
-5.80078
-5.80078
-5.80081
-5.80085
-5.8009
-5.80095
-5.80101
-5.80108
-5.80115
-5.80123