/*--------------------------------*- C++ -*----------------------------------*\
  =========                 |
  \\      /  F ield         | OpenFOAM: The Open Source CFD Toolbox
   \\    /   O peration     | Website:  https://openfoam.org
    \\  /    A nd           | Version:  7
     \\/     M anipulation  |
\*---------------------------------------------------------------------------*/
FoamFile
{
    version     2.0;
    format      ascii;
    class       surfaceScalarField;
    location    "400";
    object      phi;
}
// * * * * * * * * * * * * * * * * * * * * * * * * * * * * * * * * * * * * * //

dimensions      [0 3 -1 0 0 0 0];

internalField   nonuniform List<scalar> 
63695
(
-7.62441e-13
1.94049e-07
-2.89814e-12
5.82146e-07
-6.25922e-12
9.70243e-07
-1.02439e-11
1.35834e-06
-1.3826e-11
1.74644e-06
-1.49587e-11
2.13453e-06
-9.45364e-12
2.52262e-06
1.16049e-11
2.9107e-06
7.16646e-11
3.29876e-06
2.39205e-10
3.68674e-06
5.87791e-10
4.07466e-06
2.02444e-09
4.46167e-06
1.80947e-08
4.83513e-06
2.54447e-08
5.23195e-06
5.65284e-06
-2.25604e-12
1.94051e-07
-8.72061e-12
5.82153e-07
-1.87257e-11
9.70253e-07
-3.05755e-11
1.35835e-06
-4.10935e-11
1.74645e-06
-4.39815e-11
2.13453e-06
-2.62394e-11
2.5226e-06
4.02274e-11
2.91063e-06
2.18733e-10
3.29858e-06
6.99867e-10
3.68626e-06
2.04789e-09
4.07331e-06
3.93499e-09
4.45978e-06
1.40185e-08
4.82505e-06
2.67606e-08
5.2192e-06
5.6796e-06
-3.81083e-12
1.94055e-07
-1.48028e-11
5.82164e-07
-3.19032e-11
9.7027e-07
-5.25479e-11
1.35837e-06
-7.19472e-11
1.74647e-06
-8.08537e-11
2.13454e-06
-6.1001e-11
2.52258e-06
2.56414e-11
2.91055e-06
2.53213e-10
3.29835e-06
7.59628e-10
3.68576e-06
2.20796e-09
4.07186e-06
3.72759e-09
4.45826e-06
8.48308e-09
4.82029e-06
1.90327e-08
5.20865e-06
5.69863e-06
-5.47417e-12
1.9406e-07
-2.13723e-11
5.82179e-07
-4.63843e-11
9.70295e-07
-7.74943e-11
1.3584e-06
-1.09208e-10
1.7465e-06
-1.31379e-10
2.13456e-06
-1.25544e-10
2.52258e-06
-5.65476e-11
2.91048e-06
1.42822e-10
3.29815e-06
5.01031e-10
3.6854e-06
1.6324e-09
4.07073e-06
3.01895e-09
4.45687e-06
4.1233e-09
4.81919e-06
1.1327e-08
5.20145e-06
5.70996e-06
-7.27098e-12
1.94068e-07
-2.85527e-11
5.82201e-07
-6.24834e-11
9.70329e-07
-1.06047e-10
1.35845e-06
-1.53955e-10
1.74655e-06
-1.96931e-10
2.13461e-06
-2.19472e-10
2.5226e-06
-1.96456e-10
2.91045e-06
-6.67116e-11
3.29802e-06
1.32896e-10
3.6852e-06
8.59028e-10
4.07001e-06
2.08895e-09
4.45564e-06
1.03338e-09
4.82024e-06
4.77675e-09
5.19771e-06
5.71473e-06
-9.21031e-12
1.94077e-07
-3.63556e-11
5.82228e-07
-8.01993e-11
9.70373e-07
-1.38068e-10
1.35851e-06
-2.05492e-10
1.74661e-06
-2.75018e-10
2.13468e-06
-3.34679e-10
2.52266e-06
-3.70425e-10
2.91049e-06
-3.2702e-10
3.29798e-06
-2.57583e-10
3.68513e-06
7.93119e-11
4.06967e-06
1.01816e-09
4.45471e-06
-1.00144e-09
4.82226e-06
-5.46901e-10
5.19725e-06
5.71419e-06
-1.12798e-11
1.94088e-07
-4.47153e-11
5.82261e-07
-9.93113e-11
9.70428e-07
-1.72948e-10
1.35858e-06
-2.62253e-10
1.7467e-06
-3.61949e-10
2.13478e-06
-4.63205e-10
2.52276e-06
-5.61385e-10
2.91059e-06
-6.12171e-10
3.29803e-06
-6.5618e-10
3.68517e-06
-6.39212e-10
4.06965e-06
-2.62331e-11
4.45409e-06
-2.32538e-09
4.82456e-06
-4.62021e-09
5.19955e-06
5.70957e-06
-1.34545e-11
1.94102e-07
-5.35113e-11
5.82301e-07
-1.19486e-10
9.70494e-07
-2.09906e-10
1.35867e-06
-3.2256e-10
1.74681e-06
-4.54392e-10
2.13491e-06
-5.9936e-10
2.5229e-06
-7.59461e-10
2.91075e-06
-9.04685e-10
3.29817e-06
-1.05014e-09
3.68532e-06
-1.26497e-09
4.06987e-06
-9.47921e-10
4.45378e-06
-3.31963e-09
4.82693e-06
-7.50959e-09
5.20374e-06
5.70206e-06
-1.56996e-11
1.94117e-07
-6.26021e-11
5.82348e-07
-1.40347e-10
9.70572e-07
-2.48135e-10
1.35878e-06
-3.84856e-10
1.74695e-06
-5.49488e-10
2.13507e-06
-7.38492e-10
2.52309e-06
-9.57369e-10
2.91097e-06
-1.18995e-09
3.29841e-06
-1.42461e-09
3.68555e-06
-1.80102e-09
4.07024e-06
-1.74122e-09
4.45372e-06
-4.13844e-09
4.82933e-06
-9.51683e-09
5.20912e-06
5.69254e-06
-1.79818e-11
1.94135e-07
-7.18354e-11
5.82402e-07
-1.6152e-10
9.70661e-07
-2.86865e-10
1.3589e-06
-4.47726e-10
1.74711e-06
-6.44744e-10
2.13527e-06
-8.7653e-10
2.52332e-06
-1.14952e-09
2.91124e-06
-1.45889e-09
3.29872e-06
-1.77147e-09
3.68587e-06
-2.26284e-09
4.07073e-06
-2.42422e-09
4.45388e-06
-4.82453e-09
4.83173e-06
-1.09396e-08
5.21523e-06
5.6816e-06
-2.02653e-11
1.94155e-07
-8.10713e-11
5.82463e-07
-1.82654e-10
9.70763e-07
-3.25398e-10
1.35904e-06
-5.09948e-10
1.7473e-06
-7.38156e-10
2.1355e-06
-1.01039e-09
2.5236e-06
-1.33242e-09
2.91156e-06
-1.70779e-09
3.29909e-06
-2.0885e-09
3.68625e-06
-2.6636e-09
4.07131e-06
-3.01461e-09
4.45423e-06
-5.40233e-09
4.83412e-06
-1.19641e-08
5.22179e-06
5.66964e-06
-2.25216e-11
1.94178e-07
-9.01794e-11
5.82531e-07
-2.03446e-10
9.70876e-07
-3.63154e-10
1.3592e-06
-5.70558e-10
1.7475e-06
-8.28293e-10
2.13575e-06
-1.1381e-09
2.52391e-06
-1.50421e-09
2.91193e-06
-1.93583e-09
3.29952e-06
-2.37607e-09
3.68669e-06
-3.01321e-09
4.07195e-06
-3.52737e-09
4.45474e-06
-5.89573e-09
4.83649e-06
-1.27009e-08
5.2286e-06
5.65694e-06
-2.47227e-11
1.94203e-07
-9.90579e-11
5.82605e-07
-2.23654e-10
9.71001e-07
-3.99687e-10
1.35938e-06
-6.28858e-10
1.74773e-06
-9.14223e-10
2.13604e-06
-1.2585e-09
2.52425e-06
-1.66409e-09
2.91233e-06
-2.14342e-09
3.3e-06
-2.63583e-09
3.68718e-06
-3.32031e-09
4.07263e-06
-3.97542e-09
4.4554e-06
-6.32455e-09
4.83884e-06
-1.32275e-08
5.2355e-06
5.64371e-06
-2.68507e-11
1.9423e-07
-1.07621e-10
5.82686e-07
-2.43093e-10
9.71136e-07
-4.3468e-10
1.35957e-06
-6.84378e-10
1.74798e-06
-9.95388e-10
2.13635e-06
-1.37106e-09
2.52463e-06
-1.8119e-09
2.91277e-06
-2.33171e-09
3.30052e-06
-2.87017e-09
3.68772e-06
-3.5926e-09
4.07335e-06
-4.36971e-09
4.45617e-06
-6.70291e-09
4.84117e-06
-1.36024e-08
5.2424e-06
5.63011e-06
-2.88879e-11
1.94258e-07
-1.15814e-10
5.82773e-07
-2.61637e-10
9.71282e-07
-4.67921e-10
1.35978e-06
-7.36835e-10
1.74825e-06
-1.07151e-09
2.13669e-06
-1.47564e-09
2.52503e-06
-1.94798e-09
2.91325e-06
-2.50232e-09
3.30108e-06
-3.0818e-09
3.6883e-06
-3.83645e-09
4.07411e-06
-4.71926e-09
4.45706e-06
-7.04054e-09
4.84349e-06
-1.38681e-08
5.24923e-06
5.61624e-06
-3.08273e-11
1.94289e-07
-1.23593e-10
5.82865e-07
-2.79206e-10
9.71438e-07
-4.99294e-10
1.36e-06
-7.86097e-10
1.74854e-06
-1.14255e-09
2.13704e-06
-1.57239e-09
2.52546e-06
-2.07295e-09
2.91375e-06
-2.65702e-09
3.30166e-06
-3.27338e-09
3.68891e-06
-4.05688e-09
4.07489e-06
-5.03142e-09
4.45803e-06
-7.34452e-09
4.8458e-06
-1.40542e-08
5.25594e-06
5.60218e-06
-3.26599e-11
1.94322e-07
-1.30943e-10
5.82964e-07
-2.95761e-10
9.71602e-07
-5.28754e-10
1.36023e-06
-8.32151e-10
1.74884e-06
-1.20859e-09
2.13742e-06
-1.66169e-09
2.52591e-06
-2.18761e-09
2.91427e-06
-2.79761e-09
3.30227e-06
-3.44739e-09
3.68956e-06
-4.25784e-09
4.0757e-06
-5.31217e-09
4.45909e-06
-7.62025e-09
4.84811e-06
-1.41818e-08
5.2625e-06
5.588e-06
-3.4387e-11
1.94356e-07
-1.37851e-10
5.83067e-07
-3.11295e-10
9.71776e-07
-5.56314e-10
1.36048e-06
-8.75067e-10
1.74916e-06
-1.26985e-09
2.13781e-06
-1.744e-09
2.52639e-06
-2.29284e-09
2.91482e-06
-2.92576e-09
3.3029e-06
-3.60609e-09
3.69024e-06
-4.44246e-09
4.07654e-06
-5.5664e-09
4.46021e-06
-7.87204e-09
4.85042e-06
-1.42659e-08
5.26889e-06
5.57374e-06
-3.60055e-11
1.94392e-07
-1.44327e-10
5.83175e-07
-3.25826e-10
9.71957e-07
-5.8203e-10
1.36073e-06
-9.14976e-10
1.74949e-06
-1.3266e-09
2.13823e-06
-1.81986e-09
2.52688e-06
-2.3895e-09
2.91539e-06
-3.04298e-09
3.30356e-06
-3.75147e-09
3.69095e-06
-4.61323e-09
4.0774e-06
-5.79811e-09
4.46139e-06
-8.10325e-09
4.85272e-06
-1.43178e-08
5.27511e-06
5.55942e-06
-3.7522e-11
1.9443e-07
-1.50379e-10
5.83288e-07
-3.39391e-10
9.72146e-07
-6.05982e-10
1.361e-06
-9.52044e-10
1.74984e-06
-1.37916e-09
2.13865e-06
-1.88982e-09
2.52739e-06
-2.47844e-09
2.91598e-06
-3.15063e-09
3.30423e-06
-3.88529e-09
3.69169e-06
-4.77212e-09
4.07829e-06
-6.01055e-09
4.46263e-06
-8.31664e-09
4.85503e-06
-1.43453e-08
5.28114e-06
5.54507e-06
-3.89366e-11
1.94469e-07
-1.5603e-10
5.83405e-07
-3.52036e-10
9.72342e-07
-6.28272e-10
1.36128e-06
-9.86461e-10
1.7502e-06
-1.42785e-09
2.13909e-06
-1.95442e-09
2.52792e-06
-2.56046e-09
2.91659e-06
-3.24992e-09
3.30492e-06
-4.00905e-09
3.69245e-06
-4.92073e-09
4.0792e-06
-6.20641e-09
4.46392e-06
-8.51436e-09
4.85734e-06
-1.43545e-08
5.28698e-06
5.53072e-06
-4.02589e-11
1.94509e-07
-1.61296e-10
5.83526e-07
-3.63816e-10
9.72545e-07
-6.49011e-10
1.36156e-06
-1.01842e-09
1.75057e-06
-1.47299e-09
2.13955e-06
-2.01418e-09
2.52846e-06
-2.63629e-09
2.91721e-06
-3.34188e-09
3.30562e-06
-4.12404e-09
3.69323e-06
-5.06033e-09
4.08014e-06
-6.38785e-09
4.46525e-06
-8.69827e-09
4.85965e-06
-1.43494e-08
5.29263e-06
5.51637e-06
-4.14903e-11
1.94551e-07
-1.6621e-10
5.83651e-07
-3.74792e-10
9.72753e-07
-6.68312e-10
1.36185e-06
-1.04813e-09
1.75095e-06
-1.5149e-09
2.14002e-06
-2.06958e-09
2.52901e-06
-2.70659e-09
2.91785e-06
-3.4274e-09
3.30634e-06
-4.23137e-09
3.69403e-06
-5.19196e-09
4.0811e-06
-6.5567e-09
4.46661e-06
-8.8698e-09
4.86196e-06
-1.43333e-08
5.29809e-06
5.50204e-06
-4.26414e-11
1.94593e-07
-1.70789e-10
5.83779e-07
-3.85021e-10
9.72968e-07
-6.86288e-10
1.36216e-06
-1.07577e-09
1.75134e-06
-1.55386e-09
2.14049e-06
-2.12104e-09
2.52958e-06
-2.77195e-09
2.9185e-06
-3.50726e-09
3.30708e-06
-4.33195e-09
3.69486e-06
-5.31645e-09
4.08208e-06
-6.71445e-09
4.46801e-06
-9.03025e-09
4.86428e-06
-1.43083e-08
5.30337e-06
5.48773e-06
-4.37135e-11
1.94637e-07
-1.75065e-10
5.83911e-07
-3.94563e-10
9.73187e-07
-7.0305e-10
1.36246e-06
-1.10153e-09
1.75174e-06
-1.59016e-09
2.14098e-06
-2.16898e-09
2.53016e-06
-2.83291e-09
2.91916e-06
-3.58211e-09
3.30783e-06
-4.42657e-09
3.6957e-06
-5.43451e-09
4.08309e-06
-6.86233e-09
4.46944e-06
-9.18063e-09
4.86659e-06
-1.42763e-08
5.30846e-06
5.47345e-06
-4.47177e-11
1.94682e-07
-1.79056e-10
5.84045e-07
-4.03474e-10
9.73412e-07
-7.187e-10
1.36278e-06
-1.12556e-09
1.75214e-06
-1.62404e-09
2.14148e-06
-2.21374e-09
2.53075e-06
-2.88993e-09
2.91984e-06
-3.65251e-09
3.30859e-06
-4.5159e-09
3.69657e-06
-5.5467e-09
4.08412e-06
-7.00138e-09
4.47089e-06
-9.32185e-09
4.86891e-06
-1.42383e-08
5.31338e-06
5.45921e-06
-4.56544e-11
1.94727e-07
-1.82791e-10
5.84182e-07
-4.11807e-10
9.73641e-07
-7.33334e-10
1.3631e-06
-1.14804e-09
1.75256e-06
-1.65572e-09
2.14199e-06
-2.25564e-09
2.53135e-06
-2.94341e-09
2.92052e-06
-3.71893e-09
3.30937e-06
-4.60047e-09
3.69745e-06
-5.65352e-09
4.08517e-06
-7.13246e-09
4.47237e-06
-9.45461e-09
4.87124e-06
-1.41953e-08
5.31812e-06
5.44502e-06
-4.65343e-11
1.94774e-07
-1.86286e-10
5.84322e-07
-4.1961e-10
9.73874e-07
-7.4704e-10
1.36343e-06
-1.16909e-09
1.75298e-06
-1.68541e-09
2.1425e-06
-2.29494e-09
2.53196e-06
-2.99371e-09
2.92122e-06
-3.78177e-09
3.31016e-06
-4.68076e-09
3.69835e-06
-5.75536e-09
4.08625e-06
-7.25628e-09
4.47387e-06
-9.5796e-09
4.87356e-06
-1.41477e-08
5.32269e-06
5.43087e-06
-4.73566e-11
1.94821e-07
-1.89567e-10
5.84464e-07
-4.2693e-10
9.74111e-07
-7.59898e-10
1.36376e-06
-1.18885e-09
1.75341e-06
-1.71329e-09
2.14303e-06
-2.33191e-09
2.53258e-06
-3.04113e-09
2.92193e-06
-3.84138e-09
3.31096e-06
-4.75715e-09
3.69926e-06
-5.85256e-09
4.08734e-06
-7.37346e-09
4.47539e-06
-9.69731e-09
4.87588e-06
-1.40964e-08
5.32709e-06
5.41677e-06
-4.81318e-11
1.94869e-07
-1.92645e-10
5.84609e-07
-4.33804e-10
9.74352e-07
-7.71979e-10
1.3641e-06
-1.20742e-09
1.75384e-06
-1.73952e-09
2.14356e-06
-2.36674e-09
2.53321e-06
-3.08594e-09
2.92265e-06
-3.89804e-09
3.31177e-06
-4.82997e-09
3.70019e-06
-5.94542e-09
4.08846e-06
-7.48451e-09
4.47693e-06
-9.80825e-09
4.87821e-06
-1.40413e-08
5.33132e-06
5.40273e-06
-4.88579e-11
1.94918e-07
-1.95543e-10
5.84755e-07
-4.40272e-10
9.74597e-07
-7.83348e-10
1.36444e-06
-1.22491e-09
1.75428e-06
-1.76423e-09
2.1441e-06
-2.39962e-09
2.53384e-06
-3.12837e-09
2.92338e-06
-3.952e-09
3.31259e-06
-4.89948e-09
3.70114e-06
-6.03418e-09
4.08959e-06
-7.58987e-09
4.47849e-06
-9.91278e-09
4.88053e-06
-1.39829e-08
5.33539e-06
5.38875e-06
-4.95445e-11
1.94968e-07
-1.98269e-10
5.84904e-07
-4.46364e-10
9.74845e-07
-7.94061e-10
1.36479e-06
-1.24139e-09
1.75473e-06
-1.78755e-09
2.14465e-06
-2.43072e-09
2.53448e-06
-3.16861e-09
2.92412e-06
-4.00345e-09
3.31343e-06
-4.96592e-09
3.7021e-06
-6.11904e-09
4.09075e-06
-7.6899e-09
4.48006e-06
-1.00113e-08
4.88285e-06
-1.39211e-08
5.3393e-06
5.37483e-06
-5.01887e-11
1.95018e-07
-2.00843e-10
5.85055e-07
-4.5211e-10
9.75097e-07
-8.0417e-10
1.36514e-06
-1.25696e-09
1.75518e-06
-1.80959e-09
2.1452e-06
-2.46016e-09
2.53513e-06
-3.20683e-09
2.92486e-06
-4.05257e-09
3.31427e-06
-5.02946e-09
3.70308e-06
-6.20021e-09
4.09192e-06
-7.78493e-09
4.48164e-06
-1.0104e-08
4.88517e-06
-1.38564e-08
5.34305e-06
5.36097e-06
-5.08002e-11
1.95069e-07
-2.03269e-10
5.85207e-07
-4.57535e-10
9.75351e-07
-8.13719e-10
1.3655e-06
-1.27167e-09
1.75564e-06
-1.83044e-09
2.14576e-06
-2.48808e-09
2.53579e-06
-3.24318e-09
2.92562e-06
-4.09951e-09
3.31513e-06
-5.09028e-09
3.70407e-06
-6.27782e-09
4.0931e-06
-7.87522e-09
4.48324e-06
-1.01913e-08
4.88749e-06
-1.37886e-08
5.34665e-06
5.34718e-06
-5.13744e-11
1.9512e-07
-2.05565e-10
5.85361e-07
-4.62663e-10
9.75608e-07
-8.22746e-10
1.36586e-06
-1.28558e-09
1.75611e-06
-1.85018e-09
2.14632e-06
-2.51457e-09
2.53646e-06
-3.27779e-09
2.92638e-06
-4.1444e-09
3.31599e-06
-5.1485e-09
3.70508e-06
-6.35204e-09
4.09431e-06
-7.96103e-09
4.48485e-06
-1.02732e-08
4.8898e-06
-1.3718e-08
5.3501e-06
5.33347e-06
-5.19207e-11
1.95172e-07
-2.07732e-10
5.85517e-07
-4.67512e-10
9.75868e-07
-8.31286e-10
1.36622e-06
-1.29875e-09
1.75657e-06
-1.86889e-09
2.14689e-06
-2.53973e-09
2.53713e-06
-3.31075e-09
2.92715e-06
-4.18732e-09
3.31687e-06
-5.20424e-09
3.70609e-06
-6.42297e-09
4.09553e-06
-8.04254e-09
4.48647e-06
-1.03502e-08
4.89211e-06
-1.36443e-08
5.35339e-06
5.31982e-06
-5.24337e-11
1.95224e-07
-2.09787e-10
5.85675e-07
-4.72101e-10
9.7613e-07
-8.39371e-10
1.36659e-06
-1.31123e-09
1.75705e-06
-1.88662e-09
2.14747e-06
-2.56364e-09
2.5378e-06
-3.34216e-09
2.92793e-06
-4.22839e-09
3.31776e-06
-5.2576e-09
3.70712e-06
-6.49073e-09
4.09676e-06
-8.11994e-09
4.4881e-06
-1.04222e-08
4.89441e-06
-1.35679e-08
5.35654e-06
5.30625e-06
-5.29231e-11
1.95277e-07
-2.11726e-10
5.85833e-07
-4.76444e-10
9.76395e-07
-8.47025e-10
1.36696e-06
-1.32305e-09
1.75752e-06
-1.90344e-09
2.14805e-06
-2.58635e-09
2.53849e-06
-3.3721e-09
2.92872e-06
-4.26766e-09
3.31865e-06
-5.30865e-09
3.70816e-06
-6.55542e-09
4.09801e-06
-8.19339e-09
4.48974e-06
-1.04896e-08
4.89671e-06
-1.34887e-08
5.35954e-06
5.29276e-06
-5.33824e-11
1.95331e-07
-2.13567e-10
5.85994e-07
-4.80556e-10
9.76662e-07
-8.54272e-10
1.36733e-06
-1.33425e-09
1.758e-06
-1.91938e-09
2.14863e-06
-2.60794e-09
2.53918e-06
-3.40065e-09
2.92951e-06
-4.30521e-09
3.31956e-06
-5.35748e-09
3.70922e-06
-6.61712e-09
4.09927e-06
-8.26304e-09
4.49138e-06
-1.05523e-08
4.89899e-06
-1.34068e-08
5.36239e-06
5.27936e-06
-5.3821e-11
1.95385e-07
-2.15304e-10
5.86155e-07
-4.84448e-10
9.76931e-07
-8.61133e-10
1.36771e-06
-1.34485e-09
1.75848e-06
-1.9345e-09
2.14922e-06
-2.62846e-09
2.53987e-06
-3.42784e-09
2.93031e-06
-4.3411e-09
3.32047e-06
-5.40414e-09
3.71028e-06
-6.67591e-09
4.10054e-06
-8.329e-09
4.49304e-06
-1.06106e-08
4.90128e-06
-1.3322e-08
5.3651e-06
5.26604e-06
-5.42316e-11
1.95439e-07
-2.16952e-10
5.86318e-07
-4.8813e-10
9.77202e-07
-8.67627e-10
1.36809e-06
-1.3549e-09
1.75897e-06
-1.94884e-09
2.14982e-06
-2.64794e-09
2.54057e-06
-3.45375e-09
2.93112e-06
-4.37537e-09
3.32139e-06
-5.44869e-09
3.71135e-06
-6.73188e-09
4.10182e-06
-8.3914e-09
4.4947e-06
-1.06646e-08
4.90355e-06
-1.32348e-08
5.36767e-06
5.2528e-06
-5.46245e-11
1.95493e-07
-2.18506e-10
5.86482e-07
-4.91612e-10
9.77475e-07
-8.73769e-10
1.36847e-06
-1.3644e-09
1.75946e-06
-1.96241e-09
2.15042e-06
-2.66644e-09
2.54127e-06
-3.47841e-09
2.93193e-06
-4.40806e-09
3.32232e-06
-5.49119e-09
3.71243e-06
-6.7851e-09
4.10311e-06
-8.45033e-09
4.49636e-06
-1.07143e-08
4.90581e-06
-1.31448e-08
5.3701e-06
5.23966e-06
-5.49912e-11
1.95548e-07
-2.1998e-10
5.86647e-07
-4.94904e-10
9.7775e-07
-8.79573e-10
1.36886e-06
-1.37338e-09
1.75996e-06
-1.97526e-09
2.15102e-06
-2.68398e-09
2.54198e-06
-3.50186e-09
2.93275e-06
-4.43923e-09
3.32326e-06
-5.53167e-09
3.71353e-06
-6.83562e-09
4.10442e-06
-8.50591e-09
4.49803e-06
-1.076e-08
4.90807e-06
-1.30524e-08
5.37239e-06
5.2266e-06
-5.53419e-11
1.95604e-07
-2.21365e-10
5.86813e-07
-4.9801e-10
9.78027e-07
-8.85053e-10
1.36924e-06
-1.38187e-09
1.76045e-06
-1.98741e-09
2.15162e-06
-2.70061e-09
2.54269e-06
-3.52415e-09
2.93357e-06
-4.46889e-09
3.3242e-06
-5.57017e-09
3.71463e-06
-6.88351e-09
4.10573e-06
-8.55821e-09
4.49971e-06
-1.08016e-08
4.91031e-06
-1.29574e-08
5.37455e-06
5.21365e-06
-5.56678e-11
1.95659e-07
-2.22677e-10
5.8698e-07
-5.0094e-10
9.78305e-07
-8.90221e-10
1.36963e-06
-1.38988e-09
1.76095e-06
-1.99888e-09
2.15223e-06
-2.71634e-09
2.54341e-06
-3.54529e-09
2.9344e-06
-4.49709e-09
3.32516e-06
-5.60675e-09
3.71574e-06
-6.92884e-09
4.10705e-06
-8.60734e-09
4.50138e-06
-1.08393e-08
4.91254e-06
-1.28602e-08
5.37657e-06
5.20079e-06
-5.59798e-11
1.95715e-07
-2.23907e-10
5.87148e-07
-5.03698e-10
9.78585e-07
-8.95088e-10
1.37002e-06
-1.39742e-09
1.76146e-06
-2.0097e-09
2.15284e-06
-2.73121e-09
2.54413e-06
-3.56533e-09
2.93523e-06
-4.52386e-09
3.32612e-06
-5.64145e-09
3.71686e-06
-6.97165e-09
4.10838e-06
-8.65335e-09
4.50307e-06
-1.08733e-08
4.91476e-06
-1.27604e-08
5.37846e-06
5.18803e-06
-5.62681e-11
1.95772e-07
-2.25069e-10
5.87316e-07
-5.06292e-10
9.78866e-07
-8.99662e-10
1.37042e-06
-1.40451e-09
1.76196e-06
-2.01989e-09
2.15346e-06
-2.74525e-09
2.54486e-06
-3.5843e-09
2.93607e-06
-4.54923e-09
3.32708e-06
-5.67428e-09
3.71798e-06
-7.01202e-09
4.10972e-06
-8.69635e-09
4.50475e-06
-1.09034e-08
4.91697e-06
-1.26586e-08
5.38021e-06
5.17537e-06
-5.65437e-11
1.95828e-07
-2.26153e-10
5.87486e-07
-5.08724e-10
9.79149e-07
-9.03954e-10
1.37081e-06
-1.41117e-09
1.76247e-06
-2.02946e-09
2.15408e-06
-2.75847e-09
2.54559e-06
-3.60221e-09
2.93692e-06
-4.57323e-09
3.32805e-06
-5.70531e-09
3.71911e-06
-7.05e-09
4.11107e-06
-8.7364e-09
4.50644e-06
-1.093e-08
4.91916e-06
-1.25545e-08
5.38184e-06
5.16281e-06
-5.67962e-11
1.95885e-07
-2.27175e-10
5.87656e-07
-5.11002e-10
9.79433e-07
-9.07973e-10
1.37121e-06
-1.4174e-09
1.76298e-06
-2.03844e-09
2.1547e-06
-2.7709e-09
2.54632e-06
-3.6191e-09
2.93776e-06
-4.59588e-09
3.32903e-06
-5.73456e-09
3.72025e-06
-7.08563e-09
4.11242e-06
-8.77359e-09
4.50812e-06
-1.0953e-08
4.92134e-06
-1.24485e-08
5.38333e-06
5.15036e-06
-5.7038e-11
1.95942e-07
-2.28122e-10
5.87827e-07
-5.13128e-10
9.79718e-07
-9.11725e-10
1.37161e-06
-1.42323e-09
1.76349e-06
-2.04685e-09
2.15532e-06
-2.78257e-09
2.54706e-06
-3.63498e-09
2.93862e-06
-4.61722e-09
3.33001e-06
-5.76208e-09
3.7214e-06
-7.119e-09
4.11378e-06
-8.80797e-09
4.50981e-06
-1.09725e-08
4.92351e-06
-1.23403e-08
5.3847e-06
5.13802e-06
-5.72573e-11
1.95999e-07
-2.29012e-10
5.87999e-07
-5.15109e-10
9.80004e-07
-9.1522e-10
1.37201e-06
-1.42866e-09
1.764e-06
-2.05469e-09
2.15595e-06
-2.79348e-09
2.5478e-06
-3.64989e-09
2.93947e-06
-4.63727e-09
3.331e-06
-5.7879e-09
3.72255e-06
-7.15014e-09
4.11514e-06
-8.83966e-09
4.5115e-06
-1.09887e-08
4.92566e-06
-1.22304e-08
5.38594e-06
5.12579e-06
-5.74668e-11
1.96057e-07
-2.29829e-10
5.88172e-07
-5.16947e-10
9.80291e-07
-9.18463e-10
1.37241e-06
-1.43371e-09
1.76452e-06
-2.06199e-09
2.15658e-06
-2.80367e-09
2.54854e-06
-3.66385e-09
2.94033e-06
-4.65607e-09
3.33199e-06
-5.81206e-09
3.7237e-06
-7.17913e-09
4.1165e-06
-8.86867e-09
4.51319e-06
-1.10016e-08
4.92779e-06
-1.21186e-08
5.38706e-06
5.11367e-06
-5.76541e-11
1.96114e-07
-2.30594e-10
5.88345e-07
-5.18646e-10
9.80579e-07
-9.21463e-10
1.37281e-06
-1.43838e-09
1.76503e-06
-2.06877e-09
2.15721e-06
-2.81316e-09
2.54928e-06
-3.67689e-09
2.9412e-06
-4.67365e-09
3.33299e-06
-5.83462e-09
3.72486e-06
-7.20601e-09
4.11788e-06
-8.89515e-09
4.51488e-06
-1.10112e-08
4.92991e-06
-1.20054e-08
5.38805e-06
5.10167e-06
-5.78332e-11
1.96172e-07
-2.31289e-10
5.88518e-07
-5.2021e-10
9.80868e-07
-9.24225e-10
1.37322e-06
-1.44268e-09
1.76555e-06
-2.07503e-09
2.15784e-06
-2.82196e-09
2.55003e-06
-3.68902e-09
2.94206e-06
-4.69004e-09
3.33399e-06
-5.8556e-09
3.72603e-06
-7.23086e-09
4.11925e-06
-8.91911e-09
4.51657e-06
-1.10178e-08
4.932e-06
-1.18903e-08
5.38893e-06
5.08978e-06
-5.79904e-11
1.9623e-07
-2.31933e-10
5.88692e-07
-5.21642e-10
9.81158e-07
-9.26756e-10
1.37362e-06
-1.44663e-09
1.76607e-06
-2.08079e-09
2.15847e-06
-2.83009e-09
2.55078e-06
-3.70028e-09
2.94293e-06
-4.70527e-09
3.33499e-06
-5.87507e-09
3.7272e-06
-7.25374e-09
4.12063e-06
-8.9407e-09
4.51826e-06
-1.10214e-08
4.93409e-06
-1.17741e-08
5.38968e-06
5.07801e-06
-5.814e-11
1.96288e-07
-2.3251e-10
5.88866e-07
-5.22943e-10
9.81448e-07
-9.29058e-10
1.37403e-06
-1.45024e-09
1.76659e-06
-2.08606e-09
2.15911e-06
-2.83757e-09
2.55153e-06
-3.71069e-09
2.94381e-06
-4.71938e-09
3.336e-06
-5.89306e-09
3.72837e-06
-7.27473e-09
4.12201e-06
-8.95993e-09
4.51994e-06
-1.10221e-08
4.93615e-06
-1.16563e-08
5.39031e-06
5.06635e-06
-5.82675e-11
1.96347e-07
-2.33038e-10
5.89041e-07
-5.24117e-10
9.81739e-07
-9.31139e-10
1.37444e-06
-1.4535e-09
1.76712e-06
-2.09086e-09
2.15975e-06
-2.84443e-09
2.55228e-06
-3.72028e-09
2.94468e-06
-4.7324e-09
3.33701e-06
-5.90964e-09
3.72955e-06
-7.29389e-09
4.1234e-06
-8.97697e-09
4.52163e-06
-1.10199e-08
4.93819e-06
-1.15377e-08
5.39083e-06
5.05481e-06
-5.83883e-11
1.96405e-07
-2.335e-10
5.89216e-07
-5.25163e-10
9.82031e-07
-9.32998e-10
1.37484e-06
-1.45643e-09
1.76764e-06
-2.09521e-09
2.16039e-06
-2.85067e-09
2.55304e-06
-3.72907e-09
2.94556e-06
-4.74439e-09
3.33803e-06
-5.92486e-09
3.73073e-06
-7.31131e-09
4.12478e-06
-8.99184e-09
4.52331e-06
-1.10152e-08
4.94021e-06
-1.14177e-08
5.39123e-06
5.04339e-06
-5.84868e-11
1.96464e-07
-2.33913e-10
5.89392e-07
-5.26083e-10
9.82323e-07
-9.34639e-10
1.37525e-06
-1.45904e-09
1.76816e-06
-2.09909e-09
2.16103e-06
-2.85632e-09
2.5538e-06
-3.73709e-09
2.94644e-06
-4.75537e-09
3.33905e-06
-5.93878e-09
3.73191e-06
-7.32706e-09
4.12617e-06
-9.00471e-09
4.52498e-06
-1.10078e-08
4.94222e-06
-1.12972e-08
5.39152e-06
5.0321e-06
-5.8578e-11
1.96522e-07
-2.34259e-10
5.89567e-07
-5.26873e-10
9.82616e-07
-9.36059e-10
1.37566e-06
-1.46131e-09
1.76869e-06
-2.10253e-09
2.16167e-06
-2.86139e-09
2.55455e-06
-3.74437e-09
2.94733e-06
-4.76539e-09
3.34007e-06
-5.95147e-09
3.7331e-06
-7.34125e-09
4.12756e-06
-9.01563e-09
4.52666e-06
-1.09981e-08
4.9442e-06
-1.11757e-08
5.3917e-06
5.02092e-06
-5.86459e-11
1.96581e-07
-2.34553e-10
5.89743e-07
-5.27532e-10
9.82909e-07
-9.37255e-10
1.37607e-06
-1.46326e-09
1.76922e-06
-2.10553e-09
2.16231e-06
-2.86588e-09
2.55532e-06
-3.75093e-09
2.94821e-06
-4.7745e-09
3.34109e-06
-5.963e-09
3.73429e-06
-7.35397e-09
4.12895e-06
-9.0248e-09
4.52833e-06
-1.09861e-08
4.94616e-06
-1.10539e-08
5.39177e-06
5.00987e-06
-5.87054e-11
1.96639e-07
-2.34775e-10
5.89919e-07
-5.28052e-10
9.83202e-07
-9.38219e-10
1.37648e-06
-1.46486e-09
1.76974e-06
-2.10807e-09
2.16295e-06
-2.86981e-09
2.55608e-06
-3.75679e-09
2.9491e-06
-4.78274e-09
3.34212e-06
-5.97345e-09
3.73548e-06
-7.36535e-09
4.13034e-06
-9.03231e-09
4.53e-06
-1.0972e-08
4.9481e-06
-1.09315e-08
5.39173e-06
4.99893e-06
-5.874e-11
1.96698e-07
-2.34937e-10
5.90096e-07
-5.28427e-10
9.83495e-07
-9.38937e-10
1.37689e-06
-1.46611e-09
1.77027e-06
-2.11015e-09
2.1636e-06
-2.87317e-09
2.55684e-06
-3.76196e-09
2.94999e-06
-4.79016e-09
3.34315e-06
-5.9829e-09
3.73667e-06
-7.37552e-09
4.13174e-06
-9.03838e-09
4.53166e-06
-1.0956e-08
4.95002e-06
-1.08094e-08
5.39158e-06
4.98813e-06
-5.87625e-11
1.96757e-07
-2.35017e-10
5.90272e-07
-5.28642e-10
9.83789e-07
-9.39391e-10
1.3773e-06
-1.46699e-09
1.7708e-06
-2.11175e-09
2.16424e-06
-2.87595e-09
2.5576e-06
-3.76646e-09
2.95088e-06
-4.7968e-09
3.34418e-06
-5.99146e-09
3.73787e-06
-7.38463e-09
4.13313e-06
-9.04316e-09
4.53332e-06
-1.09385e-08
4.95191e-06
-1.06873e-08
5.39133e-06
4.97744e-06
-5.8757e-11
1.96816e-07
-2.35022e-10
5.90448e-07
-5.28681e-10
9.84083e-07
-9.39553e-10
1.37771e-06
-1.46745e-09
1.77132e-06
-2.11282e-09
2.16489e-06
-2.87811e-09
2.55837e-06
-3.77028e-09
2.95177e-06
-4.8027e-09
3.34521e-06
-5.99921e-09
3.73906e-06
-7.39285e-09
4.13452e-06
-9.04697e-09
4.53497e-06
-1.09196e-08
4.95379e-06
-1.0566e-08
5.39098e-06
4.96687e-06
-5.87337e-11
1.96874e-07
-2.34927e-10
5.90624e-07
-5.28519e-10
9.84376e-07
-9.39386e-10
1.37812e-06
-1.46745e-09
1.77185e-06
-2.11332e-09
2.16553e-06
-2.87961e-09
2.55914e-06
-3.77339e-09
2.95266e-06
-4.80789e-09
3.34624e-06
-6.00628e-09
3.74026e-06
-7.4004e-09
4.13592e-06
-9.05004e-09
4.53662e-06
-1.08998e-08
4.95563e-06
-1.04457e-08
5.39052e-06
4.95643e-06
-5.86767e-11
1.96933e-07
-2.34729e-10
5.90801e-07
-5.28127e-10
9.8467e-07
-9.38839e-10
1.37854e-06
-1.46692e-09
1.77238e-06
-2.11315e-09
2.16618e-06
-2.88037e-09
2.5599e-06
-3.77574e-09
2.95356e-06
-4.81237e-09
3.34728e-06
-6.01276e-09
3.74146e-06
-7.40752e-09
4.13731e-06
-9.05282e-09
4.53827e-06
-1.08796e-08
4.95746e-06
-1.03273e-08
5.38997e-06
4.9461e-06
-5.85921e-11
1.96992e-07
-2.34401e-10
5.90976e-07
-5.27464e-10
9.84963e-07
-9.37849e-10
1.37895e-06
-1.46577e-09
1.77291e-06
-2.11222e-09
2.16683e-06
-2.88028e-09
2.56067e-06
-3.77726e-09
2.95446e-06
-4.81613e-09
3.34832e-06
-6.01876e-09
3.74266e-06
-7.41447e-09
4.13871e-06
-9.0557e-09
4.53991e-06
-1.08595e-08
4.95927e-06
-1.02115e-08
5.38932e-06
4.93589e-06
-5.84652e-11
1.9705e-07
-2.33927e-10
5.91152e-07
-5.26483e-10
9.85256e-07
-9.3633e-10
1.37936e-06
-1.46387e-09
1.77344e-06
-2.11037e-09
2.16747e-06
-2.87917e-09
2.56144e-06
-3.77778e-09
2.95535e-06
-4.8191e-09
3.34936e-06
-6.02437e-09
3.74387e-06
-7.42158e-09
4.1401e-06
-9.05934e-09
4.54154e-06
-1.08407e-08
4.96105e-06
-1.00997e-08
5.38858e-06
4.92579e-06
-5.82961e-11
1.97109e-07
-2.33275e-10
5.91327e-07
-5.25122e-10
9.85547e-07
-9.3418e-10
1.37976e-06
-1.46108e-09
1.77396e-06
-2.10739e-09
2.16812e-06
-2.87681e-09
2.56221e-06
-3.7771e-09
2.95625e-06
-4.82115e-09
3.3504e-06
-6.02963e-09
3.74508e-06
-7.42918e-09
4.1415e-06
-9.06442e-09
4.54318e-06
-1.08239e-08
4.96281e-06
-9.9933e-09
5.38775e-06
4.91579e-06
-5.80712e-11
1.97167e-07
-2.32415e-10
5.91501e-07
-5.23306e-10
9.85838e-07
-9.31269e-10
1.38017e-06
-1.4572e-09
1.77449e-06
-2.10303e-09
2.16876e-06
-2.87289e-09
2.56298e-06
-3.77488e-09
2.95716e-06
-4.82202e-09
3.35145e-06
-6.03451e-09
3.74629e-06
-7.43765e-09
4.14291e-06
-9.07192e-09
4.54481e-06
-1.0811e-08
4.96454e-06
-9.89496e-09
5.38683e-06
4.9059e-06
-5.77838e-11
1.97224e-07
-2.31308e-10
5.91675e-07
-5.2095e-10
9.86128e-07
-9.27441e-10
1.38058e-06
-1.45199e-09
1.77501e-06
-2.09695e-09
2.16941e-06
-2.86698e-09
2.56375e-06
-3.77067e-09
2.95806e-06
-4.82131e-09
3.3525e-06
-6.03883e-09
3.74751e-06
-7.44729e-09
4.14431e-06
-9.08291e-09
4.54645e-06
-1.08038e-08
4.96626e-06
-9.80826e-09
5.38584e-06
4.89609e-06
-5.74232e-11
1.97282e-07
-2.29903e-10
5.91847e-07
-5.17949e-10
9.86416e-07
-9.2251e-10
1.38098e-06
-1.44515e-09
1.77554e-06
-2.08873e-09
2.17005e-06
-2.85853e-09
2.56452e-06
-3.7638e-09
2.95896e-06
-4.81836e-09
3.35356e-06
-6.04217e-09
3.74873e-06
-7.45833e-09
4.14573e-06
-9.09875e-09
4.54809e-06
-1.08054e-08
4.96797e-06
-9.73807e-09
5.38477e-06
4.88635e-06
-5.69723e-11
1.97339e-07
-2.28164e-10
5.92018e-07
-5.1419e-10
9.86702e-07
-9.16267e-10
1.38139e-06
-1.43634e-09
1.77606e-06
-2.07785e-09
2.17069e-06
-2.84682e-09
2.56529e-06
-3.75338e-09
2.95987e-06
-4.81219e-09
3.35461e-06
-6.04374e-09
3.74996e-06
-7.47068e-09
4.14716e-06
-9.12104e-09
4.54974e-06
-1.08199e-08
4.96967e-06
-9.69402e-09
5.38364e-06
4.87666e-06
-5.6426e-11
1.97395e-07
-2.26016e-10
5.92188e-07
-5.09545e-10
9.86986e-07
-9.0847e-10
1.38178e-06
-1.42516e-09
1.77657e-06
-2.0637e-09
2.17133e-06
-2.83097e-09
2.56605e-06
-3.73822e-09
2.96078e-06
-4.80137e-09
3.35568e-06
-6.04215e-09
3.7512e-06
-7.48363e-09
4.1486e-06
-9.15084e-09
4.55141e-06
-1.08514e-08
4.97137e-06
-9.68477e-09
5.38248e-06
4.86697e-06
-5.5756e-11
1.97451e-07
-2.23429e-10
5.92356e-07
-5.0388e-10
9.87266e-07
-8.98863e-10
1.38218e-06
-1.41117e-09
1.77709e-06
-2.04556e-09
2.17197e-06
-2.80989e-09
2.56682e-06
-3.71677e-09
2.96168e-06
-4.78385e-09
3.35674e-06
-6.03515e-09
3.75245e-06
-7.49566e-09
4.15006e-06
-9.19046e-09
4.5531e-06
-1.09113e-08
4.97309e-06
-9.73977e-09
5.3813e-06
4.85723e-06
-5.49611e-11
1.97506e-07
-2.20309e-10
5.92521e-07
-4.9705e-10
9.87543e-07
-8.87179e-10
1.38257e-06
-1.39389e-09
1.77759e-06
-2.02263e-09
2.1726e-06
-2.78231e-09
2.56758e-06
-3.6871e-09
2.96259e-06
-4.75682e-09
3.35781e-06
-6.01911e-09
3.75372e-06
-7.50246e-09
4.15154e-06
-9.23597e-09
4.55483e-06
-1.0993e-08
4.97485e-06
-9.87197e-09
5.38018e-06
4.84736e-06
-5.39904e-11
1.9756e-07
-2.16644e-10
5.92684e-07
-4.88924e-10
9.87815e-07
-8.73158e-10
1.38295e-06
-1.37285e-09
1.77809e-06
-1.9941e-09
2.17322e-06
-2.74684e-09
2.56833e-06
-3.64696e-09
2.96349e-06
-4.71671e-09
3.35888e-06
-5.98945e-09
3.75499e-06
-7.49968e-09
4.15305e-06
-9.29654e-09
4.55663e-06
-1.11581e-08
4.97671e-06
-1.02002e-08
5.37922e-06
4.83716e-06
-5.28337e-11
1.97613e-07
-2.12358e-10
5.92843e-07
-4.79338e-10
9.88082e-07
-8.5653e-10
1.38333e-06
-1.34747e-09
1.77858e-06
-1.95899e-09
2.17383e-06
-2.70157e-09
2.56907e-06
-3.59323e-09
2.96438e-06
-4.65734e-09
3.35995e-06
-5.93571e-09
3.75627e-06
-7.46365e-09
4.15458e-06
-9.31762e-09
4.55848e-06
-1.12148e-08
4.9786e-06
-1.05817e-08
5.37859e-06
4.82658e-06
-5.14356e-11
1.97664e-07
-2.07443e-10
5.92999e-07
-4.6848e-10
9.88343e-07
-8.37541e-10
1.3837e-06
-1.31829e-09
1.77906e-06
-1.91788e-09
2.17443e-06
-2.64756e-09
2.5698e-06
-3.52709e-09
2.96526e-06
-4.58135e-09
3.361e-06
-5.8649e-09
3.75755e-06
-7.42122e-09
4.15613e-06
-9.43526e-09
4.56049e-06
-1.18442e-08
4.98101e-06
-1.19174e-08
5.37866e-06
4.81466e-06
-2.31927e-10
1.97896e-07
-9.33088e-10
5.937e-07
-2.10997e-09
9.8952e-07
-3.77368e-09
1.38536e-06
-5.94041e-09
1.78123e-06
-8.64456e-09
2.17713e-06
-1.19342e-08
2.57309e-06
-1.58925e-08
2.96922e-06
-2.06368e-08
3.36574e-06
-2.63244e-08
3.76324e-06
-3.31932e-08
4.163e-06
-4.14501e-08
4.56875e-06
-4.95083e-08
4.98906e-06
-2.24289e-08
5.35158e-06
4.62328e-06
1.68936e-07
-1.82876e-10
1.98079e-07
-7.26128e-10
5.94243e-07
-1.62773e-09
9.90421e-07
-2.88687e-09
1.38662e-06
-4.50075e-09
1.78284e-06
-6.47214e-09
2.1791e-06
-8.80277e-09
2.57542e-06
-1.15038e-08
2.97191e-06
-1.45767e-08
3.36882e-06
-1.80158e-08
3.76667e-06
-2.17212e-08
4.1667e-06