/*--------------------------------*- C++ -*----------------------------------*\
  =========                 |
  \\      /  F ield         | OpenFOAM: The Open Source CFD Toolbox
   \\    /   O peration     | Website:  https://openfoam.org
    \\  /    A nd           | Version:  7
     \\/     M anipulation  |
\*---------------------------------------------------------------------------*/
FoamFile
{
    version     2.0;
    format      ascii;
    class       volVectorField;
    location    "400";
    object      U;
}
// * * * * * * * * * * * * * * * * * * * * * * * * * * * * * * * * * * * * * //

dimensions      [0 1 -1 0 0 0 0];

internalField   nonuniform List<vector> 
32100
(
(-3.12048e-06 -2.83471e-18 1.6)
(-7.07008e-06 9.64598e-17 1.6)
(-1.09086e-05 4.18547e-16 1.6)
(-1.4195e-05 -1.49514e-17 1.6)
(-1.61752e-05 -1.73422e-18 1.6)
(-1.58424e-05 7.97608e-18 1.6)
(-1.13342e-05 2.39097e-16 1.6)
(1.09058e-06 -1.85372e-16 1.6)
(3.02316e-05 -4.521e-17 1.59999)
(9.49049e-05 7.71853e-18 1.59999)
(0.000237624 1.4283e-16 1.59998)
(0.000895763 -1.29271e-16 1.59993)
(0.00345332 -2.72919e-17 1.59832)
(-0.00877672 2.37438e-17 1.5995)
(0.068534 -1.61219e-16 1.60054)
(-9.11315e-06 -1.07149e-17 1.60001)
(-2.13513e-05 7.53358e-16 1.60001)
(-3.3046e-05 8.4657e-16 1.60001)
(-4.31743e-05 -4.22715e-16 1.60001)
(-4.95053e-05 -1.44333e-17 1.60001)
(-4.92168e-05 -3.38075e-17 1.6)
(-3.70443e-05 -6.62556e-16 1.59999)
(-2.95312e-06 -4.06707e-16 1.59998)
(7.54562e-05 -7.66977e-16 1.59994)
(0.000256235 4.14021e-17 1.59985)
(0.000584907 3.33346e-16 1.59967)
(0.00109568 -9.43331e-16 1.59924)
(0.0086792 -1.1234e-15 1.59336)
(-0.0204856 -2.5435e-16 1.59631)
(0.0818804 -9.0008e-16 1.60944)
(-1.52045e-05 -3.02517e-16 1.60004)
(-3.62717e-05 -1.20037e-15 1.60004)
(-5.63052e-05 5.58568e-15 1.60003)
(-7.4135e-05 1.22089e-15 1.60003)
(-8.62403e-05 4.6396e-17 1.60002)
(-8.8647e-05 -6.95572e-17 1.60001)
(-7.40363e-05 -7.97645e-16 1.59998)
(-2.93606e-05 -1.56538e-15 1.59993)
(6.78908e-05 -5.25527e-16 1.59984)
(0.000284468 -9.37702e-17 1.59963)
(0.000771287 -1.13444e-16 1.59909)
(-5.23805e-05 3.71398e-16 1.59849)
(0.011745 2.34239e-16 1.59004)
(-0.0260669 -1.07303e-15 1.59236)
(0.0716043 3.69434e-16 1.61813)
(-2.16679e-05 -1.77498e-16 1.60008)
(-5.23204e-05 -1.36398e-15 1.60007)
(-8.15608e-05 2.98499e-16 1.60007)
(-0.000108552 1.60898e-15 1.60006)
(-0.000128824 1.02437e-16 1.60004)
(-0.000138209 -7.36958e-17 1.60002)
(-0.000129318 -1.22745e-16 1.59997)
(-8.92289e-05 3.13769e-16 1.59988)
(-2.6364e-06 6.09542e-16 1.59972)
(0.000147463 3.51436e-16 1.59941)
(0.000890589 -1.96235e-16 1.59852)
(-0.00157577 2.49611e-16 1.59794)
(0.0129571 1.14198e-15 1.58907)
(-0.0278669 2.9109e-16 1.58925)
(0.059635 -1.76571e-16 1.62303)
(-2.8618e-05 -1.28421e-17 1.60013)
(-6.97442e-05 2.7e-16 1.60012)
(-0.000109289 9.83689e-16 1.60012)
(-0.000147165 5.77349e-16 1.6001)
(-0.000178292 9.54648e-17 1.60008)
(-0.000199083 -1.03973e-16 1.60004)
(-0.000203567 -9.34608e-16 1.59997)
(-0.000181044 -4.09006e-16 1.59985)
(-0.000113316 5.7433e-16 1.59964)
(-0.000107063 4.78918e-16 1.59928)
(0.000976461 7.14977e-17 1.59813)
(-0.00290348 -3.11705e-16 1.59752)
(0.0129783 -2.90314e-16 1.58938)
(-0.0279438 -1.484e-16 1.58751)
(0.0495488 -1.40866e-15 1.62486)
(-3.60884e-05 1.50493e-16 1.6002)
(-8.85743e-05 1.1321e-15 1.60019)
(-0.000139508 4.59966e-15 1.60018)
(-0.000189884 -2.90672e-15 1.60016)
(-0.000234211 9.75021e-17 1.60013)
(-0.000269841 -9.40891e-17 1.60008)
(-0.00029256 -7.41387e-16 1.6)
(-0.000296999 2.50558e-16 1.59985)
(-0.000240054 1.25854e-15 1.59959)
(-0.000418747 1.90854e-16 1.59922)
(0.00100141 -1.13495e-15 1.59793)
(-0.0039167 -3.937e-16 1.59714)
(0.0124065 -2.58172e-16 1.59007)
(-0.0272553 -2.09736e-16 1.58686)
(0.0413329 1.10689e-16 1.62517)
(-4.40391e-05 2.98928e-16 1.60028)
(-0.000108674 3.84658e-16 1.60027)
(-0.000171922 -3.4959e-16 1.60026)
(-0.000236084 6.08867e-16 1.60024)
(-0.000295326 1.0931e-16 1.6002)
(-0.00034808 -7.50708e-17 1.60014)
(-0.000391036 -4.19902e-16 1.60005)
(-0.0004295 4.63031e-16 1.59989)
(-0.000372264 3.04183e-15 1.59959)
(-0.000744749 2.19907e-16 1.59922)
(0.000952128 1.67566e-16 1.59787)
(-0.00465587 6.29281e-16 1.59686)
(0.0116022 7.88545e-16 1.59083)
(-0.026145 6.7932e-16 1.58729)
(0.0345437 -7.92383e-18 1.62427)
(-5.23785e-05 9.43526e-16 1.60038)
(-0.000129788 3.75999e-15 1.60037)
(-0.000206036 3.27149e-17 1.60036)
(-0.00028489 -2.45846e-15 1.60033)
(-0.000360119 1.71602e-16 1.60029)
(-0.000431431 -7.92794e-17 1.60023)
(-0.000494625 -6.12327e-16 1.60012)
(-0.000571966 -6.14361e-17 1.59996)
(-0.000506778 1.04405e-15 1.59964)
(-0.00105861 2.32681e-16 1.59927)
(0.000844263 1.51682e-15 1.59792)
(-0.00517543 -5.15618e-16 1.59668)
(0.0106972 -2.12124e-16 1.5916)
(-0.0247977 -1.3562e-15 1.58839)
(0.0288883 -3.48723e-16 1.62248)
(-6.09771e-05 1.00317e-15 1.6005)
(-0.000151593 3.97235e-15 1.60049)
(-0.000241278 1.75267e-16 1.60048)
(-0.000335356 1.10953e-15 1.60045)
(-0.000427051 2.29644e-16 1.60041)
(-0.000517708 -8.00231e-17 1.60034)
(-0.000599908 -2.56003e-15 1.60023)
(-0.000718171 -1.37897e-16 1.60007)
(-0.000641241 1.19832e-15 1.59973)
(-0.00134585 2.56984e-16 1.59935)
(0.000698348 9.73371e-17 1.59804)
(-0.00552172 -2.70196e-16 1.59662)
(0.00973896 -7.2759e-16 1.59239)
(-0.0233473 -7.39772e-16 1.5899)
(0.0241543 2.68051e-16 1.62001)
(-6.97054e-05 1.12919e-15 1.60064)
(-0.000173751 3.54885e-15 1.60063)
(-0.000277049 -2.65162e-15 1.60062)
(-0.000386547 -1.10507e-15 1.60059)
(-0.000494669 3.33947e-16 1.60054)
(-0.000604881 -7.31661e-17 1.60048)
(-0.00070421 -1.10814e-16 1.60036)
(-0.000862758 4.4406e-16 1.6002)
(-0.000773223 1.20951e-15 1.59987)
(-0.00160059 2.88871e-16 1.59947)
(0.000527778 2.55544e-16 1.59821)
(-0.00573249 -4.36504e-16 1.59664)
(0.00876153 -7.95202e-16 1.59318)
(-0.0218883 -2.88235e-17 1.59167)
(0.0201659 6.34522e-16 1.61707)
(-7.84306e-05 1.20989e-15 1.6008)
(-0.000195928 4.43693e-15 1.60079)
(-0.000312787 2.72084e-15 1.60077)
(-0.000437608 2.77952e-15 1.60075)
(-0.000561703 4.10881e-16 1.6007)
(-0.000691171 -1.0008e-16 1.60063)
(-0.000805588 1.15386e-15 1.60052)
(-0.00100191 4.83433e-16 1.60037)
(-0.000901016 6.42997e-16 1.60003)
(-0.00182194 3.07935e-16 1.59962)
(0.000340767 5.00721e-16 1.59843)
(-0.00584006 -1.71503e-17 1.59674)
(0.00779551 -1.3462e-15 1.59397)
(-0.020476 -4.95866e-16 1.59362)
(0.0167815 -1.58797e-17 1.61378)
(-8.70428e-05 9.02301e-16 1.60097)
(-0.000217832 2.15949e-15 1.60096)
(-0.00034799 3.03797e-15 1.60095)
(-0.000487805 2.25572e-15 1.60092)
(-0.000627135 4.42728e-16 1.60088)
(-0.000775168 -9.18511e-17 1.60082)
(-0.000902775 -6.05441e-16 1.60071)
(-0.00113327 1.65136e-15 1.60056)
(-0.0010237 -6.71065e-16 1.60023)
(-0.00201145 3.28648e-16 1.5998)
(0.000143779 1.40345e-15 1.59867)
(-0.00587202 5.97993e-17 1.5969)
(0.00686241 -1.87008e-16 1.59476)
(-0.019139 -1.24286e-15 1.59568)
(0.0138912 -1.87309e-16 1.61025)
(-9.54396e-05 9.09714e-16 1.60117)
(-0.000239211 1.48261e-15 1.60116)
(-0.000382253 2.96631e-15 1.60115)
(-0.000536554 2.31035e-15 1.60112)
(-0.000690214 4.68e-16 1.60108)
(-0.000855848 -1.25448e-16 1.60102)
(-0.000995024 1.08106e-15 1.60092)
(-0.00125557 -1.51902e-16 1.60077)
(-0.00114083 2.18204e-16 1.60045)
(-0.00217189 3.84217e-16 1.6)
(-5.77488e-05 -1.11322e-16 1.59893)
(-0.00585065 -1.09766e-15 1.59711)
(0.00597416 6.22185e-16 1.59554)
(-0.0178908 -8.13171e-17 1.59778)
(0.0114093 -6.98416e-16 1.60656)
(-0.000103551 1.20255e-15 1.60138)
(-0.000259872 4.17349e-15 1.60137)
(-0.000415257 3.25731e-15 1.60136)
(-0.000583417 5.81923e-15 1.60134)
(-0.000750429 4.69104e-16 1.6013)
(-0.000932523 -1.82867e-16 1.60125)
(-0.00108195 -1.20757e-15 1.60115)
(-0.00136826 1.07066e-15 1.601)
(-0.00125218 2.21557e-15 1.6007)
(-0.00230674 4.92579e-16 1.60023)
(-0.000259566 6.99126e-16 1.5992)
(-0.00579309 8.39055e-17 1.59737)
(0.00513672 -5.1658e-16 1.59631)
(-0.0167374 -5.84201e-16 1.5999)
(0.0092675 -8.72095e-16 1.60273)
(-0.000111314 1.36834e-15 1.60161)
(-0.000279666 4.38796e-15 1.6016)
(-0.000446784 3.48313e-15 1.60159)
(-0.000628089 1.57862e-15 1.60157)
(-0.000807463 4.3652e-16 1.60154)
(-0.00100478 -2.37205e-16 1.60149)
(-0.00116345 -1.45704e-15 1.60139)
(-0.0014713 -5.1662e-16 1.60125)
(-0.00135773 3.62876e-15 1.60096)
(-0.00241966 5.68413e-16 1.60047)
(-0.000458581 7.31834e-16 1.5995)
(-0.00571214 -3.39151e-16 1.59767)
(0.00435271 -6.41993e-16 1.59708)
(-0.0156789 -2.15308e-15 1.602)
(0.00741053 -1.47963e-15 1.59882)
(-0.000118699 1.38273e-15 1.60186)
(-0.000298501 4.77087e-15 1.60185)
(-0.000476687 3.04447e-15 1.60184)
(-0.000670384 1.96207e-15 1.60182)
(-0.000861163 4.41153e-16 1.60179)
(-0.00107243 -2.44738e-16 1.60175)
(-0.00123958 -1.15163e-15 1.60166)
(-0.00156505 9.48163e-16 1.60152)
(-0.00145756 1.60654e-15 1.60123)
(-0.00251417 5.99815e-16 1.60073)
(-0.000652606 5.60891e-16 1.5998)
(-0.00561722 -2.76581e-16 1.598)
(0.00362257 -5.33705e-16 1.59784)
(-0.0147124 1.49815e-16 1.60407)
(0.00579387 -7.49355e-17 1.59484)
(-0.000125677 1.3728e-15 1.60212)
(-0.000316316 4.04421e-15 1.60211)
(-0.000504898 2.15862e-15 1.60211)
(-0.00071021 2.08087e-15 1.60209)
(-0.000911496 4.78236e-16 1.60207)
(-0.00113546 -2.58812e-16 1.60202)
(-0.00131054 -1.44581e-15 1.60194)
(-0.0016501 -7.98175e-16 1.60181)
(-0.00155182 1.2406e-15 1.60152)
(-0.00259345 5.03596e-16 1.60101)
(-0.000840136 5.08435e-16 1.60011)
(-0.00551521 -4.49222e-16 1.59836)
(0.0029452 -6.20937e-16 1.5986)
(-0.0138328 1.95439e-16 1.6061)
(0.00438123 7.81195e-16 1.59083)
(-0.000132249 1.34362e-15 1.6024)
(-0.000333094 3.11713e-15 1.60239)
(-0.000531394 1.91757e-15 1.60239)
(-0.000747555 1.61253e-15 1.60237)
(-0.000958523 5.15492e-16 1.60235)
(-0.00119397 -2.42334e-16 1.60231)
(-0.00137663 -1.35204e-15 1.60223)
(-0.00172715 -2.1973e-16 1.6021)
(-0.00164074 1.3123e-15 1.60183)
(-0.00266026 -8.82917e-16 1.6013)
(-0.00102019 4.07573e-16 1.60043)
(-0.00541101 -4.90773e-16 1.59876)
(0.00231845 -1.14548e-15 1.59936)
(-0.0130339 -3.31389e-16 1.60807)
(0.00314292 -4.44046e-16 1.58678)
(-0.000138409 1.63228e-15 1.60269)
(-0.000348834 5.75348e-15 1.60268)
(-0.000556205 -4.56169e-16 1.60268)
(-0.000782463 -4.1679e-16 1.60267)
(-0.00100237 6.26601e-16 1.60265)
(-0.00124817 -1.90008e-16 1.60261)
(-0.00143813 -6.80747e-16 1.60254)
(-0.00179696 1.41009e-15 1.60241)
(-0.00172455 2.93763e-15 1.60214)
(-0.00271698 7.88018e-16 1.6016)
(-0.0011922 5.21743e-16 1.60077)
(-0.00530805 -5.26045e-16 1.59917)
(0.00173954 -8.94562e-16 1.60012)
(-0.0123095 -5.59345e-16 1.61)
(0.0020544 -6.19418e-16 1.58271)
(-0.000144177 1.59345e-15 1.60299)
(-0.000363567 5.78994e-15 1.60299)
(-0.00057938 3.92672e-15 1.60298)
(-0.000815023 3.58478e-15 1.60298)
(-0.0010432 7.04616e-16 1.60296)
(-0.00129832 -1.57033e-16 1.60293)
(-0.0014954 1.22075e-15 1.60286)
(-0.00186028 -3.71314e-16 1.60273)
(-0.00180353 7.96937e-17 1.60246)
(-0.00276559 8.06668e-16 1.60191)
(-0.0013559 4.90089e-16 1.60111)
(-0.00520864 -4.69697e-16 1.5996)
(0.00120538 1.04392e-16 1.60088)
(-0.0116532 -2.14564e-15 1.61187)
(0.00109527 -2.0922e-15 1.57864)
(-0.000149561 1.29832e-15 1.60331)
(-0.000377329 3.65872e-15 1.6033)
(-0.000601005 4.35406e-15 1.6033)
(-0.000845352 5.92994e-15 1.6033)
(-0.00108121 6.86984e-16 1.60328)
(-0.00134469 -1.45421e-16 1.60325)
(-0.00154875 -6.54613e-16 1.60319)
(-0.00191785 -1.57104e-15 1.60306)
(-0.00187795 1.60866e-15 1.60279)
(-0.00280775 7.44824e-16 1.60223)
(-0.00151126 -7.29729e-16 1.60146)
(-0.00511426 -2.16413e-16 1.60006)
(0.00071281 -1.31282e-15 1.60164)
(-0.0110589 2.17706e-16 1.61368)
(0.000248459 -7.8906e-16 1.57455)
(-0.00015459 1.01875e-15 1.60363)
(-0.000390175 1.90797e-15 1.60363)
(-0.000621161 3.69478e-15 1.60363)
(-0.000873585 1.5412e-15 1.60363)
(-0.00111659 6.61414e-16 1.60362)
(-0.00138758 -1.80042e-16 1.60359)
(-0.00159851 6.34919e-16 1.60353)
(-0.00197034 3.49171e-16 1.60339)
(-0.00194809 4.01727e-16 1.60313)
(-0.00284478 7.8336e-16 1.60257)
(-0.0016584 4.58893e-16 1.60183)
(-0.00502581 -7.00662e-16 1.60053)
(0.00025867 -1.00575e-15 1.6024)
(-0.0105209 8.26838e-17 1.61544)
(-0.000500339 -2.61736e-16 1.57047)
(-0.000159276 1.49633e-15 1.60397)
(-0.000402155 5.31033e-15 1.60397)
(-0.000639956 5.0559e-15 1.60397)
(-0.000899864 -4.2834e-16 1.60397)
(-0.00114956 7.23339e-16 1.60396)
(-0.00142729 -1.94599e-16 1.60394)
(-0.00164498 -1.45453e-15 1.60387)
(-0.00201836 1.00395e-15 1.60374)
(-0.00201422 7.10356e-16 1.60347)
(-0.00287777 8.50871e-16 1.60291)
(-0.00179756 -3.89352e-16 1.6022)
(-0.00494374 -7.94061e-16 1.60101)
(-0.000160082 -9.58292e-16 1.60317)
(-0.0100336 -6.61895e-16 1.61713)
(-0.00116329 -1.32597e-16 1.56639)
(-0.000163654 1.47483e-15 1.60432)
(-0.000413334 5.84183e-15 1.60432)
(-0.000657478 5.15655e-15 1.60432)
(-0.000924336 3.13983e-15 1.60432)
(-0.00118029 7.36219e-16 1.60431)
(-0.0014641 -1.74962e-16 1.60429)
(-0.00168843 -8.23862e-16 1.60423)
(-0.00206246 -6.59941e-16 1.60409)
(-0.00207661 9.96749e-16 1.60383)
(-0.00290759 9.30109e-16 1.60327)
(-0.00192906 9.2191e-16 1.60258)
(-0.00486821 -1.74253e-15 1.60151)
(-0.00054634 2.44995e-16 1.60393)
(-0.00959234 -6.9304e-16 1.61877)
(-0.00175068 -6.22376e-16 1.56232)
(-0.000167735 1.33266e-15 1.60467)
(-0.000423764 3.64272e-15 1.60467)
(-0.000673838 3.83154e-15 1.60468)
(-0.000947144 2.64459e-15 1.60468)
(-0.001209 7.4375e-16 1.60467)
(-0.00149828 -1.46313e-16 1.60465)
(-0.00172914 -6.13124e-16 1.60459)
(-0.00210312 -1.24247e-16 1.60446)
(-0.00213552 1.02738e-15 1.60419)
(-0.00293492 1.1339e-15 1.60363)
(-0.00205324 5.62667e-16 1.60297)
(-0.00479917 -4.01482e-16 1.60201)
(-0.000902798 -1.03831e-15 1.60469)
(-0.0091925 -9.80803e-16 1.62036)
(-0.00227136 -7.2317e-16 1.55826)
(-0.000171556 1.28539e-15 1.60504)
(-0.000433511 3.70068e-15 1.60504)
(-0.000689118 4.93014e-15 1.60504)
(-0.000968426 6.17494e-15 1.60505)
(-0.00123583 7.81747e-16 1.60504)
(-0.00153008 -1.21448e-16 1.60502)
(-0.00176733 -5.69403e-16 1.60497)
(-0.00214076 -1.7769e-15 1.60482)
(-0.00219119 3.0319e-15 1.60455)
(-0.0029603 6.85566e-16 1.604)
(-0.00217049 6.88327e-16 1.60337)
(-0.00473641 -1.46392e-15 1.60253)
(-0.00123197 -1.02824e-15 1.60546)
(-0.00882999 -3.49473e-16 1.62189)
(-0.00273287 -2.01672e-15 1.5542)
(-0.000175124 1.1401e-15 1.60541)
(-0.000442622 3.49104e-15 1.60541)
(-0.000703419 6.54219e-15 1.60542)
(-0.000988311 2.98428e-15 1.60542)
(-0.00126097 8.41976e-16 1.60542)
(-0.00155974 -9.4592e-17 1.6054)
(-0.00180321 -5.31207e-16 1.60534)
(-0.00217575 5.11009e-16 1.6052)
(-0.00224383 1.85233e-15 1.60493)
(-0.00298414 5.26447e-16 1.60438)
(-0.00228118 7.25068e-16 1.60378)
(-0.00467964 -3.33946e-17 1.60305)
(-0.00153614 -1.18882e-15 1.60623)
(-0.00850115 -6.31934e-16 1.62336)
(-0.00314179 -6.30931e-16 1.55016)
(-0.000178473 1.01596e-15 1.60579)
(-0.000451155 2.98592e-15 1.60579)
(-0.000716812 5.43552e-15 1.6058)
(-0.00100692 2.80338e-15 1.6058)
(-0.00128455 8.687e-16 1.6058)
(-0.00158744 -6.9555e-17 1.60578)
(-0.00183698 -4.63865e-16 1.60573)
(-0.0022084 -6.78508e-17 1.60558)
(-0.00229368 1.71821e-15 1.60531)
(-0.00300676 8.64597e-16 1.60477)
(-0.00238569 7.64278e-16 1.6042)
(-0.0046285 1.42814e-16 1.60359)
(-0.00181743 -1.77916e-15 1.60699)
(-0.00820262 -9.98773e-16 1.62478)
(-0.00350375 -7.04146e-16 1.54613)
(-0.000181608 9.87642e-16 1.60618)
(-0.000459151 2.74352e-15 1.60618)
(-0.000729384 2.27894e-15 1.60619)
(-0.00102435 2.46815e-15 1.60619)
(-0.0013067 8.72597e-16 1.60619)
(-0.00161338 -4.7495e-17 1.60617)
(-0.0018688 -4.18976e-16 1.60612)
(-0.00223898 -1.78647e-16 1.60597)
(-0.0023409 1.58165e-15 1.60569)
(-0.0030284 1.43388e-16 1.60516)
(-0.0024844 7.32355e-16 1.60463)
(-0.00458263 8.92458e-16 1.60413)
(-0.00207775 -2.5455e-16 1.60776)
(-0.00793142 -7.48535e-16 1.62615)
(-0.00382371 -3.90509e-16 1.54212)
(-0.00018456 9.74253e-16 1.60657)
(-0.000466663 2.62231e-15 1.60657)
(-0.000741192 1.41435e-15 1.60658)
(-0.00104072 2.3688e-15 1.60659)
(-0.00132755 8.87407e-16 1.60659)
(-0.00163772 -2.15302e-17 1.60657)
(-0.00189884 -3.32422e-16 1.60651)
(-0.00226772 4.51382e-16 1.60636)
(-0.00238569 2.38909e-15 1.60608)
(-0.00304923 1.56825e-15 1.60556)
(-0.00257765 7.04005e-16 1.60506)
(-0.00454161 -1.20696e-16 1.60468)
(-0.00231885 -6.6297e-16 1.60852)
(-0.00768479 -8.40244e-16 1.62747)
(-0.00410595 -7.75889e-16 1.53812)
(-0.000187329 9.52184e-16 1.60697)
(-0.00047372 2.47173e-15 1.60697)
(-0.00075231 1.75747e-15 1.60698)
(-0.00105611 2.30156e-15 1.60699)
(-0.00134719 9.06993e-16 1.60699)
(-0.00166059 7.45663e-18 1.60697)
(-0.00192722 -2.52935e-16 1.60691)
(-0.0022948 5.0316e-16 1.60676)
(-0.00242821 1.64746e-15 1.60648)
(-0.0030694 1.90448e-15 1.60597)
(-0.00266576 7.19055e-16 1.6055)
(-0.00450505 3.0863e-16 1.60523)
(-0.0025423 -6.564e-16 1.60929)
(-0.00746036 -8.21874e-16 1.62874)
(-0.00435428 -7.72623e-16 1.53413)
(-0.000189945 9.05368e-16 1.60738)
(-0.000480369 2.27569e-15 1.60738)
(-0.00076278 1.14644e-15 1.60739)
(-0.0010706 2.18372e-15 1.6074)
(-0.00136573 9.21275e-16 1.6074)
(-0.00168214 3.86366e-17 1.60738)
(-0.00195407 -1.90588e-16 1.60732)
(-0.0023204 4.81001e-16 1.60716)
(-0.00246859 -2.29182e-16 1.60688)
(-0.00308899 1.61854e-15 1.60638)
(-0.00274906 7.3929e-16 1.60595)
(-0.00447258 -1.06957e-15 1.6058)
(-0.00274954 -6.17488e-16 1.61006)
(-0.00725587 -8.27986e-16 1.62996)
(-0.004572 -1.52312e-15 1.53016)
(-0.000192405 8.16252e-16 1.60779)
(-0.00048663 1.84094e-15 1.60779)
(-0.000772665 5.23758e-15 1.6078)
(-0.00108425 2.06594e-15 1.60781)
(-0.00138324 9.24515e-16 1.60781)
(-0.00170245 6.80725e-17 1.60779)
(-0.0019795 -1.44188e-16 1.60773)
(-0.00234464 4.07607e-16 1.60757)
(-0.00250697 2.73316e-15 1.60729)
(-0.00310806 -4.7749e-17 1.6068)
(-0.00282782 7.90032e-16 1.60641)
(-0.00444381 -4.56483e-16 1.60636)
(-0.00294187 -5.77992e-16 1.61082)
(-0.0070694 -8.29738e-16 1.63113)
(-0.00476208 -2.42002e-16 1.52622)
(-0.000194735 7.66371e-16 1.60821)
(-0.000492543 8.52168e-16 1.60821)
(-0.000781993 -4.24276e-15 1.60822)
(-0.00109714 2.03481e-15 1.60823)
(-0.00139979 9.04661e-16 1.60823)
(-0.00172164 9.42663e-17 1.60821)
(-0.00200359 -1.0282e-16 1.60814)
(-0.00236764 1.95515e-16 1.60798)
(-0.00254348 -8.33313e-16 1.6077)
(-0.00312666 5.21355e-16 1.60723)
(-0.00290232 8.60994e-16 1.60687)
(-0.0044184 1.37059e-16 1.60693)
(-0.00312047 -5.4361e-16 1.61159)
(-0.00689913 -6.5182e-16 1.63225)
(-0.00492708 2.93064e-16 1.52229)
(-0.000196929 1.18334e-15 1.60863)
(-0.000498122 -2.94877e-15 1.60863)
(-0.000790818 4.33384e-15 1.60864)
(-0.00110932 7.06078e-16 1.60865)
(-0.00141546 8.47568e-16 1.60865)
(-0.00173979 1.18809e-16 1.60863)
(-0.00202643 -1.8571e-17 1.60856)
(-0.0023895 7.94232e-16 1.6084)
(-0.00257821 5.55301e-16 1.60812)
(-0.00314479 1.2696e-15 1.60766)
(-0.00297279 8.51727e-16 1.60734)
(-0.00439601 4.80957e-16 1.60751)
(-0.00328637 -5.30135e-16 1.61235)
(-0.00674351 3.80593e-16 1.63332)
(-0.00506936 2.46297e-16 1.51837)
(-0.000199011 1.08104e-15 1.60905)
(-0.000503401 4.15619e-15 1.60906)
(-0.000799159 -4.67781e-15 1.60907)
(-0.00112083 1.4179e-15 1.60907)
(-0.0014303 8.77571e-16 1.60908)
(-0.00175695 1.49915e-16 1.60905)
(-0.0020481 1.92114e-16 1.60898)
(-0.0024103 8.91056e-16 1.60882)
(-0.00261127 1.26168e-15 1.60854)
(-0.00316248 1.27556e-15 1.6081)
(-0.00303947 8.54255e-16 1.60782)
(-0.00437633 2.00553e-16 1.60809)
(-0.00344057 -2.4233e-16 1.61311)
(-0.00660105 -1.14459e-15 1.63435)
(-0.00519094 -7.04923e-17 1.51448)
(-0.000200973 8.58154e-16 1.60948)
(-0.000508387 2.05934e-15 1.60949)
(-0.00080706 1.38388e-15 1.6095)
(-0.00113172 1.89457e-15 1.6095)
(-0.00144435 9.20569e-16 1.60951)
(-0.00177321 1.49695e-16 1.60948)
(-0.00206866 -5.94727e-16 1.60941)
(-0.0024301 3.40903e-16 1.60925)
(-0.00264274 1.2276e-15 1.60897)
(-0.00317972 2.94062e-15 1.60855)
(-0.00310256 8.93437e-16 1.6083)
(-0.00435908 5.82207e-16 1.60867)
(-0.00358391 -8.30597e-16 1.61387)
(-0.0064705 -8.51119e-16 1.63533)
(-0.00529372 -1.75066e-17 1.51062)
(-0.000202839 7.12569e-16 1.60992)
(-0.000513111 1.43554e-15 1.60992)
(-0.000814532 2.04311e-16 1.60993)
(-0.00114202 2.59429e-15 1.60994)
(-0.00145766 9.57845e-16 1.60994)
(-0.00178861 1.57664e-16 1.60992)
(-0.00208817 -5.92775e-16 1.60984)
(-0.00244897 3.59892e-16 1.60968)
(-0.00267269 1.6335e-15 1.6094)
(-0.00319651 1.13112e-15 1.60899)
(-0.00316226 8.26433e-16 1.60878)
(-0.00434399 6.13228e-16 1.60925)
(-0.00371721 -1.08041e-15 1.61463)
(-0.00635064 -1.04195e-15 1.63627)
(-0.0053793 1.01529e-17 1.50677)
(-0.000204596 9.41706e-16 1.61036)
(-0.000517575 2.9132e-15 1.61036)
(-0.000821615 -3.15212e-15 1.61037)
(-0.00115177 1.09087e-15 1.61038)
(-0.00147027 8.968e-16 1.61038)
(-0.0018032 1.64811e-16 1.61035)
(-0.00210669 -2.10362e-16 1.61028)
(-0.00246694 1.92816e-15 1.61011)
(-0.0027012 8.80127e-16 1.60984)
(-0.00321282 1.20943e-15 1.60945)
(-0.00321874 -4.96419e-16 1.60928)
(-0.00433081 6.13808e-17 1.60984)
(-0.00384115 -7.17255e-16 1.61539)
(-0.00624048 -7.84963e-16 1.63717)
(-0.00544922 8.13722e-16 1.50295)
(-0.000206268 1.12198e-15 1.6108)
(-0.000521804 3.61384e-15 1.6108)
(-0.00082831 7.21543e-15 1.61081)
(-0.001161 2.5918e-16 1.61082)
(-0.00148221 8.55804e-16 1.61082)
(-0.00181702 2.34299e-16 1.61079)
(-0.00212425 -7.15963e-17 1.61072)
(-0.00248407 7.27854e-17 1.61055)
(-0.00272833 -7.075e-16 1.61028)
(-0.00322865 1.23497e-15 1.60991)
(-0.00327216 9.34943e-16 1.60977)
(-0.00431931 -8.04647e-17 1.61043)
(-0.00395641 -8.33502e-16 1.61614)
(-0.006139 7.16983e-16 1.63802)
(-0.00550477 -5.55885e-16 1.49915)
(-0.00020784 1.04452e-15 1.61124)
(-0.000525798 3.0369e-15 1.61125)
(-0.000834656 1.01395e-15 1.61126)
(-0.00116973 1.06203e-15 1.61127)
(-0.00149351 9.14011e-16 1.61126)
(-0.00183011 5.28231e-16 1.61124)
(-0.0021409 -2.82889e-16 1.61116)
(-0.00250037 5.32692e-17 1.61099)
(-0.00275414 1.17237e-15 1.61073)
(-0.00324398 2.51856e-16 1.61037)
(-0.00332267 9.93945e-16 1.61027)
(-0.0043093 3.52335e-16 1.61103)
(-0.00406356 -5.12844e-16 1.61689)
(-0.00604541 -9.63312e-16 1.63882)
(-0.00554723 -2.09706e-16 1.49537)
(-0.000209338 9.53636e-16 1.61169)
(-0.000529582 2.50183e-15 1.6117)
(-0.000840648 2.51397e-15 1.61171)
(-0.00117799 1.851e-15 1.61171)
(-0.00150421 9.26412e-16 1.61171)
(-0.0018425 2.1461e-15 1.61168)
(-0.00215668 -6.13767e-16 1.6116)
(-0.0025159 8.92947e-18 1.61143)
(-0.00277867 8.25673e-16 1.61117)
(-0.00325879 1.15138e-15 1.61084)
(-0.00337042 -2.92466e-16 1.61078)
(-0.00430057 6.44388e-16 1.61162)
(-0.00416317 -1.5356e-15 1.61764)
(-0.00595885 -1.01753e-15 1.63959)
(-0.00557765 -4.72993e-16 1.49162)
(-0.000210742 8.51191e-16 1.61214)
(-0.000533149 2.14452e-15 1.61215)
(-0.000846321 6.85146e-16 1.61216)
(-0.00118579 1.59008e-15 1.61217)
(-0.00151432 9.07392e-16 1.61216)
(-0.00185422 -5.02953e-16 1.61213)
(-0.00217163 -5.93626e-16 1.61205)
(-0.00253065 -1.04785e-17 1.61188)
(-0.00280198 2.44176e-15 1.61163)
(-0.00327307 8.85513e-16 1.61131)
(-0.00341553 1.08816e-15 1.61129)
(-0.00429297 4.25462e-16 1.61222)
(-0.00425569 -1.85895e-16 1.61838)
(-0.00587872 -8.70988e-16 1.64031)
(-0.00559707 2.00149e-16 1.4879)
(-0.000212079 7.38139e-16 1.6126)
(-0.000536524 1.63507e-15 1.6126)
(-0.000851666 -1.89545e-15 1.61261)
(-0.00119315 1.42738e-15 1.61262)
(-0.00152387 9.20256e-16 1.61262)
(-0.00186528 1.39482e-16 1.61259)
(-0.00218576 -4.13576e-16 1.6125)
(-0.00254467 -2.87544e-17 1.61233)
(-0.0028241 2.62524e-16 1.61208)
(-0.00328679 1.40319e-15 1.61179)
(-0.00345811 1.11356e-15 1.6118)
(-0.00428632 -4.27009e-16 1.61282)
(-0.00434161 -1.7592e-16 1.61913)
(-0.00580429 -8.69403e-16 1.64099)
(-0.00560637 3.09262e-16 1.4842)
(-0.000213328 6.42513e-16 1.61306)
(-0.000539698 1.27784e-15 1.61306)
(-0.000856718 -3.07473e-15 1.61307)
(-0.0012001 1.28258e-15 1.61308)
(-0.00153287 9.37741e-16 1.61307)
(-0.00187573 2.31986e-16 1.61304)
(-0.00219912 -3.28387e-16 1.61296)
(-0.00255797 -5.76236e-17 1.61279)
(-0.00284508 -4.09509e-16 1.61254)
(-0.00329995 2.96464e-15 1.61227)
(-0.00349828 1.09654e-15 1.61232)
(-0.0042805 -1.56844e-15 1.61342)
(-0.00442131 -2.95845e-16 1.61986)
(-0.00573507 -8.63435e-16 1.64162)
(-0.00560644 -1.71962e-16 1.48053)
(-0.000214517 5.75311e-16 1.61352)
(-0.000542697 1.272e-15 1.61352)
(-0.000861464 2.96541e-16 1.61353)
(-0.00120663 1.31455e-15 1.61354)
(-0.00154135 9.51215e-16 1.61353)
(-0.00188557 2.70964e-16 1.6135)
(-0.00221172 -2.5134e-16 1.61341)
(-0.00257057 -5.66983e-17 1.61324)
(-0.00286495 -1.61807e-15 1.61301)
(-0.00331253 1.38756e-15 1.61275)
(-0.00353615 1.12541e-15 1.61284)
(-0.00427537 -4.40249e-16 1.61402)
(-0.0044952 -2.73733e-16 1.6206)
(-0.00567046 -8.52933e-16 1.64222)
(-0.00559797 -1.54376e-15 1.47688)
(-0.000215622 5.26502e-16 1.61398)
(-0.000545506 1.15627e-15 1.61398)
(-0.000865937 5.92807e-16 1.61399)
(-0.00121278 1.20146e-15 1.614)
(-0.00154933 9.49168e-16 1.61399)
(-0.00189483 2.44469e-16 1.61396)
(-0.0022236 -1.87713e-16 1.61387)
(-0.00258248 -4.96805e-17 1.6137)
(-0.00288375 1.38929e-16 1.61347)
(-0.00332452 4.10312e-16 1.61324)
(-0.0035718 1.22334e-15 1.61337)
(-0.00427081 1.56883e-15 1.61463)
(-0.00456359 -2.41493e-16 1.62133)
(-0.00561008 -8.94154e-16 1.64278)
(-0.00558175 1.66451e-16 1.47327)
(-0.000216672 4.63796e-16 1.61444)
(-0.000548151 8.16374e-16 1.61445)
(-0.000870123 2.63607e-15 1.61446)
(-0.00121854 8.74714e-16 1.61446)
(-0.00155681 9.59202e-16 1.61446)
(-0.00190353 6.83878e-17 1.61442)
(-0.00223477 -1.24323e-16 1.61433)
(-0.00259371 -3.88261e-17 1.61417)
(-0.00290151 1.5336e-15 1.61394)
(-0.00333591 2.463e-15 1.61373)
(-0.00360534 1.16923e-15 1.61389)
(-0.00426673 1.37228e-15 1.61523)
(-0.00462684 -2.20212e-16 1.62205)
(-0.00555342 -7.01064e-16 1.64329)
(-0.00555834 -3.16505e-16 1.46969)
(-0.000217641 5.36116e-16 1.61491)
(-0.000550617 -4.94542e-15 1.61492)
(-0.000874053 9.29915e-16 1.61492)
(-0.00122393 -1.20366e-15 1.61493)
(-0.00156381 1.07874e-15 1.61492)
(-0.00191167 9.67941e-16 1.61489)
(-0.00224526 -2.06825e-17 1.6148)
(-0.00260429 -8.14107e-18 1.61463)
(-0.00291826 7.26952e-17 1.61442)
(-0.0033467 5.73396e-16 1.61422)
(-0.00363684 1.18336e-15 1.61442)
(-0.00426303 1.34496e-15 1.61584)
(-0.00468522 -1.94072e-16 1.62278)
(-0.00550018 -7.48139e-16 1.64377)
(-0.00552841 5.64587e-16 1.46613)
(-0.000218561 5.6775e-16 1.61538)
(-0.000552932 1.92895e-15 1.61539)
(-0.000877712 8.90674e-16 1.61539)
(-0.00122897 2.25217e-15 1.6154)
(-0.00157036 1.10356e-15 1.61539)
(-0.00191929 1.0922e-15 1.61535)
(-0.00225509 5.07252e-17 1.61526)
(-0.00261423 5.38919e-18 1.6151)
(-0.00293403 -2.29129e-16 1.61489)
(-0.00335687 2.66174e-15 1.61472)
(-0.00366639 1.36663e-15 1.61495)
(-0.00425962 2.87275e-15 1.61644)
(-0.00473903 -1.75793e-16 1.62349)
(-0.00544992 -1.00452e-15 1.64421)
(-0.00549245 6.39345e-16 1.46261)
(-0.000219403 5.73801e-16 1.61585)
(-0.000555077 1.56508e-15 1.61586)
(-0.000881132 -1.02364e-15 1.61586)
(-0.00123366 1.18702e-15 1.61587)
(-0.00157646 1.0324e-15 1.61586)
(-0.00192638 3.9629e-16 1.61582)
(-0.00226428 7.5509e-17 1.61573)
(-0.00262355 3.26118e-17 1.61557)
(-0.00294886 -1.43117e-15 1.61537)
(-0.00336644 2.2781e-15 1.61521)
(-0.00369407 1.33366e-15 1.61549)
(-0.00425644 1.22486e-15 1.61705)
(-0.0047885 -1.78761e-16 1.6242)
(-0.00540243 -1.05384e-15 1.6446)
(-0.00545103 1.65623e-15 1.45911)
(-0.0002202 6.31094e-16 1.61633)
(-0.000557079 1.31303e-15 1.61633)
(-0.000884292 -4.08893e-15 1.61634)
(-0.00123801 1.29288e-15 1.61634)
(-0.00158212 9.97632e-16 1.61633)
(-0.00193298 3.95256e-16 1.61629)
(-0.00227284 1.37506e-16 1.6162)
(-0.00263224 6.81411e-17 1.61604)
(-0.00296277 4.3495e-16 1.61585)
(-0.0033754 2.79441e-15 1.61571)
(-0.00371995 1.2315e-15 1.61602)
(-0.00425342 2.23134e-15 1.61765)
(-0.0048339 -1.89205e-16 1.62491)
(-0.00535732 -9.57329e-16 1.64496)
(-0.00540456 -1.41414e-15 1.45565)
(-0.00022092 1.23335e-15 1.6168)
(-0.000558918 6.918e-16 1.6168)
(-0.000887228 2.1393e-15 1.61681)
(-0.00124204 1.21312e-15 1.61682)
(-0.00158735 1.15794e-15 1.61681)
(-0.00193908 4.22828e-16 1.61676)
(-0.0022808 3.94922e-16 1.61667)
(-0.00264034 9.23251e-17 1.61652)
(-0.00297578 -1.41148e-15 1.61633)
(-0.00338375 2.52912e-15 1.61622)
(-0.0037441 1.19472e-15 1.61656)
(-0.00425051 2.38798e-15 1.61826)
(-0.00487541 -4.55747e-16 1.62561)
(-0.00531445 -9.31075e-16 1.64529)
(-0.00535355 8.28681e-16 1.45222)
(-0.0002216 -2.6451e-15 1.61728)
(-0.000560623 -3.67747e-15 1.61728)
(-0.000889916 -3.5065e-15 1.61729)
(-0.00124574 1.00621e-15 1.61729)
(-0.00159218 2.91096e-15 1.61728)
(-0.00194471 3.34893e-16 1.61724)
(-0.00228818 -5.3606e-16 1.61714)
(-0.00264786 7.97975e-17 1.61699)
(-0.00298794 1.62504e-16 1.61682)
(-0.0033915 2.12746e-15 1.61672)
(-0.00376661 1.12402e-15 1.6171)
(-0.00424765 6.53285e-16 1.61886)
(-0.00491329 1.56879e-16 1.62631)
(-0.00527347 -9.01032e-16 1.64557)
(-0.00529833 1.8273e-15 1.44883)
(-0.000222205 -2.10983e-15 1.61775)
(-0.000562171 2.75752e-15 1.61776)
(-0.000892391 -3.89943e-15 1.61776)
(-0.00124913 8.69523e-16 1.61777)
(-0.00159661 -3.29159e-17 1.61776)
(-0.00194988 2.87269e-16 1.61771)
(-0.00229499 -6.5286e-16 1.61762)
(-0.00265481 1.1511e-16 1.61747)
(-0.00299926 -8.02558e-16 1.6173)
(-0.00339866 1.56979e-15 1.61723)
(-0.00378753 1.1107e-15 1.61764)
(-0.00424481 3.48329e-16 1.61947)
(-0.00494769 3.75295e-16 1.627)
(-0.0052343 -8.69384e-16 1.64582)
(-0.00523937 -9.3126e-16 1.44546)
(-0.000222772 -2.44289e-16 1.61823)
(-0.00056359 8.47489e-16 1.61824)
(-0.000894625 8.15735e-16 1.61824)
(-0.00125221 7.58858e-16 1.61825)
(-0.00160064 4.87139e-16 1.61823)
(-0.00195459 2.87192e-16 1.61819)
(-0.00230125 -9.6077e-17 1.61809)
(-0.0026612 1.38787e-16 1.61795)
(-0.00300977 2.13055e-15 1.61779)
(-0.00340523 3.46747e-15 1.61774)
(-0.00380694 1.12554e-15 1.61818)
(-0.00424195 7.02585e-16 1.62007)
(-0.00497885 3.11088e-17 1.62768)
(-0.00519663 -8.40427e-16 1.64603)
(-0.00517694 -6.70167e-16 1.44213)
(-0.000223263 -3.59287e-16 1.61871)
(-0.000564855 7.14961e-16 1.61872)
(-0.000896654 3.61772e-15 1.61872)
(-0.00125499 5.77781e-16 1.61872)
(-0.00160429 4.106e-16 1.61871)
(-0.00195886 2.9568e-16 1.61866)
(-0.00230697 -1.30168e-16 1.61857)
(-0.00266705 1.29981e-16 1.61843)
(-0.00301951 -1.20877e-15 1.61828)
(-0.00341124 2.57944e-15 1.61825)
(-0.00382489 1.08268e-15 1.61873)
(-0.00423907 8.04125e-16 1.62068)
(-0.0050069 2.8898e-16 1.62836)
(-0.00516044 -8.01321e-16 1.64621)
(-0.00511146 8.26124e-18 1.43883)
(-0.00022372 -1.46988e-16 1.61919)
(-0.000565994 3.95391e-16 1.6192)