/*--------------------------------*- C++ -*----------------------------------*\
  =========                 |
  \\      /  F ield         | OpenFOAM: The Open Source CFD Toolbox
   \\    /   O peration     | Website:  https://openfoam.org
    \\  /    A nd           | Version:  8
     \\/     M anipulation  |
\*---------------------------------------------------------------------------*/
FoamFile
{
    version     2.0;
    format      ascii;
    class       volScalarField;
    location    "0.2";
    object      p;
}
// * * * * * * * * * * * * * * * * * * * * * * * * * * * * * * * * * * * * * //

dimensions      [0 2 -2 0 0 0 0];

internalField   nonuniform List<scalar> 
576
(
-1.10376e-07
3.72694
3.807
4.00506
4.07209
4.11256
4.13623
4.1529
4.16699
4.18094
4.1961
4.21329
4.23316
4.25638
4.28386
4.31695
4.35771
4.40957
4.47731
4.57416
4.70292
4.99639
5.17025
9.21399
0.412901
3.57539
3.73518
3.96814
4.04939
4.09783
4.1263
4.1461
4.16235
4.17786
4.19422
4.21241
4.23318
4.25733
4.28588
4.32033
4.36294
4.41752
4.48949
4.59381
4.73536
5.0647
5.30304
8.7711
0.910279
3.43169
3.66661
3.92476
4.02245
4.07979
4.11398
4.13756
4.15645
4.1739
4.19175
4.21117
4.23307
4.25836
4.28822
4.32431
4.36914
4.42692
4.50385
4.61616
4.7727
5.12574
5.42194
8.21635
1.47262
3.33221
3.61889
3.87996
3.99314
4.05907
4.0994
4.12722
4.14917
4.16889
4.18852
4.20942
4.23265
4.25929
4.29065
4.32858
4.37586
4.43705
4.51917
4.63849
4.80943
5.16017
5.50005
7.58459
2.08762
3.30213
3.59796
3.83942
3.96257
4.03571
4.08211
4.11454
4.13997
4.16239
4.18416
4.20685
4.23171
4.25994
4.29303
4.33301
4.3829
4.44751
4.53439
4.65865
4.83879
5.1618
5.51275
6.90106
2.69753
3.35545
3.61179
3.81455
3.93599
4.01229
4.06322
4.09988
4.12888
4.15423
4.17843
4.2032
4.22992
4.25994
4.29488
4.33692
4.38922
4.45657
4.54635
4.67116
4.84856
5.12322
5.43775
6.21944
3.21755
3.49019
3.66852
3.81823
3.92277
3.99476
4.0463
4.0853
4.11704
4.14502
4.1716
4.19849
4.22712
4.25892
4.29557
4.33926
4.39304
4.46124
4.54994
4.66785
4.82596
5.03725
5.26726
5.61524
3.60364
3.67227
3.76458
3.85801
3.93373
3.99224
4.03821
4.07569
4.10785
4.1371
4.16526
4.19377
4.22393
4.25709
4.29482
4.3391
4.39247
4.45812
4.53979
4.64138
4.7656
4.90801
5.03739
5.13964
3.86565
3.85668
3.88624
3.93162
3.97539
4.01406
4.04827
4.07919
4.10799
4.1358
4.16361
4.19233
4.22289
4.25634
4.29387
4.3369
4.38702
4.44578
4.5142
4.59203
4.67643
4.75726
4.80789
4.8053
4.04365
4.01588
4.01317
4.02647
4.04435
4.0634
4.08324
4.10394
4.12572
4.14882
4.17353
4.20019
4.22919
4.26114
4.29652
4.33594
4.3798
4.42807
4.47972
4.53231
4.58131
4.61771
4.62425
4.59153
4.17097
4.14183
4.12676
4.12356
4.12568
4.13083
4.13874
4.14947
4.16309
4.17967
4.19921
4.22171
4.24717
4.27557
4.30684
4.34076
4.37676
4.41368
4.4495
4.48126
4.50502
4.51505
4.50265
4.46758
4.2527
4.22437
4.20571
4.19635
4.19167
4.19003
4.19132
4.1957
4.20338
4.21449
4.22909
4.24713
4.2685
4.29286
4.31985
4.34875
4.37846
4.40728
4.43292
4.45256
4.46321
4.46145
4.44317
4.4114
4.2527
4.22436
4.20571
4.19635
4.19167
4.19003
4.19132
4.1957
4.20338
4.21449
4.22909
4.24713
4.26849
4.29286
4.31984
4.34875
4.37845
4.40728
4.43291
4.45255
4.4632
4.46145
4.44316
4.41139
4.17097
4.14183
4.12677
4.12357
4.12569
4.13084
4.13875
4.14948
4.1631
4.17967
4.19921
4.22171
4.24717
4.27557
4.30684
4.34075
4.37675
4.41366
4.44949
4.48125
4.50501
4.51503
4.50263
4.46756
4.04366
4.01589
4.01318
4.02648
4.04436
4.06342
4.08326
4.10396
4.12573
4.14883
4.17354
4.20019
4.22919
4.26114
4.29652
4.33593
4.37979
4.42805
4.4797
4.53229
4.58129
4.61769
4.62423
4.59151
3.86567
3.8567
3.88626
3.93164
3.97541
4.01408
4.0483
4.07921
4.10801
4.13582
4.16363
4.19234
4.2229
4.25634
4.29386
4.33689
4.387
4.44576
4.51418
4.59201
4.67641
4.75724
4.80787
4.80528
3.60367
3.67229
3.76461
3.85804
3.93376
3.99227
4.03825
4.07573
4.10788
4.13713
4.16528
4.19378
4.22394
4.25709
4.29481
4.33909
4.39246
4.45811
4.53977
4.64136
4.76558
4.90799
5.03737
5.13962
3.2176
3.49022
3.66854
3.81826
3.9228
3.9948
4.04634
4.08533
4.11707
4.14505
4.17163
4.19851
4.22713
4.25892
4.29556
4.33925
4.39303
4.46122
4.54991
4.66782
4.82594
5.03722
5.26723
5.61522
2.69759
3.35548
3.61182
3.81458
3.93602
4.01233
4.06326
4.09992
4.12892
4.15427
4.17846
4.20322
4.22993
4.25994
4.29487
4.33691
4.3892
4.45655
4.54633
4.67114
4.84853
5.12319
5.43772
6.21941
2.0877
3.30218
3.59798
3.83945
3.96261
4.03575
4.08215
4.11458
4.14001
4.16242
4.18419
4.20687
4.23171
4.25994
4.29302
4.333
4.38288
4.44749
4.53437
4.65862
4.83876
5.16177
5.51272
6.90103
1.47272
3.33226
3.6189
3.87998
3.99318
4.05911
4.09943
4.12726
4.14921
4.16893
4.18855
4.20944
4.23266
4.25929
4.29064
4.32857
4.37584
4.43703
4.51914
4.63846
4.8094
5.16013
5.50001
7.58456
0.910417
3.43175
3.66662
3.92478
4.0225
4.07983
4.11401
4.1376
4.1565
4.17394
4.19178
4.21119
4.23308
4.25836
4.28821
4.32429
4.36912
4.42689
4.50383
4.61613
4.77266
5.1257
5.4219
8.21632
0.413104
3.57547
3.73519
3.96816
4.04944
4.09787
4.12633
4.14614
4.1624
4.17791
4.19426
4.21243
4.23319
4.25733
4.28587
4.32031
4.36292
4.4175
4.48946
4.59378
4.73532
5.06466
5.303
8.77107
0.000265274
3.72704
3.80702
4.00509
4.07214
4.1126
4.13626
4.15294
4.16703
4.18098
4.19613
4.21331
4.23317
4.25637
4.28385
4.31694
4.35769
4.40954
4.47728
4.57413
4.70288
4.99635
5.17021
9.21396
)
;

boundaryField
{
    movingWall
    {
        type            zeroGradient;
    }
    fixedWalls
    {
        type            zeroGradient;
    }
    frontAndBack
    {
        type            empty;
    }
}


// ************************************************************************* //
