/*--------------------------------*- C++ -*----------------------------------*\
  =========                 |
  \\      /  F ield         | OpenFOAM: The Open Source CFD Toolbox
   \\    /   O peration     | Website:  https://openfoam.org
    \\  /    A nd           | Version:  8
     \\/     M anipulation  |
\*---------------------------------------------------------------------------*/
FoamFile
{
    version     2.0;
    format      ascii;
    class       surfaceScalarField;
    location    "0.2";
    object      phi;
}
// * * * * * * * * * * * * * * * * * * * * * * * * * * * * * * * * * * * * * //

dimensions      [0 3 -1 0 0 0 0];

internalField   nonuniform List<scalar> 
1104
(
0.001056
-0.001056
0.00113673
-8.07296e-05
0.00117058
-3.3854e-05
0.00118637
-1.5787e-05
0.00119613
-9.75992e-06
0.00120235
-6.22247e-06
0.00120652
-4.16564e-06
0.00120935
-2.82846e-06
0.00121126
-1.91451e-06
0.00121252
-1.25642e-06
0.00121327
-7.53707e-07
0.00121361
-3.38143e-07
0.00121357
4.26894e-08
0.00121313
4.35691e-07
0.00121224
8.90659e-07
0.00121077
1.47132e-06
0.0012085
2.26997e-06
0.00120504
3.45518e-06
0.00119976
5.28695e-06
0.0011911
8.65711e-06
0.00117694
1.41592e-05
0.00114359
3.33527e-05
0.00106294
8.06423e-05
0.00106294
0.000957039
-0.00201304
0.00120572
-0.000329407
0.00133569
-0.00016383
0.00140086
-8.09559e-05
0.00144155
-5.04518e-05
0.00146789
-3.25631e-05
0.00148566
-2.19351e-05
0.00149782
-1.49834e-05
0.0015061
-1.01999e-05
0.00151159
-6.73877e-06
0.00151492
-4.08577e-06
0.00151647
-1.88951e-06
0.00151639
1.21424e-07
0.00151464
2.19056e-06
0.00151095
4.57658e-06
0.00150481
7.6091e-06
0.00149532
1.17649e-05
0.00148088
1.78967e-05
0.00145881
2.73548e-05
0.00142309
4.43733e-05
0.00136484
7.24071e-05
0.0012375
0.000160698
0.000989547
0.000328595
0.00205249
0.000722521
-0.00273556
0.00116146
-0.000768351
0.00143081
-0.000433177
0.00158109
-0.000231238
0.00167691
-0.00014627
0.0017403
-9.59476e-05
0.00178355
-6.51865e-05
0.00181342
-4.48527e-05
0.00183395
-3.0732e-05
0.00184766
-2.04467e-05
0.0018561
-1.2525e-05
0.00186016
-5.95008e-06
0.00186021
7.04222e-08
0.00185615
6.25081e-06
0.00184737
1.33511e-05
0.00183265
2.2334e-05
0.00180982
3.45902e-05
0.00177519
5.25318e-05
0.00172243
8.01116e-05
0.00163863
0.000128173
0.00150286
0.000208175
0.00123832
0.000425244
0.000793857
0.000773055
0.00284635
0.000354736
-0.00309029
0.000960221
-0.00137384
0.00139073
-0.000863682
0.00166669
-0.000507204
0.00185001
-0.000329587
0.00197523
-0.000221168
0.0020623
-0.000152257
0.00212329
-0.000105841
0.00216571
-7.31489e-05
0.00219435
-4.90888e-05
0.00221224
-3.04165e-05
0.00222113
-1.48454e-05
0.00222177
-5.66825e-07
0.00221396
1.40653e-05
0.0021965
3.08058e-05
0.00216697
5.18626e-05
0.00212116
8.04035e-05
0.00205198
0.000121711
0.00194746
0.000184637
0.00178592
0.00028971
0.0015301
0.000463998
0.00110024
0.000855101
0.000463703
0.00140959
0.00331005
-6.39786e-05
-0.00302632
0.000585985
-0.0020238
0.00115171
-0.00142941
0.001577
-0.00093249
0.00187992
-0.000632509
0.0020965
-0.000437751
0.00225163
-0.000307387
0.00236262
-0.000216826
0.0024411
-0.000151634
0.00249489
-0.000102873
0.00252904
-6.45719e-05
0.00254657
-3.237e-05
0.00254873
-2.72822e-06
0.00253517
2.76262e-05
0.00250378
6.21969e-05
0.00245029
0.000105347
0.00236746
0.000163236
0.00224352
0.000245648
0.00205943
0.000368729
0.00178535
0.000563785
0.00137353
0.000875822
0.000785234
0.0014434
5.66634e-05
0.00213816
0.00336671
-0.000424036
-0.00260228
8.72809e-05
-0.00253512
0.000691365
-0.00203349
0.00123616
-0.00147728
0.00166663
-0.00106298
0.00199497
-0.000766094
0.00224076
-0.000553178
0.0024222
-0.000398265
0.00255359
-0.000283022
0.00264539
-0.000194674
0.00270478
-0.000123962
0.00273612
-6.37043e-05
0.0027412
-7.81478e-06
0.00271934
4.9485e-05
0.00266712
0.000114416
0.00257786
0.00019461
0.00244062
0.000300482
0.00223874
0.000447524
0.00194795
0.00065952
0.00153753
0.000974207
0.000974135
0.00143922
0.000299363
0.00211817
-0.000341853
0.00277938
0.00302486
-0.000587604
-0.00201468
-0.000397832
-0.00272489
7.38088e-05
-0.00250513
0.000624226
-0.0020277
0.00112848
-0.00156723
0.00155012
-0.00118774
0.00188639
-0.000889447
0.00214611
-0.000657988
0.0023406
-0.000477504
0.00248
-0.000334077
0.00257205
-0.000216013
0.00262162
-0.000113272
0.00263054
-1.67352e-05
0.00259741
8.26136e-05
0.00251729
0.000194538
0.00238119
0.000330704
0.0021756
0.00050608
0.00188242
0.000740702
0.00148112
0.00106082
0.000958594
0.00149673
0.000332673
0.00206514
-0.000263925
0.00271477
-0.000590243
0.0031057
0.00243462
-0.000555973
-0.0014587
-0.000731667
-0.00254919
-0.000555278
-0.00268152
-0.000178099
-0.00240488
0.000261005
-0.00200634
0.000683096
-0.00160983
0.00105248
-0.00125883
0.00135713
-0.000962632
0.0015963
-0.000716675
0.00177358
-0.00051136
0.00189315
-0.000335587
0.00195783
-0.000177952
0.00196803
-2.69345e-05
0.00192118
0.000129472
0.0018114
0.000304313
0.00162974
0.000512369
0.00136522
0.000770599
0.0010083
0.00109762
0.000559057
0.00151006
4.46139e-05
0.00201117
-0.000451845
0.0025616
-0.000751938
0.00301486
-0.000641134
0.00299489
0.00179348
-0.000436424
-0.00102228
-0.000869529
-0.00211609
-0.00106022
-0.00249083
-0.00102247
-0.00244263
-0.000839188
-0.00218962
-0.000588526
-0.00186049
-0.000324754
-0.0015226
-8.05093e-05
-0.00120688
0.000126525
-0.00092371
0.000287529
-0.000672364
0.000398154
-0.000446212
0.000455675
-0.000235473
0.000457307
-2.85663e-05
0.000399659
0.00018712
0.000278641
0.000425331
9.11033e-05
0.000699907
-0.000161815
0.00102352
-0.000468402
0.00140421
-0.00079628
0.00183794
-0.0010794
0.00229429
-0.00120938
0.00269157
-0.00105403
0.00285952
-0.000561623
0.00250248
0.00123186
-0.000341338
-0.000680942
-0.000911908
-0.00154552
-0.00143876
-0.00196398
-0.00182149
-0.00205989
-0.00205448
-0.00195663
-0.002169
-0.00174598
-0.0022035
-0.00148811
-0.00219166
-0.00121872
-0.00215925
-0.000956123
-0.00212464
-0.000706969
-0.00210045
-0.000470404
-0.00209499
-0.000240937
-0.00211375
-9.80659e-06
-0.00215747
0.00023085
-0.00222428
0.000492135
-0.00230553
0.000781157
-0.0023832
0.00110118
-0.0024258
0.00144681
-0.00238523
0.00179737
-0.00219867
0.00210774
-0.0018043
0.00229719
-0.00118566
0.00224088
-0.000460661
0.00177749
0.000771201
-0.000316747
-0.000364195
-0.00100164
-0.000860623
-0.00182574
-0.00113989
-0.00264035
-0.00124529
-0.00336879
-0.00122818
-0.00398169
-0.00113307
-0.0044763
-0.000993496
-0.00486268
-0.00083234
-0.00515528
-0.000663524
-0.00536822
-0.000494032
-0.00551277
-0.000325852
-0.00559607
-0.000157639
-0.00562026
1.43843e-05
-0.00558186
0.000192448
-0.00547134
0.000381613
-0.00527268
0.000582502
-0.0049638
0.000792304
-0.00451868
0.00100168
-0.00391303
0.00119173
-0.00313624
0.00133094
-0.00221253
0.00137348
-0.00123322
0.00126157
-0.000393424
0.000937694
0.000377777
-0.000364222
2.68715e-08
-0.00122492
7.07756e-08
-0.0023649
1.01331e-07
-0.00361031
1.21086e-07
-0.00483862
1.31999e-07
-0.00597183
1.34952e-07
-0.00696546
1.30506e-07
-0.00779792
1.19211e-07
-0.00846154
1.01731e-07
-0.00895565
7.88931e-08
-0.00928156
5.17073e-08
-0.00943922
2.13703e-08
-0.00942482
-1.0727e-08
-0.00923233
-4.29567e-08
-0.00885064
-7.36579e-08
-0.00826804
-1.01005e-07
-0.00747561
-1.23153e-07
-0.00647379
-1.38288e-07
-0.00528192
-1.44735e-07
-0.00395083
-1.41128e-07
-0.00257723
-1.26673e-07
-0.00131556
-1.0149e-07
-0.000377798
-6.57676e-08
-2.11096e-08
-0.000364213
0.00036424
-0.00122489
0.000860745
-0.00236485
0.00114006
-0.00361023
0.0012455
-0.00483851
0.00122842
-0.0059717
0.00113332
-0.0069653
0.000993737
-0.00779775
0.000832564
-0.00846136
0.000663719
-0.00895547
0.000494186
-0.00928138
0.000325959
-0.00943905
0.000157691
-0.00942467
-1.43915e-05
-0.00923219
-0.000192515
-0.00885053
-0.000381738
-0.00826795
-0.000582679
-0.00747555
-0.000792525
-0.00647375
-0.00100193
-0.0052819
-0.001192
-0.00395083
-0.00133121
-0.00257723
-0.00137372
-0.00131556
-0.00126177
-0.000377801
-0.000937827
-0.000377822
-0.000316731
0.000680971
-0.00100159
0.0015456
-0.00182564
0.00196411
-0.00264019
0.00206005
-0.00336858
0.00195681
-0.00398143
0.00174617
-0.004476
0.0014883
-0.00486234
0.00121891
-0.00515492
0.000956293
-0.00536784
0.00070711
-0.00551239
0.000470508
-0.0055957
0.000240997
-0.00561991
9.82067e-06
-0.00558154
-0.000230886
-0.00547106
-0.00049222
-0.00527245
-0.000781288
-0.00496362
-0.00110135
-0.00451855
-0.00144701
-0.00391295
-0.0017976
-0.0031362
-0.00210796
-0.00221251
-0.00229741
-0.00123321
-0.00224106
-0.000393426
-0.00177762
-0.000771248
-0.000341325
0.0010223
-0.000911864
0.00211614
-0.00143867
0.00249091
-0.00182135
0.00244274
-0.00205429
0.00218975
-0.00216876
0.00186064
-0.00220321
0.00152275
-0.00219132
0.00120702
-0.00215888
0.000923846
-0.00212425
0.000672481
-0.00210004
0.000446302
-0.00209458
0.000235532
-0.00211335
2.85894e-05
-0.0021571
-0.000187135
-0.00222393
-0.000425383
-0.00230522
-0.000699996
-0.00238294
-0.00102364
-0.00242559
-0.00140435
-0.00238508
-0.00183811
-0.00219858
-0.00229447
-0.00180424
-0.00269175
-0.00118564
-0.00285967
-0.000460658
-0.00250259
-0.00123191
-0.000436418
0.00145871
-0.000869503
0.00254923
-0.00106016
0.00268157
-0.00102237
0.00240494
-0.000839044
0.00200642
-0.000588337
0.00160993
-0.000324522
0.00125894
-8.02365e-05
0.000962738
0.000126833
0.000716776
0.000287866
0.000511449
0.000398511
0.000335657
0.000456043
0.000178
0.000457675
2.6957e-05
0.000400016
-0.000129477
0.000278978
-0.000304345
9.14105e-05
-0.000512428
-0.000161546
-0.000770682
-0.000468179
-0.00109772
-0.000796107
-0.00151018
-0.00107928
-0.0020113
-0.0012093
-0.00256172
-0.001054
-0.00301497
-0.000561615
-0.00299498
-0.00179352
-0.000555972
0.00201469
-0.000731654
0.00272491
-0.000555242
0.00250516
-0.000178036
0.00202774
0.000261101
0.00156729
0.000683228
0.0011878
0.00105265
0.000889516
0.00135733
0.000658059
0.00159653
0.000477573
0.00177384
0.000334138
0.00189344
0.000216063
0.00195813
0.000113307
0.00196834
1.67527e-05
0.00192147
-8.26144e-05
0.00181169
-0.000194558
0.00163
-0.000330741
0.00136545
-0.000506134
0.0010085
-0.00074077
0.000559218
-0.0010609
4.47323e-05
-0.00149681
-0.000451769
-0.00206522
-0.0007519
-0.00271484
-0.000641123
-0.00310575
-0.00243464
-0.000587604
0.00260229
-0.000397823
0.00253513
7.3831e-05
0.00203351
0.000624266
0.0014773
0.00112854
0.00106301
0.00155021
0.000766131
0.00188651
0.00055322
0.00214626
0.000398308
0.00234077
0.000283064
0.00248019
0.000194713
0.00257226
0.000123994
0.00262184
6.37268e-05
0.00263077
7.82654e-06
0.00259764
-4.94845e-05
0.00251751
-0.000114427
0.0023814
-0.000194633
0.00217578
-0.000300516
0.00188258
-0.000447566
0.00148125
-0.000659568
0.000958689
-0.000974257
0.000332736
-0.00143927
-0.000263892
-0.00211822
-0.000590233
-0.00277941
-0.00302488
-0.000424034
0.00302632
8.72891e-05
0.00202381
0.00069138
0.00142941
0.00123618
0.000932501
0.00166667
0.000632525
0.00199503
0.00043777
0.00224084
0.000307409
0.0024223
0.00021685
0.00255371
0.000151659
0.00264552
0.000102895
0.00270493
6.459e-05
0.00273627
3.23831e-05
0.00274136
2.73528e-06
0.0027195
-2.76255e-05
0.00266728
-6.22029e-05
0.00257801
-0.00010536
0.00244075
-0.000163255
0.00223885
-0.000245672
0.00194804
-0.000368756
0.0015376
-0.000563814
0.00097418
-0.00087585
0.000299387
-0.00144342
-0.000341845
-0.00213818
-0.00336672
-6.39759e-05
0.0030903
0.000585991
0.00137384
0.00115172
0.000863686
0.00157701
0.000507209
0.00187994
0.000329594
0.00209654
0.000221177
0.00225168
0.000152267
0.00236267
0.000105853
0.00244117
7.31612e-05
0.00249497
4.91001e-05
0.00252913
3.04257e-05
0.00254666
1.48522e-05
0.00254883
5.70579e-07
0.00253527
-1.40647e-05
0.00250387
-3.08087e-05
0.00245038
-5.1869e-05
0.00236754
-8.04131e-05
0.00224359
-0.000121724
0.00205948
-0.000184651
0.0017854
-0.000289725
0.00137356
-0.000464012
0.000785249
-0.000855114
5.66679e-05
-0.0014096
-0.00331005
0.000354738
0.00273556
0.000960225
0.000768352
0.00139073
0.000433178
0.0016667
0.000231239
0.00185002
0.000146273
0.00197525
9.5951e-05
0.00206233
6.5191e-05
0.00212332
4.48579e-05
0.00216575
3.07373e-05
0.00219439
2.04518e-05
0.00221229
1.25291e-05
0.00222119
5.95318e-06
0.00222183
-6.86599e-08
0.00221401
-6.25043e-06
0.00219656
-1.33522e-05
0.00216703
-2.23367e-05
0.00212121
-3.45943e-05
0.00205202
-5.25372e-05
0.00194749
-8.01174e-05
0.00178594
-0.000128179
0.00153011
-0.000208181
0.00110025
-0.000425249
0.000463706
-0.000773059
-0.00284635
0.000722522
0.00201304
0.00116147
0.000329407
0.00143081
0.00016383
0.0015811
8.0956e-05
0.00167692
5.04526e-05
0.0017403
3.25642e-05
0.00178356
2.19366e-05
0.00181343
1.49851e-05
0.00183397
1.02017e-05
0.00184768
6.74052e-06
0.00185612
4.08718e-06
0.00186018
1.89062e-06
0.00186024
-1.20779e-07
0.00185618
-2.19039e-06
0.0018474
-4.57692e-06
0.00183267
-7.61e-06
0.00180985
-1.17662e-05
0.00177521
-1.78985e-05
0.00172245
-2.73567e-05
0.00163864
-4.43753e-05
0.00150287
-7.24091e-05
0.00123832
-0.0001607
0.000793857
-0.000328596
-0.00205249
0.000957041
0.001056
0.00120572
8.07294e-05
0.00133569
3.38538e-05
0.00140086
1.57869e-05
0.00144156
9.76009e-06
0.0014679
6.22268e-06
0.00148567
4.16589e-06
0.00149782
2.82875e-06
0.00150611
1.91483e-06
0.00151159
1.25675e-06
0.00151493
7.5397e-07
0.00151648
3.38361e-07
0.0015164
-4.25601e-08
0.00151465
-4.3566e-07
0.00151096
-8.9072e-07
0.00150482
-1.4715e-06
0.00149533
-2.27021e-06
0.00148088
-3.45553e-06
0.00145881
-5.28729e-06
0.0014231
-8.65749e-06
0.00136485
-1.41596e-05
0.0012375
-3.3353e-05
0.000989547
-8.06425e-05
-0.00106294
0.001056
0.00113673
0.00117058
0.00118637
0.00119613
0.00120235
0.00120652
0.00120935
0.00121126
0.00121252
0.00121327
0.00121361
0.00121357
0.00121313
0.00121224
0.00121077
0.0012085
0.00120504
0.00119976
0.0011911
0.00117694
0.00114359
0.00106294
)
;

boundaryField
{
    movingWall
    {
        type            calculated;
        value           uniform 0;
    }
    fixedWalls
    {
        type            calculated;
        value           uniform 0;
    }
    frontAndBack
    {
        type            empty;
        value           nonuniform List<scalar> 0();
    }
}


// ************************************************************************* //
