/*--------------------------------*- C++ -*----------------------------------*\
  =========                 |
  \\      /  F ield         | OpenFOAM: The Open Source CFD Toolbox
   \\    /   O peration     | Website:  https://openfoam.org
    \\  /    A nd           | Version:  8
     \\/     M anipulation  |
\*---------------------------------------------------------------------------*/
FoamFile
{
    version     2.0;
    format      ascii;
    class       volVectorField;
    location    "0.2";
    object      U;
}
// * * * * * * * * * * * * * * * * * * * * * * * * * * * * * * * * * * * * * //

dimensions      [0 1 -1 0 0 0 0];

internalField   nonuniform List<vector> 
576
(
(0.842751 -0.0656901 0)
(0.884827 -0.0044591 0)
(0.93785 -0.00165013 0)
(0.952179 -0.000689649 0)
(0.962209 -0.000422772 0)
(0.96823 -0.000263626 0)
(0.972252 -0.000174679 0)
(0.974971 -0.000117383 0)
(0.976823 -7.86416e-05 0)
(0.978064 -5.09676e-05 0)
(0.978852 -2.99466e-05 0)
(0.979281 -1.26036e-05 0)
(0.979398 3.32665e-06 0)
(0.979211 1.98695e-05 0)
(0.978693 3.91629e-05 0)
(0.977772 6.398e-05 0)
(0.976314 9.8327e-05 0)
(0.974104 0.000149896 0)
(0.970711 0.000229585 0)
(0.965604 0.000383723 0)
(0.956327 0.000624475 0)
(0.944073 0.00165178 0)
(0.888962 0.00435238 0)
(0.851518 0.0657957 0)
(0.563346 -0.195406 0)
(0.659749 -0.0220762 0)
(0.798744 -0.00983071 0)
(0.844761 -0.0045422 0)
(0.876217 -0.00280024 0)
(0.89559 -0.00178161 0)
(0.908606 -0.00119118 0)
(0.917479 -0.000808255 0)
(0.923564 -0.000546756 0)
(0.927672 -0.000358571 0)
(0.930307 -0.000214871 0)
(0.93177 -9.61008e-05 0)
(0.932214 1.27478e-05 0)
(0.931671 0.000125131 0)
(0.930053 0.000255285 0)
(0.927135 0.000421502 0)
(0.922497 0.000650261 0)
(0.915451 0.000990306 0)
(0.904673 0.00151609 0)
(0.888404 0.00249082 0)
(0.859658 0.00407192 0)
(0.820092 0.00970098 0)
(0.675607 0.0217436 0)
(0.591363 0.197078 0)
(0.30981 -0.300352 0)
(0.427283 -0.0637981 0)
(0.630325 -0.0332282 0)
(0.711455 -0.0167993 0)
(0.767104 -0.0104579 0)
(0.802475 -0.00676775 0)
(0.826499 -0.00456134 0)
(0.843049 -0.00311848 0)
(0.854495 -0.00212467 0)
(0.862288 -0.00140514 0)
(0.867336 -0.00085333 0)
(0.870191 -0.000396392 0)
(0.871137 2.19299e-05 0)
(0.870236 0.000452289 0)
(0.86733 0.000948294 0)
(0.862011 0.00157839 0)
(0.853524 0.00244175 0)
(0.840618 0.00371437 0)
(0.820972 0.00568075 0)
(0.791326 0.00919215 0)
(0.740683 0.0150434 0)
(0.669439 0.0325441 0)
(0.45702 0.0635161 0)
(0.352649 0.308093 0)
(0.111732 -0.36366 0)
(0.211013 -0.129765 0)
(0.440804 -0.0764105 0)
(0.553308 -0.0424074 0)
(0.632824 -0.0269448 0)
(0.685681 -0.0177815 0)
(0.722281 -0.0121119 0)
(0.747895 -0.00835203 0)
(0.765826 -0.00573361 0)
(0.778168 -0.00382255 0)
(0.786262 -0.0023485 0)
(0.79093 -0.00112403 0)
(0.792604 -2.74698e-06 0)
(0.791379 0.00114779 0)
(0.787021 0.00246821 0)
(0.778916 0.00413665 0)
(0.765931 0.00641062 0)
(0.746201 0.00973046 0)
(0.716413 0.0148348 0)
(0.67172 0.0235942 0)
(0.598835 0.0383339 0)
(0.496085 0.075005 0)
(0.251309 0.1315 0)
(0.156775 0.383458 0)
(-0.0114649 -0.376815 0)
(0.0397482 -0.209682 0)
(0.24918 -0.139056 0)
(0.378354 -0.0856181 0)
(0.475593 -0.0564081 0)
(0.54437 -0.0382338 0)
(0.593552 -0.0264702 0)
(0.628798 -0.0184759 0)
(0.653918 -0.012812 0)
(0.671469 -0.00862613 0)
(0.683149 -0.00536788 0)
(0.690026 -0.00264575 0)
(0.692665 -0.000148066 0)
(0.691191 0.00241 0)
(0.685283 0.00533234 0)
(0.674113 0.00900017 0)
(0.65618 0.013959 0)
(0.629043 0.0211026 0)
(0.588629 0.0319383 0)
(0.528969 0.049675 0)
(0.437487 0.0789548 0)
(0.312217 0.138343 0)
(0.0802348 0.218015 0)
(0.0214031 0.412345 0)
(-0.0613434 -0.342482 0)
(-0.0641642 -0.283016 0)
(0.0832746 -0.213396 0)
(0.204083 -0.146628 0)
(0.305198 -0.101932 0)
(0.382965 -0.0716551 0)
(0.441434 -0.0508206 0)
(0.484844 -0.0360997 0)
(0.516602 -0.0253845 0)
(0.539255 -0.0173069 0)
(0.554606 -0.0109264 0)
(0.563832 -0.00554225 0)
(0.567565 -0.000577689 0)
(0.565922 0.00450443 0)
(0.558496 0.0102808 0)
(0.544277 0.0174655 0)
(0.521496 0.0270571 0)
(0.487388 0.040604 0)
(0.437741 0.0606083 0)
(0.366879 0.091509 0)
(0.266604 0.139534 0)
(0.139232 0.218017 0)
(-0.0370478 0.304473 0)
(-0.0474771 0.39118 0)
(-0.060983 -0.277688 0)
(-0.099651 -0.32561 0)
(-0.0306648 -0.281952 0)
(0.0551652 -0.2166 0)
(0.140457 -0.161287 0)
(0.214021 -0.118875 0)
(0.273571 -0.0871647 0)
(0.32013 -0.063449 0)
(0.355506 -0.0454706 0)
(0.381469 -0.0315003 0)
(0.399459 -0.0202074 0)
(0.410481 -0.0105177 0)
(0.415071 -0.00149647 0)
(0.413271 0.00775577 0)
(0.404598 0.0182134 0)
(0.387973 0.031059 0)
(0.361638 0.0478725 0)
(0.323087 0.070912 0)
(0.269105 0.10344 0)
(0.196527 0.150011 0)
(0.104394 0.215087 0)
(0.00298633 0.299315 0)
(-0.0934676 0.364635 0)
(-0.0620917 0.330354 0)
(-0.0407619 -0.20668 0)
(-0.0891425 -0.323428 0)
(-0.0839929 -0.32218 0)
(-0.0472278 -0.276144 0)
(0.00445443 -0.22226 0)
(0.0576594 -0.173354 0)
(0.105766 -0.132556 0)
(0.14635 -0.099595 0)
(0.178918 -0.0731411 0)
(0.20378 -0.0516628 0)
(0.221479 -0.0336932 0)
(0.232476 -0.01787 0)
(0.236988 -0.00289435 0)
(0.234899 0.0125454 0)
(0.225707 0.0298849 0)
(0.208511 0.050802 0)
(0.182065 0.0773599 0)
(0.145008 0.11211 0)
(0.0964395 0.157943 0)
(0.0373771 0.21714 0)
(-0.0262199 0.288061 0)
(-0.0789665 0.356985 0)
(-0.0999412 0.376378 0)
(-0.0479448 0.252794 0)
(-0.0219673 -0.146375 0)
(-0.0634592 -0.282617 0)
(-0.0923907 -0.319048 0)
(-0.0989811 -0.302155 0)
(-0.0873339 -0.262918 0)
(-0.0660524 -0.217879 0)
(-0.0416097 -0.174658 0)
(-0.0178725 -0.136147 0)
(0.00301829 -0.102869 0)
(0.0199643 -0.0742246 0)
(0.0324401 -0.0491045 0)
(0.0401711 -0.0261638 0)
(0.0429319 -0.00392818 0)
(0.0404498 0.0191838 0)
(0.0323712 0.0449047 0)
(0.0183215 0.0751083 0)
(-0.00188103 0.11175 0)
(-0.0278117 0.156581 0)
(-0.0577212 0.210344 0)
(-0.0873658 0.270935 0)
(-0.108492 0.329761 0)
(-0.108975 0.365535 0)
(-0.0805819 0.336034 0)
(-0.0288082 0.179141 0)
(-0.0113115 -0.100129 0)
(-0.0428116 -0.219671 0)
(-0.0826502 -0.272256 0)
(-0.115731 -0.279365 0)
(-0.13715 -0.260164 0)
(-0.148619 -0.2281 0)
(-0.153158 -0.191471 0)
(-0.153434 -0.15485 0)
(-0.151521 -0.120338 0)
(-0.14893 -0.0884888 0)
(-0.146712 -0.0589242 0)
(-0.145575 -0.0307163 0)
(-0.145985 -0.00261412 0)
(-0.148164 0.02681 0)
(-0.152089 0.0590356 0)
(-0.157431 0.0954162 0)
(-0.163317 0.13687 0)
(-0.168089 0.18332 0)
(-0.169021 0.232725 0)
(-0.162124 0.279597 0)
(-0.142377 0.312983 0)
(-0.105988 0.31443 0)
(-0.0575144 0.257977 0)
(-0.0156753 0.117557 0)
(-0.00697749 -0.0615754 0)
(-0.0322283 -0.143841 0)
(-0.0735194 -0.188636 0)
(-0.118789 -0.204246 0)
(-0.160576 -0.19979 0)
(-0.196321 -0.182929 0)
(-0.225579 -0.159313 0)
(-0.248731 -0.13271 0)
(-0.266514 -0.105337 0)
(-0.279728 -0.0782397 0)
(-0.289072 -0.0516364 0)
(-0.295045 -0.0252044 0)
(-0.297897 0.00169424 0)
(-0.297597 0.0298194 0)
(-0.293801 0.0598269 0)
(-0.285828 0.0920607 0)
(-0.272649 0.126231 0)
(-0.252951 0.160986 0)
(-0.225319 0.193375 0)
(-0.188615 0.218265 0)
(-0.142697 0.22792 0)
(-0.0902335 0.212214 0)
(-0.0403902 0.160505 0)
(-0.00888432 0.0664818 0)
(-0.00573984 -0.0215525 0)
(-0.0287489 -0.0515643 0)
(-0.0700286 -0.0694015 0)
(-0.119956 -0.0772202 0)
(-0.171078 -0.0775677 0)
(-0.21936 -0.0727704 0)
(-0.262579 -0.064705 0)
(-0.299544 -0.0547537 0)
(-0.329746 -0.0438361 0)
(-0.353081 -0.0324811 0)
(-0.369603 -0.0209174 0)
(-0.379362 -0.00916686 0)
(-0.382291 0.00286652 0)
(-0.378191 0.0153093 0)
(-0.366695 0.02822 0)
(-0.347314 0.0415018 0)
(-0.319578 0.0547857 0)
(-0.28325 0.0673004 0)
(-0.238644 0.0777426 0)
(-0.187034 0.0841932 0)
(-0.131149 0.0841633 0)
(-0.0760623 0.0748994 0)
(-0.0306595 0.0541363 0)
(-0.00588802 0.0213698 0)
(-0.00573971 0.0215587 0)
(-0.0287482 0.051581 0)
(-0.070027 0.0694256 0)
(-0.119953 0.077249 0)
(-0.171074 0.0775992 0)
(-0.219355 0.0728026 0)
(-0.262574 0.0647362 0)
(-0.299537 0.0547821 0)
(-0.329739 0.0438603 0)
(-0.353073 0.0324999 0)
(-0.369596 0.0209297 0)
(-0.379355 0.00917185 0)
(-0.382285 -0.00286922 0)
(-0.378185 -0.0153197 0)
(-0.36669 -0.0282378 0)
(-0.34731 -0.0415262 0)
(-0.319575 -0.0548154 0)
(-0.283248 -0.0673337 0)
(-0.238643 -0.0777775 0)
(-0.187034 -0.0842272 0)
(-0.131149 -0.0841938 0)
(-0.0760625 -0.0749239 0)
(-0.0306597 -0.0541523 0)
(-0.00588807 -0.021375 0)
(-0.00697717 0.0615799 0)
(-0.0322267 0.143854 0)
(-0.0735155 0.188655 0)
(-0.118782 0.204269 0)
(-0.160566 0.199816 0)
(-0.196309 0.182957 0)
(-0.225564 0.15934 0)
(-0.248714 0.132735 0)
(-0.266495 0.105359 0)
(-0.279708 0.0782579 0)
(-0.289052 0.0516494 0)
(-0.295025 0.0252113 0)
(-0.297877 -0.00169387 0)
(-0.29758 -0.0298257 0)
(-0.293786 -0.0598398 0)
(-0.285815 -0.0920797 0)
(-0.272638 -0.126255 0)
(-0.252943 -0.161014 0)
(-0.225314 -0.193406 0)
(-0.188612 -0.218296 0)
(-0.142696 -0.227948 0)
(-0.0902332 -0.212238 0)
(-0.0403904 -0.160521 0)
(-0.00888442 -0.0664874 0)
(-0.0113112 0.100132 0)
(-0.04281 0.219679 0)
(-0.0826457 0.272268 0)
(-0.115723 0.279381 0)
(-0.137139 0.260183 0)
(-0.148603 0.228121 0)
(-0.153139 0.191493 0)
(-0.153412 0.154871 0)
(-0.151496 0.120357 0)
(-0.148903 0.0885048 0)
(-0.146684 0.0589363 0)
(-0.145547 0.0307239 0)
(-0.145957 0.00261666 0)
(-0.148136 -0.0268128 0)
(-0.152064 -0.0590437 0)
(-0.157408 -0.0954294 0)
(-0.163298 -0.136888 0)
(-0.168073 -0.183341 0)
(-0.169009 -0.232749 0)
(-0.162115 -0.279622 0)
(-0.142372 -0.313007 0)
(-0.105986 -0.314451 0)
(-0.0575139 -0.257992 0)
(-0.0156753 -0.117562 0)
(-0.0219672 0.146376 0)
(-0.0634581 0.282622 0)
(-0.092387 0.319056 0)
(-0.0989739 0.302166 0)
(-0.0873228 0.262931 0)
(-0.0660372 0.217894 0)
(-0.0415904 0.174674 0)
(-0.0178494 0.136162 0)
(0.00304493 0.102883 0)
(0.0199939 0.0742372 0)
(0.0324719 0.0491145 0)
(0.0402043 0.0261705 0)
(0.0429657 0.00393121 0)
(0.0404831 -0.0191847 0)
(0.0324031 -0.0449096 0)
(0.0183511 -0.075117 0)
(-0.00185456 -0.111762 0)
(-0.0277892 -0.156596 0)
(-0.0577031 -0.210361 0)
(-0.0873523 -0.270954 0)
(-0.108483 -0.329779 0)
(-0.10897 -0.365551 0)
(-0.0805803 -0.336046 0)
(-0.028808 -0.179146 0)
(-0.0407622 0.206681 0)
(-0.0891421 0.323431 0)
(-0.0839902 0.322184 0)
(-0.0472219 0.27615 0)
(0.00446395 0.222268 0)
(0.057673 0.173363 0)
(0.105784 0.132566 0)
(0.146372 0.0996058 0)
(0.178944 0.0731514 0)
(0.20381 0.051672 0)
(0.221512 0.0337006 0)
(0.232511 0.0178751 0)
(0.237025 0.00289691 0)
(0.234936 -0.0125456 0)
(0.225743 -0.0298879 0)
(0.208544 -0.0508077 0)
(0.182095 -0.077368 0)
(0.145034 -0.11212 0)
(0.0964613 -0.157954 0)
(0.0373939 -0.217152 0)
(-0.0262082 -0.288074 0)
(-0.0789598 -0.356997 0)
(-0.0999386 -0.376387 0)
(-0.0479443 -0.252798 0)
(-0.0609835 0.277689 0)
(-0.0996508 0.325611 0)
(-0.0306626 0.281955 0)
(0.05517 0.216603 0)
(0.140464 0.161292 0)
(0.214033 0.118881 0)
(0.273587 0.0871713 0)
(0.320151 0.0634559 0)
(0.355531 0.0454773 0)
(0.381498 0.0315063 0)
(0.399491 0.0202123 0)
(0.410516 0.0105212 0)
(0.415107 0.00149826 0)
(0.413308 -0.00775577 0)
(0.404633 -0.0182153 0)
(0.388007 -0.0310626 0)
(0.361669 -0.0478778 0)
(0.323114 -0.0709185 0)
(0.269128 -0.103447 0)
(0.196545 -0.150019 0)
(0.104406 -0.215095 0)
(0.00299375 -0.299323 0)
(-0.0934646 -0.364641 0)
(-0.0620912 -0.330356 0)
(-0.0613439 0.342483 0)
(-0.0641637 0.283017 0)
(0.0832768 0.213397 0)
(0.204087 0.14663 0)
(0.305204 0.101934 0)
(0.382975 0.0716583 0)
(0.441447 0.0508243 0)
(0.484861 0.0361037 0)
(0.516624 0.0253884 0)
(0.53928 0.0173105 0)
(0.554635 0.0109294 0)
(0.563863 0.00554435 0)
(0.567597 0.000578797 0)
(0.565955 -0.00450436 0)
(0.558529 -0.0102818 0)
(0.544308 -0.0174676 0)
(0.521525 -0.0270602 0)
(0.487412 -0.0406079 0)
(0.437762 -0.0606127 0)
(0.366895 -0.0915137 0)
(0.266616 -0.139538 0)
(0.139239 -0.218021 0)
(-0.0370449 -0.304477 0)
(-0.0474766 -0.391181 0)
(-0.0114654 0.376816 0)
(0.0397489 0.209682 0)
(0.249182 0.139057 0)
(0.378358 0.085619 0)
(0.475598 0.0564093 0)
(0.544377 0.0382354 0)
(0.593563 0.0264721 0)
(0.628813 0.018478 0)
(0.653935 0.0128141 0)
(0.67149 0.00862805 0)
(0.683173 0.00536944 0)
(0.690052 0.00264689 0)
(0.692692 0.000148678 0)
(0.691218 -0.00240993 0)
(0.68531 -0.00533287 0)
(0.674139 -0.0090013 0)
(0.656204 -0.0139607 0)
(0.629064 -0.0211047 0)
(0.588646 -0.0319407 0)
(0.528983 -0.0496775 0)
(0.437496 -0.0789572 0)
(0.312222 -0.138345 0)
(0.0802371 -0.218017 0)
(0.0214035 -0.412346 0)
(0.111731 0.363661 0)
(0.211014 0.129765 0)
(0.440806 0.0764107 0)
(0.553311 0.0424077 0)
(0.632828 0.0269453 0)
(0.685686 0.0177821 0)
(0.722289 0.0121127 0)
(0.747905 0.00835298 0)
(0.765839 0.00573459 0)
(0.778183 0.00382347 0)
(0.786279 0.00234925 0)
(0.790949 0.00112459 0)
(0.792624 3.06266e-06 0)
(0.7914 -0.00114773 0)
(0.787042 -0.00246843 0)
(0.778935 -0.00413716 0)
(0.765949 -0.00641139 0)
(0.746216 -0.00973147 0)
(0.716425 -0.0148359 0)
(0.671729 -0.0235954 0)
(0.598842 -0.038335 0)
(0.496089 -0.0750061 0)
(0.25131 -0.1315 0)
(0.156775 -0.383459 0)
(0.309809 0.300352 0)
(0.427283 0.0637978 0)
(0.630327 0.0332282 0)
(0.711457 0.0167994 0)
(0.767107 0.0104581 0)
(0.802478 0.00676791 0)
(0.826504 0.00456157 0)
(0.843056 0.00311879 0)
(0.854503 0.00212501 0)
(0.862297 0.00140548 0)
(0.867347 0.000853601 0)
(0.870204 0.000396608 0)
(0.87115 -2.1799e-05 0)
(0.870249 -0.000452253 0)
(0.867343 -0.000948365 0)
(0.862024 -0.00157858 0)
(0.853535 -0.00244204 0)
(0.840628 -0.00371477 0)
(0.82098 -0.00568116 0)
(0.791332 -0.00919258 0)
(0.740688 -0.0150439 0)
(0.669442 -0.0325445 0)
(0.457021 -0.0635163 0)
(0.352649 -0.308093 0)
(0.563346 0.195407 0)
(0.65975 0.0220767 0)
(0.798745 0.00983076 0)
(0.844763 0.00454223 0)
(0.876218 0.00280035 0)
(0.895591 0.00178173 0)
(0.908608 0.00119132 0)
(0.917482 0.000808391 0)
(0.923568 0.000546892 0)
(0.927677 0.000358713 0)
(0.930313 0.000214982 0)
(0.931776 9.61828e-05 0)
(0.932221 -1.27041e-05 0)
(0.931678 -0.000125118 0)
(0.93006 -0.000255294 0)
(0.927141 -0.000421546 0)
(0.922503 -0.000650315 0)
(0.915457 -0.00099039 0)
(0.904677 -0.00151617 0)
(0.888407 -0.00249092 0)
(0.85966 -0.00407203 0)
(0.820094 -0.00970108 0)
(0.675608 -0.0217437 0)
(0.591363 -0.197078 0)
(0.842751 0.0656908 0)
(0.884828 0.00445918 0)
(0.93785 0.0016501 0)
(0.952179 0.000689629 0)
(0.962209 0.000422793 0)
(0.968231 0.000263619 0)
(0.972252 0.000174657 0)
(0.974972 0.000117375 0)
(0.976824 7.86506e-05 0)
(0.978065 5.09866e-05 0)
(0.978854 2.99629e-05 0)
(0.979283 1.26178e-05 0)
(0.9794 -3.31728e-06 0)
(0.979213 -1.98632e-05 0)
(0.978695 -3.91585e-05 0)
(0.977774 -6.39801e-05 0)
(0.976316 -9.83304e-05 0)
(0.974105 -0.000149917 0)
(0.970712 -0.000229596 0)
(0.965605 -0.000383731 0)
(0.956328 -0.000624493 0)
(0.944074 -0.00165179 0)
(0.888962 -0.0043524 0)
(0.851518 -0.0657957 0)
)
;

boundaryField
{
    movingWall
    {
        type            fixedValue;
        value           uniform (1 0 0);
    }
    fixedWalls
    {
        type            noSlip;
    }
    frontAndBack
    {
        type            empty;
    }
}


// ************************************************************************* //
