/*--------------------------------*- C++ -*----------------------------------*\
  =========                 |
  \\      /  F ield         | OpenFOAM: The Open Source CFD Toolbox
   \\    /   O peration     | Website:  https://openfoam.org
    \\  /    A nd           | Version:  8
     \\/     M anipulation  |
\*---------------------------------------------------------------------------*/
FoamFile
{
    version     2.0;
    format      ascii;
    class       volScalarField;
    location    "850";
    object      epsilon;
}
// * * * * * * * * * * * * * * * * * * * * * * * * * * * * * * * * * * * * * //

dimensions      [0 2 -3 0 0 0 0];

internalField   nonuniform List<scalar> 
7320
(
11607.3
10157.7
9314.43
8772.21
8390.2
8102.79
7875.93
7690.7
7535.77
7403.76
7289.61
7189.73
7101.46
7022.84
6952.31
6888.69
6831
6778.46
6730.43
6686.38
6645.85
6608.48
6573.93
6541.93
6512.24
6484.64
6458.97
6435.04
6412.73
6391.9
6372.44
6354.26
6337.25
6321.34
6306.45
6292.52
6279.48
6267.29
6255.88
6245.21
6235.24
6225.92
6217.24
6209.14
6201.59
6194.58
6188.07
6182.04
6176.46
6171.31
6166.58
6162.24
6158.28
6154.67
6151.41
6148.47
6145.85
6143.52
6141.49
6139.73
6138.23
6136.99
6135.99
6135.23
6134.7
6134.39
6134.29
6134.41
6134.73
6135.24
6135.96
6136.87
6137.97
6139.27
6140.74
6142.4
6144.23
6146.24
6148.42
6150.76
6153.26
6155.92
6158.72
6161.66
6164.74
6167.94
6171.26
6174.68
6178.21
6181.83
6185.53
6189.3
6193.14
6197.03
6200.97
6204.94
6208.94
6212.97
6217
6221.05
6225.08
6229.11
6233.13
6237.12
6241.08
6245.01
6248.9
6252.74
6256.54
6260.28
6263.97
6267.59
6271.16
6274.66
6278.09
6281.45
6284.74
6287.96
6291.1
6294.17
6297.05
6299.96
3749.32
3919.37
3598.69
3368.86
3210.19
3093.2
3002.11
2928.43
2867.18
2815.25
2770.5
2731.45
2697.02
2666.41
2638.99
2614.29
2591.92
2571.56
2552.97
2535.93
2520.26
2505.82
2492.48
2480.12
2468.66
2458.02
2448.11
2438.89
2430.29
2422.26
2414.76
2407.75
2401.19
2395.06
2389.33
2383.96
2378.93
2374.23
2369.83
2365.72
2361.88
2358.29
2354.93
2351.81
2348.9
2346.19
2343.67
2341.34
2339.18
2337.19
2335.36
2333.68
2332.14
2330.74
2329.47
2328.33
2327.3
2326.39
2325.6
2324.9
2324.31
2323.82
2323.42
2323.12
2322.89
2322.76
2322.7
2322.73
2322.83
2323.01
2323.26
2323.59
2323.98
2324.45
2324.98
2325.58
2326.25
2326.98
2327.77
2328.63
2329.54
2330.51
2331.53
2332.61
2333.73
2334.91
2336.13
2337.39
2338.69
2340.02
2341.39
2342.8
2344.22
2345.68
2347.15
2348.65
2350.16
2351.68
2353.22
2354.76
2356.31
2357.86
2359.42
2360.97
2362.52
2364.06
2365.59
2367.12
2368.63
2370.13
2371.62
2373.09
2374.54
2375.97
2377.39
2378.78
2380.15
2381.49
2382.82
2384.11
2385.34
2386.57
1528.99
1989.05
1884.98
1770.23
1685.89
1623.05
1574.14
1534.67
1501.95
1474.25
1450.43
1429.67
1411.39
1395.16
1380.63
1367.55
1355.71
1344.94
1335.11
1326.11
1317.83
1310.2
1303.16
1296.64
1290.59
1284.98
1279.75
1274.89
1270.35
1266.11
1262.16
1258.47
1255.01
1251.78
1248.75
1245.92
1243.27
1240.79
1238.47
1236.31
1234.28
1232.38
1230.62
1228.97
1227.43
1226
1224.67
1223.44
1222.3
1221.25
1220.28
1219.39
1218.57
1217.83
1217.16
1216.55
1216.01
1215.52
1215.1
1214.73
1214.41
1214.15
1213.93
1213.76
1213.64
1213.56
1213.52
1213.52
1213.56
1213.65
1213.77
1213.93
1214.12
1214.35
1214.62
1214.93
1215.27
1215.64
1216.05
1216.49
1216.96
1217.46
1218
1218.57
1219.16
1219.78
1220.43
1221.1
1221.79
1222.51
1223.24
1224
1224.77
1225.55
1226.35
1227.16
1227.98
1228.81
1229.64
1230.48
1231.31
1232.16
1232.99
1233.83
1234.67
1235.5
1236.32
1237.13
1237.94
1238.73
1239.51
1240.28
1241.04
1241.78
1242.5
1243.21
1243.9
1244.57
1245.22
1245.86
1246.45
1247.03
720.941
1168.15
1165.72
1105.65
1054.38
1014.75
983.61
958.429
937.557
919.91
904.751
891.558
879.953
869.656
860.45
852.168
844.676
837.868
831.656
825.967
820.741
815.927
811.482
807.369
803.556
800.014
796.721
793.654
790.795
788.127
785.635
783.306
781.129
779.092
777.187
775.403
773.734
772.172
770.71
769.343
768.065
766.87
765.755
764.714
763.745
762.842
762.003
761.225
760.504
759.839
759.225
758.661
758.145
757.674
757.247
756.861
756.514
756.206
755.933
755.695
755.491
755.318
755.175
755.062
754.976
754.918
754.887
754.88
754.898
754.941
755.008
755.099
755.213
755.351
755.512
755.696
755.903
756.133
756.385
756.66
756.957
757.275
757.615
757.975
758.355
758.754
759.171
759.605
760.055
760.521
761
761.491
761.994
762.506
763.027
763.555
764.088
764.625
765.166
765.707
766.248
766.788
767.325
767.858
768.386
768.907
769.419
769.923
770.417
770.901
771.371
771.829
772.273
772.703
773.117
773.515
773.897
774.262
774.609
774.939
775.241
775.524
358.82
725.629
779.829
754.392
722.982
696.536
675.147
657.664
643.11
630.786
620.195
610.98
602.879
595.694
589.274
583.502
578.284
573.544
569.221
565.264
561.63
558.284
555.195
552.337
549.689
547.229
544.943
542.813
540.829
538.977
537.247
535.631
534.12
532.707
531.384
530.146
528.987
527.903
526.888
525.938
525.05
524.22
523.445
522.722
522.048
521.42
520.836
520.294
519.792
519.327
518.899
518.505
518.145
517.815
517.515
517.244
517
516.782
516.589
516.42
516.273
516.149
516.044
515.96
515.895
515.849
515.82
515.809
515.815
515.838
515.877
515.934
516.007
516.097
516.204
516.327
516.468
516.625
516.799
516.99
517.197
517.421
517.66
517.915
518.185
518.47
518.768
519.079
519.402
519.736
520.079
520.432
520.792
521.159
521.532
521.908
522.287
522.668
523.049
523.429
523.808
524.183
524.553
524.918
525.276
525.627
525.969
526.301
526.623
526.933
527.231
527.516
527.788
528.045
528.288
528.516
528.728
528.924
529.105
529.269
529.412
529.535
180.95
454.606
539.365
539.228
522.289
504.944
489.985
477.422
466.83
457.801
450.016
443.23
437.258
431.96
427.226
422.969
419.121
415.626
412.44
409.523
406.846
404.381
402.106
400.001
398.051
396.241
394.557
392.99
391.529
390.166
388.893
387.704
386.592
385.551
384.577
383.666
382.813
382.014
381.267
380.567
379.913
379.301
378.729
378.196
377.698
377.234
376.803
376.403
376.031
375.687
375.37
375.078
374.81
374.565
374.341
374.139
373.956
373.793
373.647
373.519
373.407
373.311
373.23
373.164
373.111
373.072
373.046
373.033
373.032
373.044
373.068
373.105
373.155
373.217
373.293
373.381
373.483
373.597
373.725
373.866
374.02
374.187
374.366
374.558
374.761
374.975
375.2
375.435
375.679
375.932
376.191
376.457
376.728
377.003
377.282
377.563
377.844
378.126
378.406
378.685
378.96
379.23
379.495
379.755
380.006
380.25
380.485
380.71
380.925
381.128
381.32
381.5
381.667
381.821
381.961
382.087
382.2
382.298
382.382
382.451
382.505
382.539
91.0616
278.177
374.321
393.387
388.302
378.207
368.135
359.167
351.387
344.653
338.793
333.658
329.123
325.091
321.482
318.234
315.297
312.628
310.193
307.964
305.918
304.034
302.295
300.686
299.195
297.811
296.524
295.326
294.209
293.167
292.194
291.284
290.434
289.638
288.893
288.195
287.542
286.931
286.359
285.823
285.321
284.853
284.414
284.005
283.623
283.267
282.936
282.628
282.342
282.077
281.833
281.607
281.4
281.21
281.037
280.88
280.737
280.61
280.495
280.394
280.305
280.229
280.163
280.109
280.065
280.031
280.007
279.993
279.989
279.994
280.009
280.034
280.068
280.113
280.169
280.234
280.311
280.397
280.495
280.602
280.721
280.849
280.988
281.137
281.294
281.461
281.636
281.818
282.008
282.203
282.404
282.61
282.819
283.031
283.244
283.458
283.673
283.886
284.097
284.305
284.509
284.708
284.902
285.09
285.27
285.443
285.607
285.762
285.907
286.042
286.166
286.279
286.381
286.47
286.548
286.614
286.667
286.708
286.737
286.753
286.757
286.744
46.0967
162.189
254.261
286.985
292.083
288.344
282.427
276.399
270.841
265.871
261.463
257.553
254.072
250.96
248.165
245.642
243.355
241.274
239.374
237.632
236.033
234.559
233.197
231.938
230.77
229.686
228.677
227.738
226.862
226.045
225.281
224.567
223.9
223.275
222.69
222.142
221.629
221.149
220.699
220.277
219.883
219.514
219.169
218.846
218.545
218.265
218.003
217.76
217.534
217.324
217.13
216.952
216.787
216.636
216.498
216.372
216.258
216.155
216.063
215.981
215.909
215.845
215.791
215.745
215.708
215.678
215.657
215.643
215.636
215.637
215.646
215.663
215.688
215.721
215.762
215.812
215.871
215.937
216.013
216.097
216.19
216.291
216.4
216.517
216.641
216.772
216.91
217.054
217.203
217.357
217.514
217.675
217.838
218.003
218.169
218.335
218.5
218.663
218.824
218.982
219.135
219.285
219.428
219.566
219.697
219.821
219.937
220.045
220.144
220.234
220.315
220.386
220.447
220.497
220.537
220.567
220.587
220.596
220.594
220.583
220.561
220.526
24.139
88.6484
164.986
205.253
218.887
220.976
218.885
215.492
211.862
208.378
205.161
202.236
199.59
197.197
195.031
193.064
191.273
189.637
188.14
186.765
185.499
184.331
183.251
182.251
181.323
180.461
179.658
178.91
178.212
177.561
176.952
176.382
175.849
175.35
174.883
174.445
174.035
173.65
173.29
172.953
172.637
172.341
172.064
171.805
171.563
171.338
171.127
170.931
170.749
170.58
170.424
170.279
170.146
170.024
169.911
169.809
169.716
169.632
169.556
169.488
169.428
169.375
169.329
169.29
169.258
169.232
169.212
169.199
169.191
169.19
169.195
169.206
169.224
169.248
169.279
169.318
169.363
169.415
169.474
169.54
169.613
169.693
169.779
169.872
169.971
170.075
170.184
170.298
170.416
170.538
170.662
170.789
170.917
171.047
171.177
171.306
171.434
171.56
171.684
171.805
171.922
172.035
172.143
172.246
172.343
172.433
172.516
172.592
172.661
172.722
172.775
172.819
172.855
172.882
172.901
172.91
172.911
172.904
172.888
172.863
172.831
172.788
13.5084
45.5623
99.8141
140.768
160.687
168.047
169.612
168.74
166.918
164.789
162.633
160.564
158.629
156.839
155.192
153.678
152.288
151.01
149.834
148.749
147.746
146.819
145.959
145.161
144.42
143.729
143.086
142.486
141.925
141.401
140.911
140.452
140.022
139.62
139.242
138.889
138.557
138.246
137.955
137.681
137.425
137.185
136.961
136.75
136.554
136.37
136.199
136.039
135.891
135.753
135.625
135.507
135.397
135.297
135.204
135.12
135.043
134.973
134.91
134.854
134.803
134.759
134.72
134.686
134.658
134.635
134.617
134.604
134.597
134.594
134.596
134.603
134.616
134.634
134.657
134.687
134.722
134.762
134.809
134.861
134.919
134.982
135.05
135.124
135.202
135.285
135.372
135.463
135.556
135.653
135.752
135.852
135.954
136.056
136.158
136.259
136.36
136.458
136.555
136.648
136.738
136.825
136.907
136.985
137.057
137.124
137.185
137.24
137.289
137.331
137.366
137.394
137.415
137.429
137.435
137.435
137.427
137.412
137.39
137.361
137.327
137.283
8.23297
22.8776
55.2867
90.2281
113.178
124.85
129.856
131.463
131.425
130.618
129.473
128.204
126.919
125.67
124.481
123.362
122.317
121.343
120.436
119.594
118.81
118.08
117.401
116.769
116.178
115.627
115.113
114.631
114.181
113.759
113.364
112.994
112.647
112.321
112.015
111.729
111.459
111.207
110.97
110.747
110.539
110.343
110.16
109.988
109.827
109.677
109.537
109.406
109.284
109.17
109.065
108.968
108.877
108.794
108.718
108.648
108.584
108.525
108.473
108.425
108.383
108.345
108.312
108.283
108.259
108.239
108.223
108.211
108.203
108.199
108.199
108.204
108.213
108.226
108.244
108.266
108.293
108.325
108.361
108.403
108.448
108.498
108.552
108.611
108.673
108.739
108.808
108.88
108.955
109.032
109.11
109.19
109.27
109.351
109.432
109.512
109.592
109.669
109.745
109.818
109.888
109.956
110.019
110.079
110.134
110.185
110.23
110.271
110.306
110.336
110.36
110.379
110.391
110.398
110.399
110.393
110.382
110.365
110.343
110.315
110.282
110.243
5.47937
11.9932
28.2309
52.6649
74.495
88.7635
96.7042
100.69
102.44
102.969
102.841
102.365
101.714
100.983
100.226
99.4734
98.7429
98.0428
97.3776
96.7488
96.1563
95.5991
95.0758
94.5845
94.1235
93.6908
93.2848
92.9036
92.5457
92.2096
91.8938
91.5971
91.3182
91.0561
90.8097
90.578
90.3603
90.1556
89.9633
89.7826
89.6128
89.4535
89.304
89.1639
89.0326
88.9097
88.7947
88.6874
88.5873
88.4941
88.4074
88.3271
88.2526
88.1839
88.1206
88.0624
88.0092
87.9606
87.9166
87.8768
87.841
87.8092
87.7811
87.7567
87.7358
87.7183
87.7042
87.6934
87.686
87.6819
87.6811
87.6838
87.6899
87.6997
87.7131
87.7303
87.7512
87.776
87.8045
87.8368
87.8728
87.9124
87.9554
88.0018
88.0513
88.1037
88.1588
88.2162
88.2757
88.3369
88.3994
88.463
88.5272
88.5916
88.6559
88.7197
88.7825
88.8441
88.904
88.9619
89.0175
89.0704
89.1202
89.1668
89.2099
89.2492
89.2844
89.3154
89.3421
89.3642
89.3817
89.3944
89.4023
89.4053
89.4035
89.3969
89.3855
89.3694
89.3487
89.3236
89.2948
89.2609
3.95841
6.92866
14.0447
27.7128
44.4801
58.7408
68.535
74.555
78.0226
79.9011
80.8188
81.1603
81.1575
80.9504
80.6246
80.2329
79.8081
79.3708
78.9339
78.5054
78.0901
77.6909
77.3093
76.9458
76.6006
76.2734
75.9636
75.6707
75.3939
75.1325
74.8857
74.6529
74.4331
74.2259
74.0304
73.8462
73.6725
73.5089
73.3548
73.2098
73.0732
72.9449
72.8242
72.7109
72.6046
72.5049
72.4116
72.3243
72.2428
72.1668
72.0961
72.0304
71.9694
71.9131
71.8611
71.8132
71.7694
71.7293
71.6929
71.6599
71.6302
71.6037
71.5802
71.5597
71.5421
71.5272
71.5151
71.5058
71.4992
71.4953
71.494
71.4955
71.4999
71.5071
71.5173
71.5305
71.5468
71.5661
71.5885
71.614
71.6424
71.6738
71.708
71.7448
71.7842
71.826
71.8699
71.9157
71.9632
72.0121
72.0621
72.113
72.1644
72.2159
72.2674
72.3185
72.3688
72.4181
72.466
72.5124
72.5568
72.599
72.6388
72.676
72.7102
72.7414
72.7692
72.7937
72.8146
72.8317
72.8451
72.8546
72.8601
72.8617
72.8594
72.8531
72.8428
72.8288
72.811
72.7896
72.7653
72.7371
3.07723
4.48267
7.4297
13.6627
23.6765
35.0257
44.8492
52.0825
56.9685
60.1185
62.0853
63.271
63.946
64.2875
64.4108
64.3915
64.2795
64.1082
63.8999
63.6698
63.4282
63.1824
62.937
62.6954
62.4598
62.2316
62.0117
61.8006
61.5987
61.4058
61.2221
61.0472
60.8811
60.7234
60.5738
60.4321
60.2979
60.1709
60.0509
59.9376
59.8306
59.7297
59.6346
59.5451
59.4609
59.3818
59.3076
59.2381
59.1731
59.1124
59.0558
59.0031
58.9542
58.9089
58.8671
58.8285
58.7932
58.7608
58.7314
58.7047
58.6807
58.6592
58.6401
58.6235
58.6091
58.597
58.5871
58.5794
58.574
58.5707
58.5696
58.5707
58.574
58.5796
58.5876
58.598
58.6108
58.6261
58.6439
58.6641
58.6867
58.7117
58.7389
58.7684
58.7999
58.8333
58.8684
58.9051
58.9432
58.9825
59.0227
59.0636
59.1049
59.1465
59.188
59.2292
59.2698
59.3096
59.3484
59.3859
59.4219
59.4561
59.4884
59.5185
59.5463
59.5716
59.5943
59.6142
59.6311
59.6451
59.6559
59.6636
59.6681
59.6693
59.6673
59.6621
59.6536
59.642
59.6273
59.6097
59.5896
59.5668
2.55068
3.21778
4.43832
6.94254
11.6103
18.4647
26.1707
33.1843
38.7612
42.8701
45.7762
47.7853
49.1524
50.0674
50.6656
51.0415
51.2609
51.37
51.4011
51.3772
51.3148
51.2258
51.1186
50.9996
50.8734
50.7433
50.6119
50.4808
50.3516
50.225
50.1018
49.9824
49.8673
49.7565
49.6503
49.5486
49.4515
49.3589
49.2707
49.1869
49.1073
49.0319
48.9605
48.8931
48.8294
48.7694
48.7129
48.6599
48.6102
48.5636
48.5201
48.4796
48.4419
48.407
48.3747
48.345
48.3177
48.2927
48.2699
48.2493
48.2308
48.2143
48.1997
48.1869
48.176
48.1668
48.1594
48.1538
48.1499
48.1477
48.1473
48.1486
48.1516
48.1564
48.1631
48.1717
48.1822
48.1946
48.2091
48.2254
48.2437
48.2639
48.2859
48.3096
48.335
48.3619
48.3903
48.42
48.4508
48.4825
48.515
48.5482
48.5817
48.6155
48.6492
48.6828
48.7159
48.7484
48.7801
48.8109
48.8404
48.8685
48.8951
48.92
48.943
48.964
48.9829
48.9995
49.0138
49.0256
49.0349
49.0416
49.0456
49.047
49.0457
49.0417
49.0351
49.0258
49.014
48.9998
48.9835
48.9652
2.23299
2.5213
3.02004
3.97831
5.81132
8.95327
13.4245
18.6064
23.6547
28.0086
31.4918
34.1618
36.1611
37.6393
38.7238
39.5144
40.0864
40.4959
40.7841
40.9815
41.1107
41.1886
41.2279
41.238
41.2264
41.1984
41.1584
41.1096
41.0547
40.9954
40.9335
40.87
40.806
40.7421
40.6789
40.6168
40.5563
40.4974
40.4405
40.3856
40.3328
40.2823
40.234
40.188
40.1443
40.1028
40.0635
40.0265
39.9916
39.9588
39.9281
39.8995
39.8728
39.848
39.8252
39.8041
39.7848
39.7671
39.7511
39.7367
39.7238
39.7124
39.7025
39.6939
39.6867
39.6808
39.6763
39.6731
39.6712
39.6707
39.6715
39.6737
39.6771
39.682
39.6882
39.6959
39.705
39.7157
39.7279
39.7416
39.7569
39.7736
39.7917
39.8112
39.8321
39.8542
39.8774
39.9017
39.9269
39.9529
39.9796
40.0068
40.0343
40.062
40.0898
40.1174
40.1448
40.1717
40.1979
40.2234
40.248
40.2715
40.2938
40.3147
40.3341
40.3519
40.3679
40.3822
40.3945
40.4048
40.4131
40.4192
40.4232
40.4249
40.4244
40.4217
40.4167
40.4096
40.4003
40.3889
40.3758
40.3613
2.04415
2.12289
2.29752
2.64296
3.30166
4.4877
6.42603
9.18516
12.5445
16.0848
19.4152
22.3108
24.7067
26.6315
28.1526
29.344
30.2729
30.9955
31.5567
31.9918
32.3282
32.5874
32.7857
32.936
33.0484
33.1307
33.1891
33.2286
33.2529
33.2653
33.2683
33.2638
33.2534
33.2386
33.2203
33.1994
33.1767
33.1528
33.128
33.1029
33.0776
33.0526
33.0279
33.0038
32.9803
32.9577
32.936
32.9153
32.8955
32.8768
32.8592
32.8427
32.8273
32.813
32.7999
32.7878
32.7768
32.7669
32.758
32.7501
32.7433
32.7374
32.7325
32.7286
32.7255
32.7235
32.7223
32.7221
32.7228
32.7245
32.7272
32.7308
32.7355
32.7411
32.7478
32.7555
32.7642
32.7741
32.7852
32.7973
32.8106
32.8251
32.8406
32.8573
32.8749
32.8935
32.9131
32.9334
32.9545
32.9762
32.9985
33.0212
33.0442
33.0673
33.0905
33.1137
33.1366
33.1592
33.1813
33.2028
33.2236
33.2436
33.2625
33.2804
33.2971
33.3125
33.3265
33.339
33.3499
33.3591
33.3667
33.3725
33.3765
33.3786
33.3789
33.3773
33.3738
33.3684
33.3612
33.3522
33.3417
33.3303
1.93662
1.89378
1.9091
1.99887
2.20581
2.60135
3.28857
4.38475
5.96585
7.99812
10.3235
12.7231
15.0051
17.0512
18.8156
20.3
21.5307
22.5425
23.3709
24.0479
24.6009
25.053
25.4228
25.7255
25.9736
26.1769
26.3435
26.4799
26.5915
26.6825
26.7565
26.8165
26.8647
26.9033
26.9338
26.9576
26.9758
26.9895
26.9994
27.0062
27.0105
27.0127
27.0133
27.0126
27.0109
27.0084
27.0054
27.0021
26.9985
26.9949
26.9913
26.9878
26.9845
26.9815
26.9788
26.9765
26.9745
26.973
26.9719
26.9713
26.9712
26.9715
26.9723
26.9737
26.9755
26.9779
26.9808
26.9843
26.9883
26.9929
26.9982
27.004
27.0106
27.0179
27.0258
27.0343
27.0436
27.0537
27.0646
27.0762
27.0887
27.102
27.1161
27.131
27.1466
27.163
27.1801
27.1977
27.216
27.2347
27.2538
27.2733
27.293
27.3128
27.3327
27.3525
27.3722
27.3916
27.4106
27.4291
27.4471
27.4644
27.4809
27.4965
27.5111
27.5247
27.5372
27.5484
27.5583
27.5668
27.5739
27.5796
27.5837
27.5862
27.5871
27.5865
27.5842
27.5803
27.5748
27.5677
27.5594
27.5504
1.87971
1.76618
1.6969
1.6702
1.69599
1.79455
1.99808
2.35263
2.91532
3.74022
4.85282
6.22679
7.78258
9.41177
11.0108
12.5043
13.8504
15.0348
16.0607
16.9406
17.6911
18.3291
18.8711
19.3314
19.7227
20.0558
20.3398
20.5824
20.79
20.968
21.121
21.2527
21.3662
21.4643
21.5492
21.6228
21.6867
21.7424
21.7908
21.8332
21.8703
21.9028
21.9315
21.9567
21.9791
21.999
22.0168
22.0327
22.0471
22.0602
22.0722
22.0832
22.0935
22.1031
22.1121
22.1208
22.129
22.137
22.1449
22.1525
22.1601
22.1676
22.1751
22.1827
22.1903
22.198
22.2058
22.2138
22.222
22.2304
22.2391
22.248
22.2573
22.267
22.277
22.2875
22.2983
22.3095
22.3212
22.3334
22.346
22.3593
22.373
22.3872
22.402
22.4173
22.433
22.4491
22.4656
22.4825
22.4996
22.517
22.5345
22.5521
22.5697
22.5872
22.6046
22.6218
22.6386
22.6551
22.671
22.6864
22.7012
22.7152
22.7284
22.7407
22.7521
22.7624
22.7716
22.7797
22.7866
22.7922
22.7964
22.7994
22.801
22.8011
22.7999
22.7972
22.7931
22.7877
22.7811
22.774
1.85262
1.70013
1.58443
1.50014
1.44691
1.42874
1.45383
1.53512
1.69135
1.94726
2.33147
2.87025
3.57781
4.44717
5.44734
6.52935
7.63811
8.72432
9.75159
10.698
11.554
12.3183
12.995
13.5909
14.114
14.5724
14.974
15.3259
15.6346
15.9057
16.1442
16.3544
16.5401
16.7043
16.85
16.9795
17.0948
17.1977
17.2898
17.3725
17.4468
17.5137
17.5742
17.6291
17.6789
17.7243
17.7658
17.8038
17.8387
17.871
17.9008
17.9285
17.9543
17.9784
18.001
18.0224
18.0425
18.0616
18.0798
18.0972
18.1139
18.1299
18.1453
18.1603
18.1748
18.189
18.2029
18.2165
18.2299
18.2431
18.2562
18.2693
18.2824
18.2954
18.3086
18.3218
18.3352
18.3486
18.3622
18.3759
18.3899
18.4041
18.4185
18.4332
18.4482
18.4634
18.4789
18.4946
18.5105
18.5265
18.5427
18.5591
18.5754
18.5918
18.6081
18.6243
18.6403
18.6561
18.6717
18.6868
18.7015
18.7157
18.7294
18.7424
18.7547
18.7662
18.7769
18.7868
18.7957
18.8035
18.8104
18.8161
18.8207
18.8241
18.8263
18.8272
18.8269
18.8253
18.8225
18.8184
18.8132
18.8077
1.84139
1.6697
1.52946
1.4157
1.32537
1.25752
1.21298
1.19428
1.2059
1.25453
1.3495
1.50277
1.72823
2.03963
2.44734
2.95456
3.55469
4.23102
4.95936
5.71237
6.46405
7.19312
7.88439
8.52868
9.1217
9.66264
10.153
10.5957
10.9943
11.3526
11.6744
11.9636
12.2235
12.4574
12.668
12.858
13.0296
13.1848
13.3256
13.4534
13.5697
13.6757
13.7725
13.8612
13.9425
14.0172
14.086
14.1495
14.2082
14.2627
14.3133
14.3605
14.4045
14.4456
14.4842
14.5205
14.5547
14.5869
14.6175
14.6464
14.6739
14.7002
14.7252
14.7492
14.7722
14.7943
14.8156
14.8362
14.8561
14.8755
14.8943
14.9127
14.9307
14.9483
14.9657
14.9828
14.9997
15.0165
15.0332
15.0496
15.066
15.0823
15.0986
15.1149
15.1312
15.1475
15.1638
15.1801
15.1965
15.2129
15.2292
15.2455
15.2617
15.2778
15.2938
15.3096
15.3252
15.3405
15.3555
15.3701
15.3843
15.398
15.4112
15.4238
15.4358
15.4471
15.4576
15.4674
15.4763
15.4842
15.4913
15.4973
15.5024
15.5063
15.5092
15.5109
15.5115
15.511
15.5093
15.5064
15.5026
15.4984
1.83747
1.65774
1.50597
1.37779
1.26982
1.17973
1.10613
1.0485
1.0071
0.982967
0.978021
0.995182
1.03851
1.11327
1.22579
1.383
1.59157
1.8566
2.1803
2.56083
2.992
3.4637
3.96324
4.47698
4.99198
5.49723
5.98422
6.44713
6.88244
7.28853
7.66513
8.01289
8.33305
8.6272
8.89711
9.14461
9.37152
9.57962
9.77057
9.94592
10.1071
10.2554
10.392
10.5181
10.6345
10.7422
10.842
10.9346
11.0206
11.1007
11.1754
11.2452
11.3104
11.3715
11.4289
11.4828
11.5336
11.5815
11.6268
11.6696
11.7102
11.7487
11.7854
11.8203
11.8536
11.8854
11.9159
11.9451
11.9732
12.0002
12.0263
12.0514
12.0758
12.0994
12.1223
12.1447
12.1665
12.1878
12.2087
12.2291
12.2492
12.2689
12.2883
12.3073
12.3261
12.3447
12.363
12.3812
12.3991
12.4169
12.4344
12.4518
12.4689
12.4858
12.5024
12.5188
12.5348
12.5505
12.5658
12.5807
12.5952
12.6091
12.6225
12.6354
12.6476
12.6592
12.67
12.6801
12.6894
12.6979
12.7054
12.7121
12.7178
12.7225
12.7262
12.7288
12.7304
12.7309
12.7303
12.7286
12.726
12.7231
1.83635
1.65389
1.49762
1.36332
1.24761
1.14783
1.062
0.988661
0.926848
0.875995
0.835924
0.806832
0.789309
0.784375
0.793528
0.818789
0.862716
0.928351
1.01906
1.13827
1.28904
1.47355
1.69265
1.94546
2.22922
2.53944
2.87029
3.21516
3.56728
3.92031
4.26872
4.60806
4.93501
5.24734
5.54367
5.8234
6.08641
6.33298
6.56365
6.7791
6.98012
7.16758
7.34232
7.50523
7.65714
7.79886
7.93117
8.05477
8.17033
8.27849
8.3798
8.4748
8.56397
8.64777
8.72661
8.80087
8.8709
8.93702
8.99952
9.05868
9.11474
9.16792
9.21845
9.2665
9.31225
9.35587
9.3975
9.43729
9.47537
9.51186
9.54688
9.58052
9.61289
9.64408
9.67418
9.70327
9.73143
9.75873
9.78524
9.81101
9.8361
9.86056
9.88438
9.90759
9.93023
9.95236
9.974
9.99518
10.0159
10.0363
10.0562
10.0757
10.0948
10.1136
10.1319
10.1498
10.1673
10.1843
10.2008
10.2169
10.2324
10.2474
10.2618
10.2755
10.2887
10.3011
10.3128
10.3238
10.334
10.3433
10.3518
10.3594
10.3661
10.3718
10.3765
10.3802
10.3829
10.3846
10.3852
10.3847
10.3834
10.3818
1.8361
1.6529
1.49526
1.35888
1.24033
1.13688
1.04634
0.966998
0.8975
0.836801
0.784121
0.738903
0.700795
0.66963
0.645428
0.628393
0.618928
0.617651
0.625408
0.643286
0.672608
0.714903
0.771843
0.845141
0.936407
1.04697
1.17771
1.32885
1.49987
1.68946
1.89555
2.11545
2.34602
2.58391
2.82575
3.06842
3.30912
3.54551
3.77573
3.99839
4.21253
4.41758
4.61322
4.79937
4.97614
5.1437
5.30237
5.45246
5.59437
5.72848
5.8552
5.97494
6.08812
6.19512
6.29632
6.3921
6.4828
6.56874
6.65023
6.72756
6.80099
6.87078
6.93715
7.00032
7.0605
7.11787
7.17263
7.22492
7.27492
7.32276
7.36859
7.41253
7.4547
7.49522
7.53418
7.5717
7.60785
7.64274
7.67644
7.70903
7.74058
7.77115
7.80081
7.8296
7.85756
7.88467
7.91099
7.93656
7.96144
7.98565
8.00921
8.03215
8.05448
8.07621
8.09735
8.1179
8.13786
8.15722
8.17597
8.19411
8.21161
8.22846
8.24464
8.26012
8.27488
8.28889
8.30213
8.31457
8.32618
8.33693
8.34679
8.35574
8.36375
8.3708
8.37686
8.38191
8.38594
8.38894
8.39088
8.3918
8.39185
8.39146
1.83605
1.6527
1.49473
1.35782
1.23848
1.13393
1.04192
0.960651
0.888632
0.82467
0.767793
0.717216
0.672311
0.632587
0.597667
0.567277
0.541239
0.519467
0.501959
0.488804
0.480185
0.476377
0.477764
0.484832
0.498176
0.518492
0.546563
0.583231
0.629359
0.685782
0.75324
0.832318
0.923369
1.02647
1.14136
1.26745
1.40383
1.54927
1.70234
1.86143
2.02486
2.19096
2.35813
2.52491
2.69004
2.85242
3.01119
3.1657
3.31544
3.4601
3.59948
3.7335
3.86215
3.98548
4.10359
4.21661
4.3247
4.42802
4.52676
4.62109
4.71122
4.79733
4.8796
4.95824
5.03343
5.10534
5.17415
5.24003
5.30313
5.36359
5.42157
5.4772
5.5306
5.5819
5.6312
5.67863
5.72428
5.76824
5.81062
5.85151
5.89098
5.92911
5.96598
6.00165
6.03619
6.06966
6.1021
6.1335
6.16388
6.19332
6.22184
6.24947
6.27626
6.30222
6.32737
6.35172
6.37528
6.39806
6.42007
6.44129
6.46172
6.48136
6.50019
6.5182
6.53537
6.55169
6.56714
6.5817
6.59534
6.60805
6.61981
6.63059
6.64038
6.64915
6.6569
6.6636
6.66924
6.67382
6.67733
6.67979
6.68134
6.68237
1.83603
1.65264
1.49462
1.3576
1.23811
1.13332
1.04098
0.959246
0.886595
0.821781
0.76377
0.711705
0.664871
0.622675
0.584622
0.550304
0.519386
0.491594
0.466712
0.444572
0.425055
0.408081
0.393614
0.381659
0.372259
0.365503
0.36152
0.360489
0.362632
0.368221
0.377575
0.391057
0.409065
0.432026
0.460379
0.49456
0.534977
0.581988
0.635877
0.696829
0.764907
0.840041
0.922013
1.01047
1.1049
1.2047
1.30914
1.41744
1.52877
1.64228
1.75715
1.87259
1.98788
2.10237
2.21551
2.32682
2.43592
2.54252
2.64639
2.74738
2.84538
2.94034
3.03226
3.12113
3.207
3.28991
3.36992
3.44711
3.52155
3.59332
3.6625
3.72919
3.79347
3.85542
3.91515
3.97274
4.02828
4.08185
4.13356
4.18347
4.23168
4.27825
4.32327
4.36681
4.40892
4.44968
4.48913
4.52734
4.56435
4.60018
4.63482
4.66831
4.70068
4.73197
4.76221
4.79142
4.81962
4.84683
4.87306
4.8983
4.92257
4.94587
4.96818
4.98952
5.00986
5.0292
5.04753
5.06484
5.08111
5.09633
5.11049
5.12357
5.13556
5.14645
5.15624
5.16491
5.17246
5.1789
5.18421
5.18843
5.19169
5.1943
1.83602
1.65261
1.49457
1.35754
1.23801
1.13319
1.0408
0.958995
0.886239
0.821274
0.763051
0.710688
0.663449
0.620708
0.581938
0.54669
0.514581
0.485287
0.45853
0.434076
0.411723
0.391305
0.372681
0.355736
0.340378
0.326535
0.314157
0.30321
0.293681
0.285572
0.278905
0.273723
0.270083
0.268068
0.267776
0.26933
0.272873
0.278569
0.2866
0.297167
0.310483
0.326773
0.346263
0.369175
0.395724
0.426099
0.460463
0.498941
0.541608
0.58849
0.639551
0.694692
0.753756
0.816523
0.882716
0.952013
1.02405
1.09843
1.17474
1.25255
1.33146
1.41104
1.49093
1.57074
1.65017
1.72892
1.80674
1.88341
1.95877
2.03267
2.10501
2.1757
2.2447
2.31197
2.37749
2.44126
2.5033
2.56361
2.62223
2.67918
2.73449
2.78819
2.84033
2.89093
2.94002
2.98765
3.03386
3.07867
3.12212
3.16425
3.20509
3.24467
3.28298
3.32002
3.35579
3.39033
3.42365
3.45578
3.48673
3.51652
3.54513
3.57259
3.59889
3.62403
3.648
3.67081
3.69245
3.71291
3.73219
3.75029
3.76719
3.78289
3.79739
3.8107
3.82281
3.83372
3.84344
3.85199
3.85937
3.8656
3.87083
3.87529
1.83602
1.65258
1.49453
1.35749
1.23795
1.13313
1.04073
0.958918
0.886153
0.821175
0.76293
0.710534
0.663244
0.620428
0.581551
0.546153
0.513841
0.484276
0.457165
0.432255
0.409327
0.388188
0.368672
0.350636
0.333951
0.31851
0.304216
0.290989
0.278758
0.267465
0.25706
0.247503
0.238763
0.230816
0.223648
0.217252
0.211627
0.206783
0.202736
0.199511
0.19714
0.195665
0.195138
0.195619
0.197177
0.199891
0.203849
0.209148
0.215891
0.224188
0.234154
0.245906
0.259562
0.275238
0.293042
0.313075
0.335427
0.360171
0.387361
0.417031
0.44919
0.483823
0.520887
0.560312
0.602004
0.645839
0.691675
0.739346
0.788669
0.839449
0.891479
0.944546
0.998438
1.05294
1.10785
1.16297
1.2181
1.27308
1.32775
1.38197
1.4356
1.48854
1.5407
1.59198
1.64234
1.69171
1.74005
1.78733
1.83352
1.87861
1.92257
1.96541
2.00712
2.0477
2.08714
2.12541
2.16247
2.1983
2.23291
2.26629
2.29844
2.32935
2.35901
2.38742
2.41457
2.44045
2.46508
2.48843
2.51052
2.53135
2.55091
2.56922
2.58627
2.6021
2.6167
2.63009
2.64229
2.65332
2.66321
2.67198
2.67974
2.68669
1.83601
1.65256
1.4945
1.35744
1.2379
1.13307
1.04068
0.958862
0.886097
0.821119
0.762874
0.710479
0.663188
0.620369
0.581486
0.546077
0.513746
0.484154
0.457003
0.432037
0.409031
0.387791
0.368143
0.349936
0.333036
0.317326
0.302702
0.28907
0.276348
0.264464
0.253353
0.242957
0.233225
0.224112
0.215578
0.207589
0.200113
0.193125
0.186603
0.180527
0.174883
0.169658
0.164845
0.160438
0.156435
0.152837
0.149649
0.146879
0.144537
0.142639
0.141203
0.140252
0.139811
0.139911
0.140587
0.141877
0.143823
0.146472
0.149874
0.154082
0.159152
0.165144
0.172117
0.180131
0.189247
0.199525
0.211021
0.223788
0.237875
0.253323
0.270168
0.288434
0.308138
0.329287
0.351873
0.375879
0.401276
0.428021
0.456059
0.485326
0.515744
0.547227
0.579678
0.612994
0.647065
0.681777
0.717012
0.752649
0.78857
0.824656
0.860789
0.896859
0.932756
0.968381
1.00364
1.03844
1.07273
1.10641
1.13941
1.17164
1.20305
1.23359
1.26322
1.29191
1.31962
1.34634
1.37205
1.39674
1.4204
1.44304
1.46465
1.48523
1.50479
1.52335
1.54092
1.5575
1.57312
1.58778
1.60152
1.61434
1.62632
1.63752
1.83601
1.65254
1.49448
1.35742
1.23787
1.13304
1.04064
0.958826
0.886061
0.821083
0.762838
0.710444
0.663153
0.620336
0.581454
0.546046
0.513716
0.484124
0.456972
0.432004
0.408994
0.387747
0.368088
0.349865
0.332945
0.317207
0.302545
0.288866
0.276084
0.264125
0.25292
0.24241
0.232539
0.223258
0.214524
0.206295
0.198537
0.191216
0.184303
0.177772
0.171597
0.165758
0.160235
0.155011
0.150069
0.145397
0.140981
0.136812
0.132879
0.129176
0.125696
0.122433
0.119385
0.116549
0.113924
0.11151
0.109309
0.107324
0.105559
0.104021
0.102717
0.101657
0.10085
0.100309
0.100049
0.100085
0.100436
0.10112
0.10216
0.103578
0.105401
0.107653
0.110364
0.113563
0.11728
0.121546
0.126394
0.131854
0.137959
0.144739
0.152222
0.160437
0.169408
0.179158
0.189705
0.201063
0.213243
0.22625
0.240082
0.254735
0.270196
0.286448
0.303467
0.321225
0.339685
0.358808
0.37855
0.398862
0.419699
0.441007
0.462724
0.484785
0.507123
0.529671
0.552361
0.575125
0.5979
0.62062
0.643224
0.665653
0.687851
0.709764
0.731344
0.752543
0.773321
0.793638
0.81346
0.832755
0.851497
0.869661
0.887233
0.904173
1.83601