/*--------------------------------*- C++ -*----------------------------------*\
  =========                 |
  \\      /  F ield         | OpenFOAM: The Open Source CFD Toolbox
   \\    /   O peration     | Website:  https://openfoam.org
    \\  /    A nd           | Version:  8
     \\/     M anipulation  |
\*---------------------------------------------------------------------------*/
FoamFile
{
    version     2.0;
    format      ascii;
    class       volScalarField;
    location    "850";
    object      k;
}
// * * * * * * * * * * * * * * * * * * * * * * * * * * * * * * * * * * * * * //

dimensions      [0 2 -2 0 0 0 0];

internalField   nonuniform List<scalar> 
7320
(
6.07652
5.55942
5.24732
5.04165
4.8942
4.78178
4.69211
4.61825
4.55602
4.50265
4.45625
4.41545
4.37924
4.34686
4.31771
4.29132
4.26733
4.24542
4.22534
4.20688
4.18987
4.17415
4.15959
4.14608
4.13352
4.12184
4.11095
4.10079
4.09131
4.08244
4.07415
4.0664
4.05914
4.05234
4.04598
4.04002
4.03444
4.02921
4.02432
4.01974
4.01546
4.01146
4.00773
4.00425
4.001
3.99799
3.99519
3.99259
3.99019
3.98797
3.98593
3.98406
3.98235
3.9808
3.97939
3.97812
3.97699
3.97599
3.97511
3.97435
3.97371
3.97317
3.97274
3.97241
3.97218
3.97205
3.97201
3.97205
3.97219
3.97241
3.97272
3.97311
3.97358
3.97413
3.97477
3.97548
3.97626
3.97713
3.97807
3.97907
3.98015
3.9813
3.98251
3.98378
3.98511
3.98649
3.98793
3.98941
3.99094
3.99251
3.99411
3.99575
3.99742
3.99911
4.00082
4.00255
4.00429
4.00604
4.0078
4.00956
4.01131
4.01306
4.01481
4.01654
4.01826
4.01997
4.02165
4.02332
4.02496
4.02658
4.02817
4.02973
4.03126
4.03277
4.03424
4.03567
4.03707
4.03844
4.03977
4.04107
4.04228
4.0435
4.84215
5.67924
5.54001
5.36046
5.21715
5.10399
5.01225
4.93597
4.87129
4.81558
4.76697
4.72412
4.68601
4.65186
4.62109
4.59321
4.56782
4.54462
4.52335
4.50378
4.48573
4.46904
4.45358
4.43924
4.4259
4.41348
4.40191
4.39111
4.38103
4.37161
4.3628
4.35455
4.34683
4.3396
4.33284
4.3265
4.32057
4.31501
4.30982
4.30495
4.30041
4.29616
4.2922
4.28851
4.28507
4.28187
4.2789
4.27615
4.27361
4.27127
4.26911
4.26714
4.26534
4.2637
4.26223
4.2609
4.25972
4.25867
4.25776
4.25698
4.25631
4.25576
4.25533
4.255
4.25477
4.25465
4.25462
4.25469
4.25484
4.25509
4.25543
4.25586
4.25638
4.25698
4.25768
4.25846
4.25932
4.26027
4.2613
4.26242
4.26362
4.26489
4.26624
4.26767
4.26917
4.27073
4.27236
4.27405
4.2758
4.27759
4.27943
4.28131
4.28323
4.28517
4.28715
4.28914
4.29114
4.29316
4.29518
4.29719
4.2992
4.3012
4.30318
4.30514
4.30707
4.30898
4.31085
4.31268
4.31448
4.31622
4.31792
4.31957
4.32117
4.32272
4.3242
4.32563
4.327
4.3283
4.32955
4.33073
4.33181
4.33281
3.59581
5.0514
5.15997
5.06781
4.96411
4.87324
4.79598
4.72999
4.67307
4.62344
4.57977
4.541
4.50635
4.47517
4.44698
4.42135
4.39797
4.37656
4.35689
4.33877
4.32204
4.30655
4.29219
4.27885
4.26644
4.25488
4.2441
4.23404
4.22464
4.21585
4.20763
4.19994
4.19274
4.186
4.17969
4.17378
4.16824
4.16307
4.15822
4.15369
4.14946
4.14551
4.14182
4.13839
4.1352
4.13223
4.12948
4.12694
4.12459
4.12243
4.12045
4.11863
4.11698
4.11549
4.11415
4.11294
4.11188
4.11094
4.11013
4.10944
4.10885
4.10838
4.10801
4.10774
4.10757
4.10749
4.1075
4.1076
4.10778
4.10805
4.10841
4.10885
4.10938
4.10999
4.1107
4.11149
4.11237
4.11335
4.11441
4.11556
4.1168
4.11813
4.11954
4.12104
4.12262
4.12427
4.126
4.12779
4.12965
4.13156
4.13352
4.13553
4.13757
4.13964
4.14174
4.14385
4.14596
4.14808
4.15019
4.15228
4.15435
4.1564
4.1584
4.16036
4.16228
4.16414
4.16594
4.16767
4.16933
4.17091
4.17242
4.17384
4.17517
4.17642
4.17757
4.17863
4.17959
4.18045
4.18121
4.18188
4.18242
4.18282
2.74725
4.48339
4.83294
4.83938
4.78111
4.71517
4.65355
4.59832
4.54927
4.50567
4.46677
4.43188
4.40045
4.372
4.34614
4.32254
4.30093
4.28108
4.2628
4.24593
4.23032
4.21585
4.20241
4.18991
4.17828
4.16743
4.15731
4.14786
4.13902
4.13076
4.12302
4.11579
4.10901
4.10267
4.09673
4.09117
4.08597
4.0811
4.07654
4.07229
4.06832
4.06461
4.06116
4.05794
4.05495
4.05218
4.04962
4.04725
4.04507
4.04307
4.04123
4.03956
4.03805
4.03668
4.03546
4.03437
4.03341
4.03258
4.03186
4.03125
4.03076
4.03036
4.03006
4.02986
4.02974
4.02972
4.02978
4.02992
4.03014
4.03044
4.03083
4.03131
4.03187
4.03252
4.03326
4.0341
4.03503
4.03605
4.03718
4.0384
4.03972
4.04113
4.04264
4.04425
4.04594
4.04772
4.04958
4.05151
4.05351
4.05558
4.05769
4.05985
4.06205
4.06428
4.06652
4.06877
4.07102
4.07326
4.07548
4.07767
4.07981
4.08192
4.08396
4.08594
4.08784
4.08966
4.09139
4.09303
4.09456
4.09599
4.0973
4.0985
4.09957
4.10052
4.10134
4.10203
4.10258
4.10301
4.1033
4.10346
4.10347
4.10328
2.10346
3.90602
4.48941
4.61127
4.60898
4.57387
4.53133
4.489
4.44924
4.41265
4.37922
4.34873
4.32092
4.29549
4.27219
4.2508
4.23111
4.21295
4.19616
4.18061
4.16619
4.15279
4.14032
4.12871
4.11788
4.10777
4.09833
4.08951
4.08125
4.07353
4.0663
4.05953
4.05319
4.04725
4.04169
4.03649
4.03163
4.02708
4.02282
4.01885
4.01515
4.01169
4.00848
4.00549
4.00272
4.00015
3.99778
3.9956
3.99359
3.99175
3.99008
3.98856
3.98719
3.98596
3.98487
3.98391
3.98307
3.98235
3.98173
3.98123
3.98083
3.98052
3.98031
3.98018
3.98014
3.98018
3.9803
3.9805
3.98078
3.98114
3.98159
3.98211
3.98273
3.98344
3.98424
3.98513
3.98613
3.98723
3.98844
3.98975
3.99116
3.99268
3.99431
3.99603
3.99786
3.99977
4.00178
4.00386
4.00602
4.00824
4.01051
4.01283
4.01518
4.01756
4.01995
4.02234
4.02472
4.02708
4.0294
4.03168
4.0339
4.03605
4.03812
4.0401
4.04199
4.04377
4.04543
4.04696
4.04837
4.04963
4.05075
4.05172
4.05254
4.0532
4.05369
4.05403
4.0542
4.0542
4.05404
4.05372
4.05323
4.05248
1.61624
3.30894
4.10161
4.35522
4.42201
4.42574
4.40724
4.38106
4.35281
4.32483
4.29808
4.27292
4.24944
4.22762
4.20738
4.18859
4.17115
4.15496
4.13991
4.1259
4.11285
4.10069
4.08934
4.07874
4.06884
4.05958
4.05091
4.0428
4.03521
4.02809
4.02143
4.01519
4.00935
4.00388
3.99875
3.99396
3.98947
3.98528
3.98137
3.97772
3.97432
3.97115
3.96821
3.96548
3.96295
3.96062
3.95847
3.95649
3.95469
3.95304
3.95155
3.95021
3.94901
3.94794
3.947
3.94618
3.94548
3.94489
3.94441
3.94402
3.94374
3.94354
3.94343
3.9434
3.94345
3.94358
3.94379
3.94407
3.94442
3.94486
3.94537
3.94597
3.94666
3.94744
3.94832
3.9493
3.95038
3.95157
3.95287
3.95428
3.9558
3.95744
3.95919
3.96104
3.963
3.96505
3.9672
3.96943
3.97174
3.97411
3.97654
3.97901
3.98151
3.98403
3.98656
3.98908
3.99157
3.99404
3.99645
3.99881
4.00109
4.00329
4.00538
4.00737
4.00923
4.01097
4.01256
4.014
4.01528
4.0164
4.01734
4.0181
4.01868
4.01908
4.01928
4.01929
4.01911
4.01873
4.01817
4.01741
4.01647
4.01523
1.26812
2.7064
3.65726
4.05358
4.20386
4.25636
4.26838
4.26267
4.24897
4.23181
4.21339
4.19484
4.17674
4.15936
4.14285
4.12725
4.11255
4.09875
4.0858
4.07365
4.06226
4.05158
4.04157
4.03219
4.02339
4.01514
4.0074
4.00014
3.99333
3.98695
3.98096
3.97535
3.97009
3.96516
3.96055
3.95624
3.95221
3.94844
3.94493
3.94166
3.93862
3.93579
3.93317
3.93074
3.92851
3.92645
3.92456
3.92284
3.92128
3.91986
3.91859
3.91745
3.91645
3.91557
3.91482
3.91417
3.91364
3.91321
3.91288
3.91264
3.9125
3.91243
3.91245
3.91254
3.91271
3.91295
3.91326
3.91365
3.91411
3.91464
3.91525
3.91594
3.91672
3.9176
3.91857
3.91964
3.92082
3.92212
3.92352
3.92504
3.92668
3.92844
3.93031
3.93229
3.93438
3.93657
3.93886
3.94123
3.94368
3.9462
3.94877
3.95138
3.95402
3.95667
3.95932
3.96196
3.96457
3.96713
3.96963
3.97206
3.9744
3.97664
3.97876
3.98075
3.98261
3.9843
3.98584
3.9872
3.98839
3.98938
3.99017
3.99076
3.99115
3.99132
3.99128
3.99101
3.99054
3.98984
3.98894
3.98781
3.98649
3.98483
1.04443
2.13048
3.15609
3.69382
3.94125
4.05401
4.10457
4.12487
4.12967
4.12622
4.11833
4.10811
4.09673
4.0849
4.07304
4.06139
4.0501
4.03924
4.02888
4.01901
4.00966
4.0008
3.99243
3.98452
3.97707
3.97005
3.96343
3.95721
3.95135
3.94585
3.94068
3.93583
3.93129
3.92702
3.92303
3.9193
3.91582
3.91257
3.90954
3.90672
3.90411
3.9017
3.89946
3.89741
3.89552
3.8938
3.89223
3.89081
3.88953
3.88839
3.88738
3.8865
3.88574
3.88509
3.88456
3.88413
3.8838
3.88357
3.88342
3.88337
3.88339
3.88349
3.88367
3.88391
3.88423
3.88461
3.88506
3.88557
3.88616
3.88681
3.88754
3.88835
3.88925
3.89023
3.89132
3.89251
3.8938
3.89521
3.89673
3.89837
3.90013
3.90201
3.90401
3.90612
3.90834
3.91067
3.91309
3.91559
3.91818
3.92083
3.92353
3.92628
3.92904
3.93182
3.93459
3.93734
3.94005
3.94271
3.9453
3.9478
3.9502
3.95249
3.95465
3.95666
3.95852
3.96021
3.96171
3.96303
3.96414
3.96505
3.96573
3.9662
3.96643
3.96644
3.96621
3.96574
3.96503
3.96409
3.96291
3.9615
3.95988
3.95789
0.919762
1.62589
2.61278
3.26902
3.62244
3.80741
3.90596
3.95917
3.98747
4.00145
4.00694
4.00725
4.00438
3.99954
3.99352
3.98681
3.97977
3.97259
3.96544
3.95842
3.95158
3.94497
3.93862
3.93255
3.92675
3.92124
3.91601
3.91105
3.90637
3.90195
3.89779
3.89387
3.89019
3.88673
3.8835
3.88048
3.87766
3.87504
3.8726
3.87035
3.86826
3.86635
3.86459
3.86298
3.86152
3.8602
3.85902
3.85797
3.85705
3.85624
3.85555
3.85498
3.85451
3.85415
3.85388
3.85371
3.85363
3.85364
3.85372
3.85389
3.85412
3.85443
3.8548
3.85523
3.85573
3.85629
3.85691
3.85759
3.85833
3.85913
3.86001
3.86097
3.862
3.86313
3.86435
3.86567
3.8671
3.86863
3.87029
3.87206
3.87394
3.87595
3.87808
3.88032
3.88267
3.88513
3.88768
3.89032
3.89303
3.89581
3.89864
3.90151
3.9044
3.9073
3.91019
3.91305
3.91587
3.91862
3.9213
3.92389
3.92637
3.92872
3.93093
3.93298
3.93487
3.93657
3.93808
3.93939
3.94048
3.94134
3.94197
3.94236
3.94251
3.94241
3.94205
3.94144
3.94058
3.93947
3.9381
3.93649
3.93465
3.93243
0.860369
1.23773
2.06198
2.78202
3.23846
3.50547
3.66218
3.75644
3.81442
3.85055
3.87304
3.88674
3.89464
3.89864
3.89999
3.89953
3.89781
3.89526
3.89213
3.88865
3.88496
3.88115
3.87732
3.87351
3.86978
3.86614
3.86262
3.85924
3.856
3.85292
3.84999
3.84722
3.8446
3.84215
3.83985
3.8377
3.8357
3.83385
3.83214
3.83056
3.82913
3.82782
3.82664
3.82559
3.82465
3.82383
3.82312
3.82252
3.82203
3.82163
3.82134
3.82114
3.82103
3.82101
3.82108
3.82123
3.82145
3.82175
3.82212
3.82255
3.82305
3.8236
3.82422
3.82489
3.82561
3.82638
3.82721
3.82809
3.82903
3.83003
3.83109
3.83222
3.83343
3.83472
3.8361
3.83757
3.83915
3.84084
3.84264
3.84455
3.84658
3.84873
3.85099
3.85337
3.85586
3.85845
3.86113
3.8639
3.86675
3.86966
3.87262
3.87561
3.87863
3.88164
3.88465
3.88763
3.89056
3.89342
3.8962
3.89889
3.90146
3.90389
3.90618
3.90831
3.91025
3.91201
3.91356
3.91489
3.916
3.91688
3.9175
3.91788
3.918
3.91785
3.91745
3.91677
3.91583
3.91462
3.91314
3.91141
3.90944
3.90706
0.836787
0.98815
1.55966
2.25312
2.7872
3.13869
3.36248
3.50657
3.60152
3.66555
3.70958
3.74028
3.76187
3.77709
3.78779
3.79521
3.80023
3.80349
3.80544
3.80641
3.80665
3.80636
3.80567
3.8047
3.80353
3.80223
3.80084
3.79941
3.79796
3.79653
3.79514
3.79379
3.7925
3.79127
3.79012
3.78905
3.78807
3.78716
3.78635
3.78562
3.78498
3.78443
3.78396
3.78358
3.78329
3.78308
3.78295
3.78291
3.78294
3.78305
3.78324
3.7835
3.78383
3.78424
3.78471
3.78524
3.78584
3.7865
3.78721
3.78798
3.7888
3.78966
3.79057
3.79153
3.79253
3.79357
3.79466
3.79579
3.79697
3.7982
3.79949
3.80083
3.80225
3.80374
3.80532
3.80698
3.80874
3.8106
3.81257
3.81465
3.81684
3.81914
3.82156
3.82408
3.82671
3.82944
3.83227
3.83518
3.83816
3.8412
3.8443
3.84742
3.85057
3.85372
3.85685
3.85995
3.863
3.86599
3.86889
3.8717
3.87438
3.87692
3.87932
3.88154
3.88358
3.88543
3.88706
3.88848
3.88965
3.89059
3.89127
3.89169
3.89184
3.89172
3.89132
3.89065
3.8897
3.88846
3.88696
3.88518
3.88315
3.88071
0.830413
0.857509
1.16926
1.7285
2.28148
2.70333
2.99742
3.19899
3.33861
3.4372
3.50825
3.56042
3.59936
3.62883
3.65138
3.6688
3.68236
3.69298
3.70133
3.70792
3.71312
3.71725
3.72051
3.72309
3.72514
3.72675
3.72802
3.72903
3.72983
3.73046
3.73097
3.73139
3.73174
3.73204
3.73232
3.73259
3.73285
3.73312
3.73342
3.73373
3.73407
3.73445
3.73487
3.73532
3.73582
3.73637
3.73696
3.73759
3.73828
3.73901
3.73979
3.74062
3.74149
3.74242
3.74339
3.7444
3.74546
3.74656
3.7477
3.74887
3.75008
3.75133
3.75261
3.75392
3.75526
3.75663
3.75804
3.75948
3.76096
3.76247
3.76404
3.76565
3.76732
3.76906
3.77087
3.77276
3.77474
3.77681
3.77898
3.78125
3.78362
3.7861
3.78869
3.79139
3.79418
3.79707
3.80005
3.80311
3.80624
3.80943
3.81267
3.81594
3.81923
3.82252
3.8258
3.82904
3.83224
3.83536
3.83841
3.84135
3.84417
3.84685
3.84938
3.85174
3.85392
3.85589
3.85765
3.85919
3.86048
3.86153
3.86231
3.86283
3.86308
3.86304
3.86273
3.86212
3.86123
3.86004
3.85858
3.85682
3.85482
3.85238
0.831632
0.801461
0.924682
1.27902
1.76057
2.20994
2.5635
2.82478
3.0153
3.15518
3.2594
3.33832
3.39906
3.44651
3.48408
3.51418
3.53856
3.5585
3.57496
3.58866
3.60014
3.60984
3.61808
3.62514
3.63123
3.63651
3.64112
3.64518
3.64878
3.652
3.65489
3.65751
3.65991
3.66212
3.66418
3.66611
3.66793
3.66967
3.67133
3.67294
3.67451
3.67604
3.67755
3.67904
3.68052
3.68199
3.68347
3.68495
3.68643
3.68793
3.68945
3.69097
3.69252
3.69409
3.69567
3.69727
3.6989
3.70054
3.7022
3.70388
3.70558
3.70729
3.70902
3.71077
3.71253
3.71431
3.71611
3.71793
3.71977
3.72164
3.72354
3.72549
3.72747
3.72951
3.73161
3.73378
3.73602
3.73834
3.74076
3.74326
3.74586
3.74855
3.75135
3.75424
3.75722
3.76029
3.76345
3.76669
3.76999
3.77335
3.77675
3.78019
3.78364
3.78709
3.79053
3.79394
3.7973
3.80059
3.8038
3.80691
3.8099
3.81275
3.81545
3.81798
3.82032
3.82247
3.8244
3.8261
3.82756
3.82877
3.82972
3.83039
3.83079
3.8309
3.83072
3.83024
3.82947
3.82841
3.82705
3.82539
3.82347
3.82111
0.835915
0.782667
0.803403
0.968303
1.29566
1.69673
2.07275
2.38225
2.62383
2.80953
2.95259
3.06386
3.15146
3.22133
3.27774
3.32383
3.3619
3.39365
3.42038
3.44308
3.46251
3.47926
3.4938
3.50652
3.51771
3.52762
3.53644
3.54435
3.55147
3.55793
3.56381
3.5692
3.57417
3.57877
3.58305
3.58705
3.59082
3.59438
3.59776
3.60098
3.60407
3.60704
3.6099
3.61268
3.61537
3.61801
3.62058
3.62311
3.62559
3.62804
3.63046
3.63285
3.63523
3.63759
3.63993
3.64226
3.64459
3.6469
3.64921
3.65151
3.65381
3.6561
3.65839
3.66067
3.66295
3.66523
3.66751
3.6698
3.67209
3.6744
3.67672
3.67907
3.68144
3.68385
3.68631
3.68882
3.69139
3.69402
3.69673
3.69952
3.70239
3.70535
3.70839
3.71152
3.71473
3.71803
3.7214
3.72484
3.72835
3.7319
3.7355
3.73913
3.74277
3.74642
3.75004
3.75364
3.75719
3.76068
3.76409
3.76739
3.77058
3.77364
3.77654
3.77928
3.78184
3.78419
3.78633
3.78825
3.78992
3.79134
3.7925
3.79338
3.79398
3.79429
3.79431
3.79403
3.79344
3.79255
3.79136
3.78986
3.78809
3.78588
0.841165
0.780282
0.755
0.801817
0.962762
1.23783
1.56799
1.88853
2.16639
2.39488
2.57903
2.72692
2.8462
2.94319
3.02278
3.08874
3.14394
3.19054
3.23023
3.26431
3.29379
3.31947
3.34199
3.36186
3.37951
3.39527
3.40941
3.42217
3.43374
3.44429
3.45394
3.46281
3.47101
3.47861
3.48568
3.4923
3.4985
3.50435
3.50988
3.51512
3.5201
3.52487
3.52943
3.53381
3.53802
3.5421
3.54604
3.54987
3.55359
3.55722
3.56077
3.56424
3.56765
3.57099
3.57428
3.57751
3.5807
3.58385
3.58696
3.59003
3.59307
3.59607
3.59905
3.602
3.60492
3.60782
3.6107
3.61356
3.61641
3.61926
3.6221
3.62495
3.6278
3.63067
3.63357
3.6365
3.63948
3.6425
3.64558
3.64872
3.65193
3.65521
3.65856
3.66198
3.66548
3.66905
3.67268
3.67638
3.68013
3.68393
3.68776
3.69162
3.69549
3.69936
3.70322
3.70704
3.71082
3.71454
3.71818
3.72172
3.72514
3.72844
3.73159
3.73457
3.73738
3.73999
3.74238
3.74456
3.74649
3.74817
3.74959
3.75073
3.75159
3.75215
3.75242
3.75238
3.75204
3.75138
3.75042
3.74914
3.74757
3.74558
0.846372
0.784571
0.740866
0.731421
0.780818
0.913761
1.13036
1.39676
1.66969
1.92048
2.13792
2.32135
2.47447
2.60211
2.70889
2.79873
2.87484
2.93979
2.99561
3.04393
3.08604
3.12297
3.15556
3.18449
3.2103
3.23346
3.25433
3.27323
3.29043
3.30614
3.32056
3.33383
3.3461
3.35748
3.36808
3.37798
3.38726
3.39598
3.40421
3.41198
3.41936
3.42637
3.43306
3.43945
3.44557
3.45145
3.4571
3.46256
3.46784
3.47294
3.4779
3.48271
3.4874
3.49197
3.49643
3.50079
3.50506
3.50925
3.51335
3.51738
3.52134
3.52523
3.52906
3.53283
3.53655
3.54021
3.54383
3.54741
3.55095
3.55446
3.55795
3.56142
3.56487
3.56832
3.57177
3.57523
3.57871
3.58222
3.58576
3.58934
3.59297
3.59666
3.60039
3.60419
3.60804
3.61195
3.61591
3.61992
3.62398
3.62807
3.6322
3.63634
3.64049
3.64464
3.64877
3.65287
3.65692
3.66091
3.66482
3.66864
3.67235
3.67593
3.67936
3.68264
3.68574
3.68865
3.69134
3.69382
3.69606
3.69805
3.69977
3.70123
3.70239
3.70327
3.70384
3.7041
3.70405
3.70369
3.703
3.702
3.7007
3.69897
0.851011
0.791143
0.741126
0.708367
0.70346
0.741579
0.838108
0.996907
1.20263
1.4285
1.65059
1.85477
2.03555
2.19259
2.3279
2.44426
2.54449
2.63115
2.70642
2.77214
2.82983
2.88074
2.9259
2.96617
3.00225
3.03473
3.0641
3.09076
3.11507
3.13731
3.15775
3.17659
3.19401
3.21018
3.22523
3.23928
3.25243
3.26479
3.27641
3.28739
3.29777
3.30762
3.31699
3.32591
3.33442
3.34257
3.35038
3.35788
3.3651
3.37206
3.37878
3.38528
3.39157
3.39768
3.40361
3.40938
3.415
3.42047
3.42582
3.43104
3.43615
3.44115
3.44604
3.45084
3.45555
3.46017
3.46471
3.46917
3.47357
3.47792
3.4822
3.48644
3.49064
3.4948
3.49894
3.50307
3.50718
3.5113
3.51542
3.51956
3.52373
3.52792
3.53215
3.53641
3.54071
3.54505
3.54943
3.55384
3.55828
3.56275
3.56723
3.57173
3.57623
3.58071
3.58518
3.58961
3.59399
3.59831
3.60255
3.6067
3.61075
3.61466
3.61844
3.62206
3.6255
3.62876
3.63181
3.63464
3.63723
3.63958
3.64167
3.64348
3.64501
3.64624
3.64717
3.64779
3.64809
3.64806
3.64772
3.64704
3.64606
3.64465
0.854799
0.797919
0.746862
0.705362
0.677885
0.670753
0.692779
0.753704
0.859331
1.00619
1.18133
1.368
1.55204
1.72458
1.88152
2.02185
2.14624
2.2561
2.35311
2.43889
2.51496
2.58264
2.64307
2.69726
2.74602
2.79009
2.83005
2.86643
2.89966
2.93013
2.95815
2.98401
3.00794
3.03015
3.05083
3.07013
3.08819
3.10513
3.12106
3.13608
3.15027
3.1637
3.17644
3.18856
3.20009
3.2111
3.22163
3.23171
3.24138
3.25067
3.25961
3.26823
3.27654
3.28458
3.29236
3.2999
3.30721
3.31431
3.32122
3.32794
3.33448
3.34086
3.34709
3.35317
3.35911
3.36492
3.37062
3.37619
3.38167
3.38704
3.39232
3.39753
3.40266
3.40772
3.41273
3.41768
3.42259
3.42748
3.43234
3.43719
3.44203
3.44687
3.45172
3.45657
3.46145
3.46633
3.47124
3.47615
3.48109
3.48603
3.49097
3.49591
3.50084
3.50576
3.51064
3.51548
3.52027
3.52499
3.52964
3.53419
3.53863
3.54294
3.54712
3.55114
3.55499
3.55865
3.56211
3.56536
3.56837
3.57113
3.57363
3.57586
3.5778
3.57945
3.58079
3.58182
3.58252
3.5829
3.58294
3.58264
3.58204
3.58101
0.857613
0.803838
0.754023
0.710069
0.674015
0.648368
0.636594
0.64348
0.674826
0.73588
0.828724
0.950234
1.09243
1.24518
1.3992
1.54782
1.68713
1.81538
1.93217
2.03791
2.13338
2.21952
2.29731
2.36767
2.43146
2.48942
2.54224
2.59051
2.63474
2.67539
2.71285
2.74747
2.77954
2.80934
2.83709
2.863
2.88724
2.90997
2.93134
2.95146
2.97045
2.98842
3.00543
3.02158
3.03694
3.05157
3.06553
3.07887
3.09164
3.10387
3.11562
3.12691
3.13778
3.14825
3.15836
3.16813
3.17758
3.18672
3.19559
3.20419
3.21255
3.22067
3.22857
3.23626
3.24376
3.25107
3.2582
3.26517
3.27199
3.27866
3.2852
3.29161
3.29791
3.3041
3.31019
3.31619
3.32212
3.32797
3.33376
3.33951
3.34521
3.35087
3.35651
3.36213
3.36774
3.37332
3.3789
3.38447
3.39003
3.39557
3.4011
3.40661
3.4121
3.41755
3.42295
3.42831
3.43361
3.43883
3.44396
3.449
3.45392
3.45872
3.46338
3.46788
3.47221
3.47635
3.48029
3.48401
3.4875
3.49074
3.49372
3.49643
3.49885
3.50097
3.50279
3.50428
3.50544
3.50627
3.50676
3.50691
3.50673
3.50615
0.859482
0.808378
0.760626
0.716973
0.678334
0.645749
0.620512
0.604371
0.599722
0.609658
0.637654
0.686738
0.758296
0.851094
0.961178
1.08279
1.20982
1.33698
1.46042
1.57773
1.68765
1.78972
1.88396
1.9707
2.05043
2.12369
2.19105
2.25304
2.31019
2.36296
2.41178
2.45704
2.49907
2.5382
2.57469
2.6088
2.64074
2.6707
2.69887
2.7254
2.75044
2.7741
2.7965
2.81774
2.83792
2.85712
2.87541
2.89287
2.90955
2.92551
2.9408
2.95548
2.96957
2.98313
2.99619
3.00877
3.02092
3.03265
3.04399
3.05498
3.06562
3.07593
3.08595
3.09567
3.10513
3.11432
3.12327
3.132
3.14051
3.14881
3.15692
3.16486
3.17262
3.18023
3.1877
3.19503
3.20223
3.20932
3.21629
3.22318
3.22997
3.23669
3.24335
3.24994
3.25648
3.26297
3.26941
3.27582
3.28218
3.2885
3.29478
3.30102
3.30721
3.31334
3.31942
3.32542
3.33135
3.3372
3.34295
3.34859
3.35411
3.35949
3.36473
3.36981
3.37471
3.37942
3.38393
3.38821
3.39226
3.39606
3.3996
3.40286
3.40583
3.4085
3.41085
3.41288
3.41457
3.41592
3.41691
3.41756
3.41787
3.41779
0.860565
0.811411
0.765711
0.723439
0.684828
0.650242
0.620147
0.595142
0.57603
0.563904
0.56022
0.566795
0.585676
0.618805
0.66751
0.731993
0.81102
0.902008
1.00149
1.10577
1.21146
1.31586
1.41705
1.51381
1.60547
1.69173
1.77257
1.84814
1.91867
1.98447
2.04585
2.10313
2.15664
2.20668
2.25353
2.29744
2.33866
2.37742
2.4139
2.44831
2.48079
2.51151
2.54061
2.5682
2.5944
2.61932
2.64305
2.66568
2.68728
2.70793
2.72769
2.74663
2.7648
2.78225
2.79903
2.81517
2.83073
2.84573
2.86021
2.8742
2.88773
2.90083
2.91351
2.92581
2.93773
2.94931
2.96056
2.9715
2.98215
2.99252
3.00262
3.01248
3.0221
3.0315
3.0407
3.0497
3.05852
3.06717
3.07566
3.084
3.0922
3.10027
3.10822
3.11606
3.1238
3.13145
3.13902
3.1465
3.1539
3.16122
3.16847
3.17564
3.18273
3.18975
3.19667
3.20351
3.21025
3.21688
3.2234
3.22979
3.23605
3.24216
3.24812
3.2539
3.2595
3.2649
3.27008
3.27504
3.27975
3.28421
3.2884
3.29231
3.29591
3.29921
3.30218
3.30482
3.30711
3.30905
3.31063
3.31185
3.31272
3.31321
0.861099
0.813133
0.76901
0.728261
0.690673
0.656203
0.624916
0.596953
0.57254
0.551996
0.535764
0.524447
0.518835
0.519919
0.528854
0.546863
0.575059
0.614217
0.664541
0.725514
0.795886
0.873821
0.957145
1.04364
1.13129
1.21842
1.30375
1.3864
1.4658
1.54163
1.61374
1.68211
1.74682
1.80798
1.86575
1.92031
1.97184
2.02055
2.0666
2.11017
2.15144
2.19056
2.22768
2.26294
2.29646
2.32837
2.35877
2.38777
2.41546
2.44192
2.46725
2.4915
2.51476
2.53708
2.55852
2.57914
2.59898
2.61809
2.63652
2.6543
2.67148
2.68807
2.70413
2.71967
2.73472
2.74931
2.76347
2.77721
2.79056
2.80353
2.81616
2.82844
2.84042
2.85209
2.86348
2.8746
2.88547
2.8961
2.90651
2.91671
2.9267
2.93649
2.94611
2.95556
2.96485
2.97399
2.98299
2.99186
3.0006
3.00922
3.01772
3.02609
3.03436
3.0425
3.05052
3.05842
3.06619
3.07383
3.08133
3.08867
3.09586
3.10289
3.10973
3.11639
3.12284
3.12908
3.13509
3.14086
3.14637
3.15162
3.15658
3.16124
3.16559
3.16962
3.17332
3.17667
3.17966
3.18228
3.18453
3.18639
3.18791
3.18904
0.861317
0.813942
0.770775
0.731184
0.694718
0.661081
0.630095
0.601662
0.575754
0.552397
0.531673
0.513721
0.498751
0.487049
0.478999
0.475087
0.475905
0.482135
0.494503
0.513718
0.540366
0.574817
0.617121
0.666952
0.72361
0.786067
0.853079
0.923307
0.99544
1.06829
1.14087
1.21238
1.28223
1.35001
1.41546
1.47841
1.53881
1.59663
1.6519
1.70469
1.75507
1.80315
1.84902
1.8928
1.93459
1.9745
2.01264
2.0491
2.08399
2.11739
2.14938
2.18005
2.20948
2.23774
2.26489
2.291
2.31613
2.34033
2.36365
2.38614
2.40785
2.42882
2.44909
2.46869
2.48766
2.50603
2.52383
2.5411
2.55784
2.57411
2.5899
2.60526
2.6202
2.63474
2.6489
2.6627
2.67617
2.68931
2.70215
2.71469
2.72696
2.73896
2.75072
2.76222
2.7735
2.78456
2.79542
2.80607
2.81654
2.82683
2.83694
2.84688
2.85664
2.86625
2.87568
2.88495
2.89405
2.90297
2.91172
2.92028
2.92865
2.93682
2.94479
2.95254
2.96005
2.96733
2.97436
2.98112
2.9876
2.9938
2.99969
3.00526
3.0105
3.0154
3.01995
3.02413
3.02793
3.03135
3.03437
3.03699
3.03924
3.04112
0.861389
0.814244
0.77153
0.732597
0.696917
0.664079
0.633769
0.605753
0.579862
0.555979
0.53403
0.513979
0.495828
0.479611
0.4654
0.453309
0.443493
0.436161
0.431574
0.430052
0.431968
0.437737
0.4478
0.462586
0.482476
0.507758
0.538578
0.574904
0.616512
0.66298
0.713718
0.768009
0.825062
0.88407
0.94426
1.00493
1.06548
1.12542
1.18436
1.242
1.29815
1.35266
1.40546
1.45649
1.50575
1.55324
1.59899
1.64303
1.68542
1.72622
1.76547
1.80324
1.8396
1.87461
1.90832
1.94081
1.97213
2.00234
2.03148
2.05961
2.08678
2.11304
2.13842
2.16297
2.18673
2.20974
2.23203
2.25364
2.2746
2.29493
2.31467
2.33385
2.35249
2.37061
2.38825
2.40541
2.42213
2.43843
2.45432
2.46983
2.48496
2.49975
2.5142
2.52833
2.54215
2.55566
2.56889
2.58184
2.59452
2.60695
2.61913
2.63107
2.64278
2.65426
2.66551
2.67654
2.68734
2.69791
2.70825
2.71836
2.72824
2.73787
2.74725
2.75637
2.76523
2.7738
2.78209
2.79008
2.79776
2.80511
2.81213
2.8188
2.82511
2.83105
2.83661
2.84178
2.84654
2.85089
2.85481
2.85832
2.86143
2.86416
0.861406
0.814329
0.771776
0.733121
0.697834
0.665476
0.635686
0.608168
0.582682
0.559037
0.53708
0.516692
0.497782
0.480288
0.464168
0.449403
0.435996
0.423969
0.413369
0.404262
0.396745
0.390937
0.38699
0.385084
0.385432
0.38827
0.393857
0.402461
0.414344
0.429748
0.448872
0.471851
0.49874
0.5295
0.563987
0.601961
0.643088
0.68696
0.733122
0.781088
0.830373
0.880513
0.93108
0.981697
1.03204
1.08185
1.1309
1.17905
1.22616
1.27217
1.317
1.36062
1.40303
1.44421
1.48417
1.52293
1.56051
1.59692
1.63222
1.66641
1.69954
1.73165
1.76277
1.79293
1.82218
1.85055
1.87807
1.90478
1.93071
1.95589
1.98034
2.00411
2.02721
2.04968
2.07153
2.0928
2.1135
2.13367
2.15333
2.17248
2.19117
2.2094
2.2272
2.24458
2.26157
2.27816
2.29438
2.31023
2.32572
2.34087
2.35568
2.37017
2.38435
2.39821
2.41177
2.42504
2.438
2.45067
2.46304
2.47512
2.4869
2.49837
2.50954
2.52038
2.53091
2.54111
2.55096
2.56047
2.56962
2.5784
2.5868
2.59481
2.60241
2.60961
2.61638
2.62273
2.62863
2.63408
2.63909
2.64363
2.64776
2.65148
0.861407
0.814342
0.77183
0.73326
0.698113
0.665954
0.636417
0.609191
0.584014
0.560665
0.538959
0.518737
0.499869
0.482247
0.46578
0.450397
0.43604
0.422666
0.410246
0.398762
0.388209
0.378592
0.36993
0.362255
0.355609
0.350053
0.345657
0.342512
0.340722
0.340409
0.341709
0.344772
0.349758
0.356833
0.366159
0.377891
0.392165
0.409092
0.428747
0.45116
0.476313
0.504137
0.534507
0.567251
0.602152
0.638957
0.677388
0.717155
0.757962
0.799524
0.841567
0.883842
0.926129
0.968233
1.00999
1.05127
1.09197
1.13199
1.17129
1.20981
1.24751
1.28439
1.32043
1.35563
1.38998
1.42349
1.45617
1.48803
1.51908
1.54934
1.57883
1.60756
1.63555
1.66283
1.68942
1.71532
1.74058
1.76521
1.78922
1.81265
1.8355
1.85781
1.87959
1.90085
1.92161
1.94189
1.96171
1.98108
2
2.01849
2.03655
2.05419
2.07141
2.08823
2.10466
2.1207
2.13635
2.15163
2.16653
2.18104
2.19518
2.20894
2.22232
2.2353
2.24789
2.26008
2.27187
2.28324
2.29419
2.3047
2.31478
2.32441
2.33358
2.34229
2.35052
2.35828
2.36555
2.37233
2.37862
2.3844
2.38974
2.39466
0.861405
0.814337
0.771831
0.733277
0.698164
0.666062
0.636607
0.60949
0.584448
0.561253
0.53971
0.519653
0.500935
0.483431
0.467033
0.451647
0.437194
0.423603
0.410816
0.398785
0.387468
0.376832
0.366852
0.357508
0.348789
0.340687
0.333204
0.326348
0.32013
0.314572
0.309702
0.305553
0.30217
0.299604
0.297914
0.29717
0.297449
0.298836
0.301424
0.305311
0.3106
0.317392
0.325788
0.335883
0.347762
0.361495
0.377137
0.394719
0.41425
0.435711
0.459056
0.484212
0.511079
0.539535
0.569436
0.600623
0.632924
0.666162
0.70016
0.734741
0.769736
0.804989
0.840354
0.8757
0.910913
0.945893
0.980557
1.01483
1.04867
1.08202
1.11485
1.14713
1.17885
1.20999
1.24055
1.27052
1.29989
1.32868
1.35688
1.3845
1.41154
1.43801
1.46392
1.48927
1.51407
1.53834
1.56207
1.58528
1.60799
1.63019
1.65189
1.67311
1.69385
1.71409
1.73384
1.75312
1.77192
1.79025
1.80812
1.82551
1.84244
1.8589
1.8749
1.89041
1.90546
1.92002
1.93409
1.94767
1.96076
1.97334
1.98541
1.99697
2.00802
2.01853
2.02852
2.03798
2.04691
2.0553
2.06316
2.07048
2.07732
2.08371
0.861402
0.814329
0.77182
0.733266
0.698157
0.666065
0.636627
0.609537
0.584532
0.561385
0.539902
0.519913
0.50127
0.483846
0.467525
0.45221
0.437813
0.424257
0.411474
0.399403
0.387993
0.377196
0.366972
0.357284
0.348103
0.339402
0.331157
0.323351
0.315968
0.308997
0.302429
0.296259
0.290486
0.285112
0.28014
0.275581
0.271445
0.267749
0.264512
0.261758
0.259514
0.257813
0.256693
0.256195
0.256365
0.257255
0.25892
0.261418
0.264812
0.269165
0.274542
0.281005
0.288617
0.297436
0.307512
0.318892
0.331611
0.345693
0.361152
0.377986
0.396181
0.415708
0.436524
0.458571
0.48178
0.50607
0.531348
0.557516
0.58447
0.612102
0.640302
0.668961
0.697974
0.727239
0.75666
0.786149
0.815624
0.845012
0.874247
0.903273
0.93204
0.960506
0.988637
1.0164
1.04378
1.07075
1.0973
1.12342
1.14909
1.1743
1.19906
1.22336
1.24719
1.27055
1.29343
1.31583
1.33771
1.35908
1.37994
1.40028
1.4201
1.43939
1.45815
1.47637
1.49406
1.5112
1.5278
1.54385
1.55934
1.57428
1.58867
1.6025
1.61576
1.62847
1.64062
1.65222
1.66325
1.67373
1.68366
1.69305
1.70193
1.71035
0.8614
0.814321
0.77181
0.733253
0.698143
0.66605
0.636614
0.609527
0.584528
0.561391
0.53992
0.519948
0.501326
0.483926
0.467634
0.45235
0.437986
0.424462
0.411709
0.399665
0.388273
0.377484
0.367254
0.35754
0.348309
0.339526
0.331164
0.323195
0.315596
0.308347
0.301429
0.294824
0.288519
0.282502
0.27676
0.271286
0.266072
0.261112
0.256403
0.251941
0.247725
0.243758
0.24004
0.236576
0.233372
0.230436
0.227777
0.225408
0.223341
0.221593
0.220182
0.219128
0.218455
0.218189
0.218358
0.218993
0.220126
0.221793
0.224031
0.226879
0.230376
0.234563
0.239479
0.245165
0.251659
0.258996
0.267209
0.276327
0.286374
0.29737
0.309327
0.322251
0.336141
0.350989
0.366777
0.383482
0.401072
0.419507
0.438741
0.458723
0.479394
0.500693
0.522554
0.544907
0.567685
0.590815
0.614227
0.637854
0.661627
0.685483
0.70936
0.733202
0.756955
0.780572
0.804007
0.82722
0.850186
0.872864
0.895217
0.917212
0.938828
0.960044
0.980844
1.00121
1.02114
1.04062
1.05964
1.07819
1.09627
1.11388
1.131
1.14764
1.16379
1.17945
1.19461
1.20929
1.22346
1.23715
1.25033
1.26303
1.27524
1.287
0.861399
0.814317
0.771804
0.733245
0.698133
0.666039
0.636602
0.609515
0.584516
0.561379
0.53991
0.51994
0.501322
0.483926
0.46764
0.452363
0.438006
0.424492
0.411749
0.399716
0.388335
0.377557
0.367336
0.357631
0.348405
0.339624
0.331258
0.323279
0.315662
0.308383
0.301421
0.294758
0.288376
0.282259
0.276392
0.270762
0.265357
0.260167
0.25518
0.250389
0.245786
0.241362
0.237113
0.233033
0.229117
0.225362
0.221764
0.218323
0.215035
0.211901
0.208922
0.206097
0.20343
0.200923
0.198581
0.196407
0.194407
0.192589
0.19096
0.18953
0.188308
0.187306
0.186537
0.186016
0.185756
0.185776
0.186095
0.186731
0.187706
0.189043
0.190766
0.192899
0.195469
0.198502
0.202026
0.206067
0.210654
0.215813
0.22157
0.227951
0.234978
0.242674
0.251056
0.260141
0.269942
0.280467
0.291721
0.303705
0.316414
0.32984
0.34397
0.358784
0.37426
0.39037
0.407084
0.424365
0.442176
0.460474
0.47922
0.498368