/*--------------------------------*- C++ -*----------------------------------*\
  =========                 |
  \\      /  F ield         | OpenFOAM: The Open Source CFD Toolbox
   \\    /   O peration     | Website:  https://openfoam.org
    \\  /    A nd           | Version:  8
     \\/     M anipulation  |
\*---------------------------------------------------------------------------*/
FoamFile
{
    version     2.0;
    format      ascii;
    class       volScalarField;
    location    "850";
    object      nut;
}
// * * * * * * * * * * * * * * * * * * * * * * * * * * * * * * * * * * * * * //

dimensions      [0 2 -1 0 0 0 0];

internalField   nonuniform List<scalar> 
7320
(
0.000286299
0.000273847
0.000266049
0.000260783
0.000256941
0.000253973
0.00025158
0.000249592
0.000247905
0.000246449
0.000245176
0.000244051
0.000243048
0.000242148
0.000241334
0.000240596
0.000239922
0.000239306
0.000238739
0.000238217
0.000237735
0.000237288
0.000236874
0.000236489
0.000236131
0.000235797
0.000235485
0.000235194
0.000234922
0.000234667
0.000234429
0.000234206
0.000233997
0.000233801
0.000233617
0.000233445
0.000233284
0.000233132
0.000232991
0.000232858
0.000232734
0.000232618
0.00023251
0.000232409
0.000232315
0.000232227
0.000232146
0.000232071
0.000232001
0.000231936
0.000231877
0.000231823
0.000231773
0.000231728
0.000231687
0.00023165
0.000231617
0.000231588
0.000231562
0.00023154
0.000231521
0.000231506
0.000231493
0.000231484
0.000231477
0.000231473
0.000231472
0.000231473
0.000231477
0.000231483
0.000231492
0.000231503
0.000231516
0.000231532
0.00023155
0.00023157
0.000231593
0.000231618
0.000231645
0.000231674
0.000231706
0.000231739
0.000231774
0.000231811
0.00023185
0.000231891
0.000231933
0.000231977
0.000232022
0.000232069
0.000232117
0.000232166
0.000232215
0.000232266
0.000232317
0.000232369
0.000232421
0.000232474
0.000232527
0.00023258
0.000232632
0.000232685
0.000232737
0.000232789
0.000232841
0.000232892
0.000232942
0.000232992
0.000233041
0.000233089
0.000233136
0.000233181
0.000233226
0.00023327
0.000233312
0.000233353
0.000233393
0.000233432
0.000233469
0.000233505
0.000233538
0.000233571
0.000562815
0.000740638
0.000767571
0.000767651
0.000763096
0.000757975
0.000753148
0.000748779
0.000744861
0.00074135
0.000738193
0.000735345
0.000732764
0.000730416
0.000728271
0.000726307
0.000724501
0.000722838
0.000721301
0.000719879
0.00071856
0.000717334
0.000716194
0.000715131
0.00071414
0.000713215
0.00071235
0.000711541
0.000710784
0.000710076
0.000709412
0.00070879
0.000708208
0.000707662
0.000707151
0.000706672
0.000706223
0.000705803
0.000705411
0.000705044
0.000704701
0.000704381
0.000704083
0.000703806
0.000703548
0.000703309
0.000703088
0.000702884
0.000702696
0.000702524
0.000702367
0.000702224
0.000702094
0.000701977
0.000701873
0.000701781
0.0007017
0.00070163
0.00070157
0.000701519
0.000701478
0.000701446
0.000701423
0.000701408
0.0007014
0.0007014
0.000701407
0.000701421
0.000701443
0.000701471
0.000701507
0.000701551
0.000701602
0.00070166
0.000701727
0.000701803
0.000701887
0.000701979
0.00070208
0.000702191
0.00070231
0.000702438
0.000702575
0.000702721
0.000702875
0.000703036
0.000703206
0.000703382
0.000703565
0.000703753
0.000703947
0.000704144
0.000704346
0.000704549
0.000704754
0.00070496
0.000705166
0.000705371
0.000705573
0.000705773
0.000705969
0.00070616
0.000706345
0.000706524
0.000706696
0.000706859
0.000707014
0.00070716
0.000707295
0.00070742
0.000707534
0.000707637
0.000707727
0.000707806
0.000707871
0.000707924
0.000707965
0.000707992
0.000708006
0.000708007
0.000707996
0.000707959
0.00076108
0.00115457
0.00127125
0.00130573
0.00131552
0.00131688
0.00131508
0.00131204
0.00130855
0.00130497
0.00130147
0.00129811
0.00129493
0.00129193
0.00128913
0.0012865
0.00128405
0.00128176
0.00127961
0.00127761
0.00127574
0.00127398
0.00127234
0.0012708
0.00126936
0.00126801
0.00126674
0.00126555
0.00126444
0.0012634
0.00126242
0.0012615
0.00126064
0.00125983
0.00125908
0.00125837
0.00125771
0.0012571
0.00125652
0.00125599
0.00125549
0.00125502
0.00125459
0.0012542
0.00125383
0.00125349
0.00125318
0.0012529
0.00125264
0.00125241
0.0012522
0.00125201
0.00125184
0.0012517
0.00125157
0.00125146
0.00125137
0.0012513
0.00125124
0.0012512
0.00125117
0.00125116
0.00125116
0.00125117
0.00125119
0.00125123
0.00125127
0.00125133
0.0012514
0.00125147
0.00125157
0.00125167
0.00125179
0.00125193
0.00125208
0.00125225
0.00125244
0.00125264
0.00125287
0.00125312
0.00125339
0.00125368
0.00125399
0.00125432
0.00125467
0.00125503
0.00125542
0.00125582
0.00125624
0.00125666
0.0012571
0.00125755
0.001258
0.00125845
0.0012589
0.00125936
0.0012598
0.00126024
0.00126067
0.00126108
0.00126148
0.00126186
0.00126222
0.00126255
0.00126286
0.00126314
0.00126339
0.00126361
0.0012638
0.00126395
0.00126406
0.00126414
0.00126418
0.00126417
0.00126413
0.00126405
0.00126393
0.00126377
0.00126357
0.00126333
0.00126306
0.00126271
0.00094219
0.00154866
0.00180331
0.00190635
0.0019512
0.00197187
0.00198147
0.00198555
0.00198668
0.00198617
0.00198472
0.00198276
0.00198051
0.00197813
0.00197571
0.00197331
0.00197095
0.00196867
0.00196648
0.00196438
0.00196238
0.00196047
0.00195867
0.00195695
0.00195534
0.00195381
0.00195237
0.00195101
0.00194973
0.00194852
0.00194739
0.00194633
0.00194534
0.0019444
0.00194353
0.00194272
0.00194196
0.00194125
0.0019406
0.00193999
0.00193943
0.00193891
0.00193844
0.00193801
0.00193761
0.00193725
0.00193693
0.00193664
0.00193639
0.00193617
0.00193597
0.00193581
0.00193568
0.00193557
0.00193549
0.00193543
0.0019354
0.00193539
0.0019354
0.00193542
0.00193547
0.00193553
0.00193561
0.00193571
0.00193581
0.00193594
0.00193608
0.00193623
0.00193639
0.00193658
0.00193678
0.00193701
0.00193725
0.00193753
0.00193783
0.00193816
0.00193852
0.00193891
0.00193935
0.00193981
0.00194032
0.00194086
0.00194144
0.00194206
0.00194271
0.0019434
0.00194412
0.00194486
0.00194563
0.00194642
0.00194722
0.00194804
0.00194887
0.00194969
0.00195051
0.00195132
0.00195212
0.00195289
0.00195364
0.00195435
0.00195503
0.00195567
0.00195626
0.00195679
0.00195727
0.00195769
0.00195804
0.00195832
0.00195854
0.00195867
0.00195873
0.00195871
0.00195861
0.00195843
0.00195816
0.00195781
0.00195737
0.00195686
0.00195626
0.00195558
0.00195483
0.00195393
0.00110978
0.00189233
0.00232606
0.0025368
0.00264438
0.00270313
0.00273713
0.00275765
0.00277031
0.00277817
0.00278296
0.00278574
0.00278718
0.00278769
0.00278758
0.00278703
0.00278618
0.00278514
0.00278397
0.00278273
0.00278144
0.00278014
0.00277885
0.00277758
0.00277634
0.00277515
0.002774
0.0027729
0.00277185
0.00277085
0.00276991
0.00276903
0.0027682
0.00276742
0.00276669
0.00276602
0.0027654
0.00276483
0.00276431
0.00276383
0.0027634
0.00276302
0.00276268
0.00276238
0.00276212
0.0027619
0.00276172
0.00276158
0.00276147
0.0027614
0.00276136
0.00276135
0.00276138
0.00276143
0.00276152
0.00276163
0.00276177
0.00276193
0.00276212
0.00276232
0.00276255
0.00276279
0.00276305
0.00276332
0.00276361
0.00276392
0.00276424
0.00276458
0.00276494
0.00276532
0.00276572
0.00276615
0.00276661
0.00276711
0.00276765
0.00276824
0.00276887
0.00276956
0.0027703
0.00277109
0.00277195
0.00277286
0.00277383
0.00277486
0.00277595
0.00277709
0.00277827
0.0027795
0.00278077
0.00278206
0.00278338
0.00278471
0.00278605
0.00278739
0.00278871
0.00279001
0.00279129
0.00279252
0.00279371
0.00279483
0.00279589
0.00279687
0.00279777
0.00279857
0.00279927
0.00279987
0.00280034
0.0028007
0.00280093
0.00280103
0.002801
0.00280083
0.00280051
0.00280006
0.00279946
0.00279871
0.00279782
0.00279679
0.00279562
0.0027943
0.00279287
0.00279119
0.00129926
0.00216764
0.00280717
0.00316585
0.00336954
0.00349116
0.00356775
0.00361825
0.00365279
0.00367709
0.00369457
0.00370734
0.00371679
0.00372385
0.00372913
0.0037331
0.00373607
0.00373829
0.00373993
0.00374111
0.00374196
0.00374253
0.0037429
0.00374312
0.00374321
0.00374322
0.00374316
0.00374305
0.00374292
0.00374276
0.0037426
0.00374244
0.00374229
0.00374216
0.00374204
0.00374194
0.00374186
0.00374181
0.00374178
0.00374179
0.00374182
0.00374189
0.00374198
0.00374211
0.00374227
0.00374246
0.00374267
0.00374292
0.0037432
0.00374351
0.00374385
0.00374422
0.00374462
0.00374504
0.00374549
0.00374596
0.00374646
0.00374698
0.00374752
0.00374808
0.00374865
0.00374924
0.00374984
0.00375046
0.00375108
0.00375172
0.00375237
0.00375304
0.00375373
0.00375444
0.00375517
0.00375594
0.00375675
0.00375761
0.00375853
0.0037595
0.00376054
0.00376165
0.00376284
0.0037641
0.00376545
0.00376689
0.00376841
0.00377001
0.00377169
0.00377344
0.00377526
0.00377715
0.00377908
0.00378106
0.00378307
0.0037851
0.00378713
0.00378916
0.00379116
0.00379313
0.00379505
0.00379691
0.00379869
0.00380037
0.00380195
0.00380341
0.00380473
0.0038059
0.00380692
0.00380777
0.00380844
0.00380893
0.00380921
0.00380929
0.00380916
0.00380882
0.00380825
0.00380746
0.00380645
0.00380521
0.00380375
0.00380206
0.00380016
0.00379803
0.00379573
0.00379303
0.00158937
0.00236976
0.00321596
0.00375923
0.00409609
0.00431112
0.00445413
0.00455312
0.00462407
0.00467641
0.00471597
0.00474649
0.00477044
0.00478951
0.00480489
0.00481744
0.00482777
0.00483636
0.00484356
0.00484964
0.00485482
0.00485926
0.00486309
0.00486643
0.00486936
0.00487194
0.00487424
0.0048763
0.00487816
0.00487987
0.00488143
0.00488288
0.00488423
0.00488551
0.00488672
0.00488789
0.00488901
0.00489009
0.00489116
0.0048922
0.00489323
0.00489425
0.00489526
0.00489628
0.00489729
0.00489831
0.00489934
0.00490038
0.00490142
0.00490248
0.00490355
0.00490463
0.00490573
0.00490684
0.00490797
0.0049091
0.00491025
0.00491142
0.00491259
0.00491376
0.00491495
0.00491613
0.00491732
0.00491852
0.00491971
0.00492091
0.00492212
0.00492333
0.00492456
0.0049258
0.00492707
0.00492838
0.00492974
0.00493115
0.00493262
0.00493417
0.0049358
0.00493753
0.00493936
0.00494129
0.00494333
0.00494548
0.00494775
0.00495013
0.00495261
0.0049552
0.00495787
0.00496064
0.00496347
0.00496636
0.00496929
0.00497224
0.00497521
0.00497816
0.00498108
0.00498395
0.00498674
0.00498944
0.00499203
0.00499448
0.00499678
0.0049989
0.00500083
0.00500255
0.00500404
0.00500528
0.00500627
0.00500698
0.0050074
0.00500753
0.00500735
0.00500686
0.00500604
0.0050049
0.00500344
0.00500164
0.00499951
0.00499706
0.00499429
0.00499119
0.00498782
0.00498388
0.00212976
0.00251869
0.00352583
0.00427893
0.00478634
0.00512981
0.00536872
0.00554022
0.00566706
0.00576335
0.00583815
0.00589739
0.00594512
0.00598413
0.00601645
0.00604352
0.00606643
0.00608601
0.00610287
0.00611753
0.00613035
0.00614164
0.00615166
0.00616061
0.00616864
0.00617589
0.00618248
0.00618849
0.00619402
0.00619911
0.00620384
0.00620825
0.00621238
0.00621626
0.00621993
0.00622341
0.00622673
0.0062299
0.00623294
0.00623588
0.00623872
0.00624147
0.00624415
0.00624676
0.00624931
0.00625182
0.00625428
0.0062567
0.00625909
0.00626145
0.00626379
0.0062661
0.0062684
0.00627069
0.00627296
0.00627521
0.00627746
0.00627969
0.0062819
0.00628411
0.00628629
0.00628846
0.00629061
0.00629274
0.00629485
0.00629695
0.00629904
0.00630113
0.00630321
0.00630529
0.0063074
0.00630954
0.00631172
0.00631396
0.00631627
0.00631867
0.00632116
0.00632377
0.0063265
0.00632937
0.00633237
0.00633552
0.0063388
0.00634223
0.00634581
0.00634951
0.00635333
0.00635727
0.0063613
0.0063654
0.00636956
0.00637375
0.00637795
0.00638214
0.00638628
0.00639036
0.00639433
0.00639818
0.00640188
0.00640539
0.00640868
0.00641174
0.00641454
0.00641704
0.00641923
0.00642108
0.00642258
0.00642369
0.00642441
0.00642471
0.00642459
0.00642403
0.00642303
0.00642156
0.00641965
0.00641726
0.00641441
0.0064111
0.00640734
0.00640312
0.00639851
0.0063931
0.0031541
0.00268382
0.00372393
0.00468584
0.00539542
0.00590413
0.0062731
0.00654666
0.00675434
0.00691556
0.00704326
0.00714624
0.00723059
0.00730064
0.00735953
0.00740959
0.00745254
0.00748974
0.00752221
0.00755076
0.00757604
0.00759856
0.00761874
0.00763694
0.00765342
0.00766842
0.00768215
0.00769477
0.00770641
0.0077172
0.00772723
0.0077366
0.00774538
0.00775365
0.00776144
0.00776882
0.00777583
0.0077825
0.00778888
0.00779498
0.00780085
0.00780649
0.00781194
0.0078172
0.00782231
0.00782727
0.00783209
0.0078368
0.00784139
0.00784588
0.00785029
0.00785461
0.00785886
0.00786303
0.00786714
0.00787119
0.00787518
0.00787911
0.00788299
0.00788681
0.00789058
0.00789429
0.00789794
0.00790154
0.00790509
0.00790859
0.00791205
0.00791547
0.00791887
0.00792225
0.00792562
0.00792901
0.00793243
0.00793591
0.00793946
0.00794309
0.00794684
0.00795071
0.00795473
0.0079589
0.00796324
0.00796775
0.00797243
0.0079773
0.00798234
0.00798754
0.0079929
0.0079984
0.00800402
0.00800974
0.00801554
0.00802137
0.00802723
0.00803306
0.00803884
0.00804453
0.00805009
0.00805549
0.00806069
0.00806565
0.00807033
0.0080747
0.00807872
0.00808235
0.00808557
0.00808834
0.00809063
0.00809241
0.00809366
0.00809436
0.00809448
0.00809401
0.00809294
0.00809124
0.00808893
0.00808598
0.00808239
0.00807817
0.00807334
0.00806786
0.00806184
0.00805473
0.00493181
0.00302612
0.0038337
0.00494834
0.00587406
0.00658116
0.00711649
0.00752622
0.00784508
0.00809766
0.00830115
0.00846767
0.00860586
0.00872199
0.00882068
0.0089054
0.00897879
0.0090429
0.00909931
0.00914929
0.00919386
0.00923384
0.00926988
0.00930254
0.00933229
0.00935949
0.00938448
0.00940751
0.00942883
0.00944864
0.00946709
0.00948435
0.00950053
0.00951576
0.00953012
0.0095437
0.00955658
0.00956883
0.0095805
0.00959164
0.00960231
0.00961255
0.00962238
0.00963186
0.009641
0.00964984
0.00965839
0.00966669
0.00967475
0.00968259
0.00969023
0.00969768
0.00970496
0.00971208
0.00971904
0.00972586
0.00973255
0.00973911
0.00974554
0.00975184
0.00975803
0.0097641
0.00977005
0.00977589
0.00978162
0.00978725
0.00979279
0.00979824
0.00980361
0.00980893
0.00981421
0.00981947
0.00982473
0.00983003
0.00983538
0.00984082
0.00984637
0.00985205
0.00985788
0.00986389
0.00987008
0.00987648
0.00988309
0.0098899
0.00989693
0.00990416
0.00991158
0.00991917
0.00992692
0.00993479
0.00994275
0.00995077
0.00995882
0.00996684
0.0099748
0.00998264
0.00999034
0.00999782
0.0100051
0.010012
0.0100186
0.0100247
0.0100305
0.0100357
0.0100404
0.0100445
0.010048
0.0100508
0.010053
0.0100544
0.010055
0.0100549
0.010054
0.0100522
0.0100496
0.0100462
0.010042
0.0100368
0.0100309
0.0100241
0.0100165
0.0100075
0.00765447
0.00384129
0.0039599
0.0050637
0.00617752
0.00710148
0.0078361
0.00841791
0.00888249
0.00925803
0.00956562
0.00982082
0.0100351
0.0102171
0.0103732
0.0105082
0.0106262
0.0107298
0.0108217
0.0109035
0.0109768
0.0110429
0.0111028
0.0111573
0.011207
0.0112527
0.0112948
0.0113337
0.0113697
0.0114033
0.0114346
0.0114639
0.0114914
0.0115173
0.0115417
0.0115648
0.0115867
0.0116075
0.0116273
0.0116462
0.0116642
0.0116815
0.0116981
0.011714
0.0117293
0.0117441
0.0117583
0.0117721
0.0117854
0.0117984
0.0118109
0.0118231
0.011835
0.0118466
0.0118579
0.0118689
0.0118796
0.0118901
0.0119004
0.0119104
0.0119203
0.0119299
0.0119392
0.0119484
0.0119574
0.0119662
0.0119749
0.0119833
0.0119916
0.0119998
0.0120079
0.0120159
0.0120239
0.0120319
0.0120398
0.0120479
0.012056
0.0120643
0.0120727
0.0120813
0.01209
0.0120991
0.0121083
0.0121178
0.0121275
0.0121375
0.0121477
0.0121581
0.0121686
0.0121794
0.0121902
0.0122011
0.0122121
0.012223
0.0122338
0.0122445
0.0122551
0.0122653
0.0122753
0.0122849
0.012294
0.0123027
0.0123108
0.0123182
0.012325
0.012331
0.0123363
0.0123407
0.0123442
0.0123468
0.0123484
0.012349
0.0123486
0.0123471
0.0123445
0.0123408
0.012336
0.0123301
0.0123231
0.0123149
0.0123057
0.0122946
0.0113266
0.00551803
0.00435849
0.00510578
0.00628855
0.00740978
0.00836168
0.0091471
0.00979278
0.0103264
0.0107711
0.0111453
0.0114634
0.0117362
0.0119723
0.0121782
0.0123592
0.0125193
0.0126619
0.0127896
0.0129046
0.0130086
0.0131032
0.0131896
0.0132687
0.0133415
0.0134088
0.0134711
0.0135289
0.0135829
0.0136332
0.0136805
0.0137248
0.0137666
0.013806
0.0138433
0.0138786
0.0139122
0.0139441
0.0139745
0.0140036
0.0140313
0.014058
0.0140835
0.014108
0.0141316
0.0141544
0.0141763
0.0141976
0.0142181
0.014238
0.0142572
0.014276
0.0142941
0.0143118
0.014329
0.0143458
0.0143621
0.0143781
0.0143936
0.0144088
0.0144236
0.014438
0.0144521
0.0144659
0.0144794
0.0144925
0.0145054
0.0145181
0.0145305
0.0145427
0.0145547
0.0145666
0.0145784
0.0145902
0.014602
0.0146138
0.0146257
0.0146377
0.0146499
0.0146624
0.014675
0.0146879
0.014701
0.0147144
0.014728
0.014742
0.0147561
0.0147705
0.014785
0.0147997
0.0148144
0.0148292
0.0148439
0.0148586
0.0148731
0.0148874
0.0149014
0.014915
0.0149281
0.0149407
0.0149527
0.014964
0.0149745
0.0149842
0.014993
0.0150008
0.0150075
0.0150131
0.0150175
0.0150207
0.0150226
0.0150232
0.0150224
0.0150202
0.0150166
0.0150116
0.0150051
0.0149972
0.0149877
0.014977
0.0149637
0.0157248
0.0083437
0.00547916
0.00531275
0.00627167
0.00748282
0.00862975
0.00963244
0.0104877
0.0112134
0.0118305
0.0123582
0.0128125
0.0132064
0.0135503
0.0138528
0.0141205
0.0143588
0.0145721
0.0147641
0.0149377
0.0150955
0.0152394
0.0153712
0.0154923
0.0156041
0.0157075
0.0158035
0.0158929
0.0159763
0.0160543
0.0161275
0.0161964
0.0162612
0.0163225
0.0163804
0.0164354
0.0164875
0.0165372
0.0165845
0.0166296
0.0166728
0.0167141
0.0167537
0.0167918
0.0168283
0.0168635
0.0168974
0.0169301
0.0169618
0.0169923
0.0170219
0.0170506
0.0170785
0.0171055
0.0171317
0.0171573
0.0171821
0.0172063
0.0172298
0.0172528
0.0172751
0.0172969
0.0173182
0.0173389
0.0173591
0.0173788
0.0173981
0.017417
0.0174355
0.0174536
0.0174715
0.017489
0.0175064
0.0175236
0.0175407
0.0175578
0.0175749
0.0175921
0.0176094
0.0176268
0.0176445
0.0176624
0.0176805
0.0176989
0.0177176
0.0177365
0.0177557
0.0177751
0.0177947
0.0178144
0.0178343
0.0178541
0.017874
0.0178937
0.0179132
0.0179325
0.0179514
0.0179698
0.0179877
0.0180049
0.0180214
0.018037
0.0180517
0.0180654
0.0180779
0.0180893
0.0180993
0.0181079
0.0181151
0.0181207
0.0181247
0.0181271
0.0181277
0.0181266
0.0181237
0.018119
0.0181124
0.0181039
0.0180936
0.0180815
0.0180662
0.0204365
0.0122987
0.00781877
0.0061763
0.00638132
0.00739745
0.00862145
0.00980678
0.0108762
0.0118169
0.0126375
0.0133529
0.0139782
0.0145273
0.0150118
0.0154416
0.0158248
0.0161683
0.0164775
0.0167573
0.0170115
0.0172433
0.0174556
0.0176506
0.0178304
0.0179968
0.018151
0.0182945
0.0184284
0.0185535
0.0186708
0.018781
0.0188847
0.0189825
0.0190749
0.0191624
0.0192455
0.0193243
0.0193994
0.0194709
0.0195391
0.0196044
0.0196669
0.0197267
0.0197842
0.0198394
0.0198925
0.0199436
0.0199929
0.0200405
0.0200865
0.0201309
0.020174
0.0202157
0.0202561
0.0202954
0.0203335
0.0203705
0.0204066
0.0204416
0.0204757
0.0205089
0.0205412
0.0205727
0.0206034
0.0206333
0.0206625
0.020691
0.0207188
0.020746
0.0207727
0.0207988
0.0208245
0.0208497
0.0208747
0.0208994
0.020924
0.0209484
0.0209728
0.0209972
0.0210217
0.0210463
0.0210711
0.0210961
0.0211213
0.0211468
0.0211725
0.0211985
0.0212247
0.021251
0.0212775
0.0213041
0.0213307
0.0213573
0.0213837
0.0214098
0.0214356
0.021461
0.0214859
0.02151
0.0215334
0.0215559
0.0215774
0.0215978
0.0216169
0.0216346
0.0216509
0.0216655
0.0216785
0.0216897
0.021699
0.0217063
0.0217115
0.0217146
0.0217156
0.0217142
0.0217106
0.0217047
0.0216964
0.0216856
0.0216727
0.0216557
0.024966
0.017029
0.011559
0.0083344
0.00718515
0.00746836
0.008455
0.00967289
0.0108973
0.0120408
0.0130773
0.0140053
0.014833
0.0155712
0.0162309
0.0168222
0.0173542
0.0178345
0.01827
0.0186661
0.0190279
0.0193593
0.0196641
0.0199451
0.020205
0.0204461
0.0206704
0.0208795
0.0210749
0.021258
0.0214298
0.0215915
0.0217439
0.0218879
0.022024
0.0221531
0.0222755
0.022392
0.0225029
0.0226086
0.0227095
0.022806
0.0228984
0.0229869
0.0230718
0.0231535
0.023232
0.0233075
0.0233804
0.0234506
0.0235185
0.023584
0.0236475
0.0237089
0.0237684
0.0238261
0.0238821
0.0239365
0.0239894
0.0240407
0.0240907
0.0241393
0.0241866
0.0242326
0.0242774
0.0243211
0.0243637
0.0244052
0.0244457
0.0244853
0.024524
0.0245619
0.0245991
0.0246356
0.0246715
0.0247069
0.024742
0.0247767
0.0248112
0.0248455
0.0248798
0.0249141
0.0249484
0.0249829
0.0250174
0.0250522
0.0250871
0.0251223
0.0251576
0.025193
0.0252285
0.0252641
0.0252996
0.0253351
0.0253703
0.0254052
0.0254397
0.0254737
0.025507
0.0255395
0.0255711
0.0256016
0.0256309
0.0256589
0.0256854
0.0257102
0.0257333
0.0257544
0.0257735
0.0257904
0.025805
0.0258172
0.0258269
0.025834
0.0258383
0.0258399
0.0258387
0.0258345
0.0258274
0.0258173
0.0258044
0.0257865
0.0288721
0.0219727
0.0163572
0.0121026
0.00944208
0.00839318
0.00856599
0.00943681
0.0106072
0.0118514
0.0130626
0.0141965
0.0152393
0.0161903
0.0170549
0.0178406
0.0185555
0.0192071
0.0198026
0.0203481
0.0208492
0.0213109
0.0217373
0.0221321
0.0224988
0.02284
0.0231583
0.0234559
0.0237348
0.0239966
0.024243
0.0244751
0.0246943
0.0249016
0.025098
0.0252843
0.0254614
0.0256298
0.0257904
0.0259436
0.0260899
0.0262299
0.026364
0.0264925
0.0266159
0.0267344
0.0268484
0.0269582
0.0270639
0.027166
0.0272645
0.0273596
0.0274517
0.0275408
0.0276271
0.0277107
0.0277918
0.0278706
0.027947
0.0280213
0.0280935
0.0281637
0.0282321
0.0282985
0.0283633
0.0284263
0.0284877
0.0285476
0.028606
0.028663
0.0287187
0.0287731
0.0288264
0.0288786
0.0289299
0.0289804
0.0290301
0.0290793
0.0291279
0.0291761
0.0292239
0.0292716
0.0293191
0.0293665
0.0294139
0.0294613
0.0295087
0.0295563
0.0296038
0.0296515
0.0296991
0.0297466
0.0297941
0.0298413
0.0298883
0.0299348
0.0299808
0.0300262
0.0300707
0.0301143
0.0301568
0.030198
0.0302378
0.0302759
0.0303123
0.0303468
0.0303791
0.0304091
0.0304367
0.0304617
0.0304839
0.0305032
0.0305195
0.0305326
0.0305424
0.0305488
0.0305517
0.0305511
0.0305468
0.0305388
0.0305273
0.0305097
0.0318859
0.0265354
0.0215162
0.0170871
0.0134893
0.0110289
0.00983786
0.0097379
0.0103766
0.011418
0.0126294
0.0138773
0.0150935
0.0162465
0.0173241
0.0183239
0.0192482
0.0201018
0.0208901
0.0216189
0.0222936
0.0229193
0.0235006
0.0240417
0.0245463
0.025018
0.0254596
0.0258739
0.0262632
0.0266297
0.0269754
0.0273019
0.0276108
0.0279035
0.0281812
0.0284451
0.0286963
0.0289356
0.0291638
0.0293818
0.0295903
0.0297899
0.0299812
0.0301647
0.0303409
0.0305103
0.0306732
0.0308302
0.0309815
0.0311274
0.0312683
0.0314045
0.0315362
0.0316636
0.031787
0.0319066
0.0320226
0.0321352
0.0322444
0.0323506
0.0324537
0.032554
0.0326516
0.0327465
0.0328389
0.0329289
0.0330165
0.0331019
0.0331852
0.0332665
0.0333458
0.0334234
0.0334991
0.0335733
0.0336461
0.0337175
0.0337877
0.0338568
0.033925
0.0339924
0.0340591
0.0341251
0.0341908
0.034256
0.0343209
0.0343856
0.0344501
0.0345144
0.0345786
0.0346427
0.0347065
0.0347702
0.0348335
0.0348965
0.0349591
0.0350211
0.0350823
0.0351428
0.0352022
0.0352605
0.0353174
0.0353729
0.0354266
0.0354784
0.0355281
0.0355755
0.0356204
0.0356626
0.0357018
0.035738
0.0357709
0.0358003
0.035826
0.035848
0.035866
0.0358799
0.0358895
0.0358948
0.0358958
0.0358921
0.0358841
0.0358688
0.0339568
0.0302574
0.0262964
0.0224018
0.0187493
0.0155657
0.0131348
0.01166
0.0111401
0.0113925
0.0121663
0.0132379
0.014448
0.0156984
0.0169334
0.0181236
0.0192548
0.0203216
0.0213231
0.0222613
0.0231394
0.0239613
0.0247308
0.0254521
0.0261288
0.0267645
0.0273626
0.027926
0.0284574
0.0289594
0.0294343
0.0298842
0.0303109
0.0307161
0.0311015
0.0314683
0.0318181
0.0321519
0.0324707
0.0327757
0.0330677
0.0333476
0.033616
0.0338738
0.0341216
0.0343599
0.0345894
0.0348105
0.0350237
0.0352295
0.0354283
0.0356205
0.0358064
0.0359863
0.0361605
0.0363294
0.0364932
0.0366522
0.0368065
0.0369564
0.0371021
0.0372438
0.0373816
0.0375157
0.0376462
0.0377733
0.0378971
0.0380178
0.0381354
0.0382502
0.0383622
0.0384716
0.0385785
0.038683
0.0387854
0.0388857
0.0389842
0.0390809
0.0391761
0.03927
0.0393625
0.039454
0.0395444
0.0396341
0.0397229
0.0398112
0.0398988
0.039986
0.0400727
0.0401589
0.0402446
0.0403298
0.0404145
0.0404986
0.0405819
0.0406645
0.0407461
0.0408265
0.0409058
0.0409836
0.0410597
0.041134
0.0412063
0.0412763
0.0413439
0.0414086
0.0414705
0.0415291
0.0415843
0.0416358
0.0416834
0.0417269
0.0417661
0.0418007
0.0418306
0.0418556
0.0418755
0.0418902
0.0418995
0.0419033
0.0419018
0.0418916
0.0352156
0.0329264
0.0301548
0.0271692
0.0241079
0.0210828
0.0182539
0.0158401
0.0140585
0.0130304
0.012737
0.0130508
0.0138009
0.0148263
0.0160022
0.0172434
0.018496
0.0197278
0.0209204
0.0220639
0.0231539
0.024189
0.0251702
0.026099
0.026978
0.0278099
0.0285976
0.0293438
0.0300513
0.0307226
0.0313602
0.0319664
0.0325433
0.0330929
0.0336169
0.0341171
0.034595
0.035052
0.0354895
0.0359086
0.0363106
0.0366965
0.0370671
0.0374235
0.0377664
0.0380967
0.0384149
0.0387219
0.0390182
0.0393043
0.0395809
0.0398484
0.0401073
0.040358
0.0406009
0.0408365
0.041065
0.0412868
0.0415023
0.0417116
0.0419151
0.042113
0.0423055
0.0424929
0.0426753
0.042853
0.0430261
0.0431949
0.0433594
0.04352
0.0436766
0.0438296
0.0439791
0.0441252
0.0442681
0.0444081
0.0445452
0.0446799
0.0448121
0.0449421
0.04507
0.0451962
0.0453206
0.0454435
0.045565
0.0456853
0.0458044
0.0459225
0.0460395
0.0461556
0.0462708
0.046385
0.0464983
0.0466106
0.0467217
0.0468317
0.0469403
0.0470475
0.047153
0.0472567
0.0473584
0.0474578
0.0475548
0.047649
0.0477403
0.0478283
0.0479129
0.0479936
0.0480703
0.0481427
0.0482105
0.0482733
0.0483311
0.0483835
0.0484303
0.0484712
0.0485061
0.0485347
0.0485569
0.0485725
0.0485817
0.0485806
0.0358864
0.034593
0.0328633
0.0308401
0.0286213
0.0262674
0.0238358
0.0214144
0.0191386
0.0171788
0.0156958
0.0147878
0.0144645
0.0146594
0.0152639
0.0161609
0.0172464
0.01844
0.0196844
0.0209414
0.0221859
0.0234025
0.0245816
0.025718
0.0268092
0.0278544
0.0288542
0.0298096
0.0307222
0.0315939
0.0324266
0.0332223
0.0339831
0.0347108
0.0354074
0.0360745
0.0367138
0.037327
0.0379155
0.0384807
0.0390239
0.0395464
0.0400492
0.0405336
0.0410004
0.0414505
0.041885
0.0423046
0.04271
0.043102
0.0434813
0.0438485
0.0442041
0.0445488
0.044883
0.0452073
0.0455221
0.0458279
0.046125
0.0464138
0.0466947
0.046968
0.047234
0.047493
0.0477452
0.047991
0.0482306
0.0484642
0.0486921
0.0489144
0.0491314
0.0493434
0.0495504
0.0497529
0.0499508
0.0501445
0.0503342
0.0505202
0.0507026
0.0508817
0.0510577
0.0512309
0.0514014
0.0515694
0.0517352
0.0518988
0.0520604
0.0522202
0.0523782
0.0525346
0.0526893
0.0528425
0.052994
0.053144
0.0532923
0.0534388
0.0535834
0.053726
0.0538665
0.0540046
0.0541402
0.0542729
0.0544026
0.0545291
0.0546519
0.0547709
0.0548857
0.054996
0.0551016
0.055202
0.055297
0.0553863
0.0554695
0.0555463
0.0556165
0.0556798
0.0557359
0.0557846
0.0558257
0.0558589
0.0558844
0.055898
0.0361963
0.0354884
0.0345011
0.0332718
0.0318469
0.0302605
0.0285351
0.0266917
0.024764
0.0228124
0.0209309
0.0192398
0.0178631
0.0168966
0.0163857
0.0163216
0.0166534
0.0173069
0.0182017
0.0192644
0.020434
0.0216643
0.0229216
0.0241827
0.0254314
0.0266568
0.0278519
0.0290123
0.0301354
0.0312203
0.0322666
0.0332747
0.0342455
0.03518
0.0360795
0.0369452
0.0377788
0.0385814
0.0393547
0.0400998
0.0408182
0.0415111
0.0421797
0.0428252
0.0434487
0.0440513
0.044634
0.0451977
0.0457433
0.0462716
0.0467836
0.0472798
0.047761
0.048228
0.0486813
0.0491215
0.0495492
0.0499651
0.0503694
0.0507628
0.0511457
0.0515185
0.0518816
0.0522354
0.0525802
0.0529163
0.0532442
0.053564
0.0538761
0.0541808
0.0544783
0.0547689
0.055053
0.0553307
0.0556023
0.0558681
0.0561284
0.0563832
0.056633
0.0568781
0.0571187
0.0573551
0.0575875
0.0578162
0.0580414
0.0582632
0.0584819
0.0586977
0.0589107
0.059121
0.0593287
0.0595338
0.0597365
0.0599367
0.0601344
0.0603295
0.060522
0.0607117
0.0608985
0.0610822
0.0612626
0.0614394
0.0616125
0.0617815
0.0619461
0.0621061
0.0622611
0.0624107
0.0625546
0.0626924
0.0628239
0.0629485
0.063066
0.0631761
0.0632783
0.0633723
0.0634579
0.0635346
0.0636024
0.0636608
0.0637102
0.0637458
0.0363185
0.0358964
0.035342
0.0346443
0.0338099
0.0328502
0.0317745
0.0305881
0.0292942
0.0278982
0.0264145
0.0248739
0.0233287
0.0218531
0.0205352
0.0194615
0.0187
0.018288
0.0182293
0.0184992
0.0190539
0.0198402
0.0208041
0.0218958
0.0230737
0.0243048
0.0255638
0.0268322
0.0280965
0.0293469
0.0305766
0.0317807
0.0329559
0.0341003
0.0352127
0.0362927
0.0373403
0.0383559
0.03934
0.0402934
0.041217
0.0421116
0.0429783
0.043818
0.0446317
0.0454205
0.0461854
0.0469272
0.0476469
0.0483454
0.0490236
0.0496822
0.050322
0.0509439
0.0515485
0.0521366
0.0527088
0.0532657
0.0538079
0.0543361
0.0548506
0.0553521
0.0558411
0.0563179
0.056783
0.0572369
0.0576799
0.0581124
0.0585348
0.0589474
0.0593506
0.0597448
0.0601301
0.060507
0.0608758
0.0612367
0.0615902
0.0619364
0.0622757
0.0626083
0.0629346
0.0632549
0.0635696
0.0638789
0.0641831
0.0644824
0.064777
0.0650673
0.0653533
0.0656353
0.0659133
0.0661875
0.066458
0.0667249
0.066988
0.0672475
0.0675032
0.067755
0.0680029
0.0682467
0.0684862
0.0687211
0.0689512
0.0691762
0.0693958
0.0696097
0.0698176
0.070019
0.0702135
0.0704009
0.0705806
0.0707522
0.0709155
0.0710698
0.071215
0.0713505
0.0714761
0.0715913
0.0716959
0.0717895
0.0718723
0.0719397
0.0363591
0.0360515
0.0357024
0.0352937
0.0348163
0.0342669
0.0336458
0.0329534
0.032189
0.0313505
0.0304344
0.0294384
0.0283636
0.0272185
0.0260225
0.0248094
0.0236274
0.0225355
0.0215963
0.0208663
0.020387
0.0201807
0.0202495
0.0205783
0.0211397
0.021899
0.0228189
0.0238634
0.0249997
0.0262001
0.0274421
0.0287078
0.0299836
0.0312592
0.0325266
0.0337799
0.0350148
0.0362278
0.0374167
0.0385799
0.0397164
0.0408256
0.0419076
0.0429622
0.0439899
0.044991
0.0459661
0.0469156
0.0478403
0.0487407
0.0496176
0.0504717
0.0513037
0.0521144
0.0529044
0.0536744
0.0544252
0.0551573
0.0558713
0.056568
0.0572478
0.0579113
0.0585591
0.0591917
0.0598096
0.0604132
0.0610031
0.0615797
0.0621433
0.0626945
0.0632336
0.0637611
0.0642772
0.0647823
0.0652769
0.0657613
0.0662358
0.0667008
0.0671566
0.0676036
0.068042
0.0684721
0.0688945
0.0693094
0.0697172
0.0701181
0.0705125
0.0709006
0.0712826
0.0716587
0.0720292
0.0723942
0.0727538
0.0731081
0.0734571
0.0738009
0.0741395
0.0744728
0.0748007
0.0751231
0.0754398
0.0757505
0.0760551
0.0763533
0.0766447
0.0769291
0.0772059
0.0774749
0.0777357
0.0779878
0.0782307
0.0784641
0.0786874
0.0789003
0.0791023
0.079293
0.0794719
0.0796387
0.079793
0.0799344
0.0800632
0.0801748
0.0363702
0.0360998
0.0358287
0.035546
0.0352425
0.0349115
0.0345487