/*--------------------------------*- C++ -*----------------------------------*\
  =========                 |
  \\      /  F ield         | OpenFOAM: The Open Source CFD Toolbox
   \\    /   O peration     | Website:  https://openfoam.org
    \\  /    A nd           | Version:  8
     \\/     M anipulation  |
\*---------------------------------------------------------------------------*/
FoamFile
{
    version     2.0;
    format      ascii;
    class       volScalarField;
    location    "850";
    object      p;
}
// * * * * * * * * * * * * * * * * * * * * * * * * * * * * * * * * * * * * * //

dimensions      [0 2 -2 0 0 0 0];

internalField   nonuniform List<scalar> 
7320
(
159.691
153.835
151.925
150.14
148.431
146.735
145.071
143.447
141.855
140.289
138.745
137.222
135.716
134.227
132.753
131.293
129.846
128.41
126.986
125.571
124.167
122.772
121.385
120.006
118.635
117.272
115.915
114.566
113.222
111.885
110.554
109.228
107.908
106.592
105.282
103.977
102.677
101.38
100.089
98.8013
97.5179
96.2384
94.9628
93.6909
92.4226
91.1578
89.8964
88.6383
87.3834
86.1317
84.883
83.6373
82.3945
81.1545
79.9173
78.6827
77.4508
76.2214
74.9945
73.77
72.548
71.3283
70.1108
68.8956
67.6826
66.4717
65.2629
64.0562
62.8514
61.6487
60.4478
59.2488
58.0516
56.8562
55.6625
54.4704
53.2801
52.0913
50.904
49.7182
48.5338
47.3509
46.1692
44.9889
43.8097
42.6318
41.455
40.2792
39.1045
37.9307
36.7579
35.5859
34.4147
33.2443
32.0746
30.9056
29.7371
28.5692
27.4019
26.235
25.0684
23.9023
22.7364
21.5708
20.4053
19.24
18.0749
16.9098
15.7448
14.5797
13.4146
12.2495
11.0842
9.91883
8.75322
7.58769
6.4219
5.25604
4.08974
2.92402
1.75652
0.603627
158.893
153.822
151.925
150.14
148.431
146.736
145.072
143.447
141.856
140.289
138.745
137.222
135.716
134.227
132.753
131.293
129.846
128.41
126.986
125.571
124.167
122.772
121.385
120.006
118.635
117.272
115.915
114.566
113.222
111.885
110.554
109.228
107.908
106.592
105.282
103.977
102.677
101.38
100.089
98.8013
97.5179
96.2384
94.9628
93.6909
92.4226
91.1578
89.8964
88.6383
87.3835
86.1317
84.883
83.6373
82.3945
81.1545
79.9173
78.6827
77.4508
76.2214
74.9945
73.77
72.548
71.3283
70.1108
68.8956
67.6826
66.4717
65.2629
64.0562
62.8514
61.6487
60.4478
59.2488
58.0516
56.8562
55.6625
54.4704
53.2801
52.0913
50.904
49.7182
48.5338
47.3509
46.1692
44.9889
43.8097
42.6318
41.455
40.2792
39.1045
37.9307
36.7579
35.5859
34.4147
33.2443
32.0746
30.9056
29.7371
28.5692
27.4019
26.235
25.0684
23.9023
22.7364
21.5708
20.4053
19.24
18.0749
16.9098
15.7447
14.5797
13.4146
12.2494
11.0842
9.91883
8.75322
7.58768
6.4219
5.25604
4.08974
2.92402
1.75651
0.603625
158.688
153.827
151.926
150.141
148.432
146.736
145.072
143.448
141.856
140.289
138.745
137.222
135.716
134.227
132.753
131.293
129.846
128.41
126.986
125.572
124.167
122.772
121.385
120.006
118.635
117.272
115.915
114.566
113.222
111.885
110.554
109.228
107.908
106.593
105.282
103.977
102.677
101.381
100.089
98.8013
97.5179
96.2384
94.9628
93.6909
92.4226
91.1578
89.8964
88.6383
87.3835
86.1317
84.883
83.6373
82.3945
81.1545
79.9173
78.6827
77.4508
76.2214
74.9945
73.77
72.548
71.3283
70.1108
68.8956
67.6826
66.4717
65.2629
64.0562
62.8514
61.6487
60.4478
59.2488
58.0516
56.8562
55.6625
54.4704
53.2801
52.0913
50.904
49.7182
48.5338
47.3509
46.1692
44.9889
43.8097
42.6318
41.455
40.2792
39.1045
37.9307
36.7579
35.5859
34.4147
33.2443
32.0746
30.9056
29.7371
28.5692
27.4019
26.235
25.0684
23.9022
22.7364
21.5708
20.4053
19.24
18.0749
16.9098
15.7447
14.5797
13.4146
12.2494
11.0842
9.91882
8.75321
7.58768
6.42189
5.25604
4.08973
2.92401
1.75651
0.603621
158.674
153.834
151.928
150.142
148.432
146.737
145.072
143.448
141.856
140.29
138.746
137.222
135.716
134.227
132.754
131.293
129.846
128.41
126.986
125.572
124.167
122.772
121.385
120.006
118.636
117.272
115.916
114.566
113.222
111.885
110.554
109.228
107.908
106.593
105.282
103.977
102.677
101.381
100.089
98.8013
97.5179
96.2384
94.9628
93.6909
92.4226
91.1578
89.8964
88.6383
87.3835
86.1317
84.8831
83.6373
82.3945
81.1545
79.9173
78.6827
77.4508
76.2214
74.9945
73.77
72.548
71.3283
70.1108
68.8956
67.6826
66.4717
65.2629
64.0562
62.8514
61.6487
60.4478
59.2488
58.0516
56.8562
55.6625
54.4704
53.2801
52.0912
50.904
49.7182
48.5338
47.3509
46.1692
44.9889
43.8097
42.6318
41.455
40.2792
39.1045
37.9307
36.7579
35.5859
34.4147
33.2443
32.0746
30.9056
29.7371
28.5692
27.4019
26.235
25.0684
23.9022
22.7364
21.5707
20.4053
19.24
18.0749
16.9098
15.7447
14.5797
13.4146
12.2494
11.0842
9.91881
8.7532
7.58767
6.42188
5.25603
4.08972
2.92401
1.7565
0.603616
158.647
153.839
151.93
150.143
148.433
146.737
145.073
143.448
141.856
140.29
138.746
137.222
135.717
134.228
132.754
131.293
129.846
128.41
126.986
125.572
124.167
122.772
121.385
120.006
118.636
117.272
115.916
114.566
113.222
111.885
110.554
109.228
107.908
106.593
105.282
103.977
102.677
101.381
100.089
98.8014
97.5179
96.2385
94.9628
93.6909
92.4226
91.1578
89.8964
88.6383
87.3835
86.1318
84.8831
83.6374
82.3945
81.1545
79.9173
78.6827
77.4508
76.2214
74.9945
73.7701
72.548
71.3283
70.1108
68.8956
67.6826
66.4717
65.2629
64.0562
62.8514
61.6487
60.4478
59.2488
58.0516
56.8562
55.6625
54.4704
53.28
52.0912
50.904
49.7182
48.5338
47.3509
46.1692
44.9889
43.8097
42.6318
41.4549
40.2792
39.1044
37.9307
36.7579
35.5859
34.4147
33.2443
32.0746
30.9056
29.7371
28.5692
27.4019
26.235
25.0684
23.9022
22.7364
21.5707
20.4053
19.24
18.0749
16.9098
15.7447
14.5797
13.4145
12.2494
11.0841
9.9188
8.75319
7.58766
6.42187
5.25602
4.08971
2.92399
1.75649
0.603608
158.605
153.843
151.932
150.145
148.434
146.738
145.073
143.449
141.857
140.29
138.746
137.222
135.717
134.228
132.754
131.294
129.846
128.411
126.986
125.572
124.167
122.772
121.385
120.007
118.636
117.272
115.916
114.566
113.222
111.885
110.554
109.228
107.908
106.593
105.283
103.977
102.677
101.381
100.089
98.8014
97.518
96.2385
94.9629
93.691
92.4226
91.1578
89.8965
88.6384
87.3835
86.1318
84.8831
83.6374
82.3945
81.1545
79.9173
78.6827
77.4508
76.2214
74.9945
73.7701
72.548
71.3283
70.1108
68.8956
67.6826
66.4717
65.2629
64.0562
62.8514
61.6487
60.4478
59.2488
58.0516
56.8562
55.6625
54.4704
53.28
52.0912
50.904
49.7182
48.5338
47.3509
46.1692
44.9888
43.8097
42.6318
41.4549
40.2792
39.1044
37.9307
36.7579
35.5859
34.4147
33.2443
32.0746
30.9055
29.7371
28.5692
27.4019
26.235
25.0684
23.9022
22.7364
21.5707
20.4053
19.24
18.0748
16.9098
15.7447
14.5797
13.4145
12.2494
11.0841
9.91879
8.75318
7.58764
6.42186
5.256
4.0897
2.92398
1.75647
0.603597
158.57
153.848
151.935
150.147
148.436
146.739
145.074
143.45
141.857
140.291
138.747
137.223
135.717
134.228
132.754
131.294
129.846
128.411
126.986
125.572
124.167
122.772
121.385
120.007
118.636
117.272
115.916
114.566
113.223
111.885
110.554
109.228
107.908
106.593
105.283
103.977
102.677
101.381
100.089
98.8014
97.518
96.2385
94.9629
93.691
92.4227
91.1579
89.8965
88.6384
87.3835
86.1318
84.8831
83.6374
82.3946
81.1546
79.9173
78.6827
77.4508
76.2214
74.9945
73.7701
72.548
71.3283
70.1108
68.8956
67.6826
66.4717
65.2629
64.0562
62.8514
61.6487
60.4478
59.2488
58.0516
56.8562
55.6625
54.4704
53.28
52.0912
50.904
49.7182
48.5338
47.3508
46.1692
44.9888
43.8097
42.6317
41.4549
40.2792
39.1044
37.9307
36.7578
35.5859
34.4147
33.2443
32.0746
30.9055
29.7371
28.5692
27.4019
26.2349
25.0684
23.9022
22.7363
21.5707
20.4053
19.24
18.0748
16.9098
15.7447
14.5796
13.4145
12.2494
11.0841
9.91877
8.75316
7.58763
6.42184
5.25598
4.08968
2.92396
1.75645
0.603583
158.542
153.853
151.938
150.149
148.437
146.74
145.075
143.45
141.858
140.291
138.747
137.223
135.718
134.229
132.754
131.294
129.847
128.411
126.986
125.572
124.168
122.772
121.385
120.007
118.636
117.272
115.916
114.566
113.223
111.885
110.554
109.228
107.908
106.593
105.283
103.977
102.677
101.381
100.089
98.8015
97.5181
96.2386
94.9629
93.691
92.4227
91.1579
89.8965
88.6384
87.3836
86.1318
84.8831
83.6374
82.3946
81.1546
79.9173
78.6828
77.4508
76.2214
74.9945
73.7701
72.548
71.3283
70.1108
68.8956
67.6826
66.4717
65.2629
64.0562
62.8514
61.6487
60.4478
59.2488
58.0516
56.8562
55.6624
54.4704
53.28
52.0912
50.904
49.7182
48.5338
47.3508
46.1692
44.9888
43.8097
42.6317
41.4549
40.2792
39.1044
37.9306
36.7578
35.5858
34.4147
33.2442
32.0746
30.9055
29.7371
28.5692
27.4018
26.2349
25.0684
23.9022
22.7363
21.5707
20.4052
19.24
18.0748
16.9097
15.7447
14.5796
13.4145
12.2494
11.0841
9.91875
8.75314
7.5876
6.42181
5.25596
4.08965
2.92394
1.75642
0.603566
158.52
153.859
151.94
150.151
148.439
146.742
145.076
143.451
141.859
140.292
138.748
137.224
135.718
134.229
132.755
131.295
129.847
128.411
126.987
125.572
124.168
122.772
121.386
120.007
118.636
117.273
115.916
114.566
113.223
111.886
110.554
109.228
107.908
106.593
105.283
103.977
102.677
101.381
100.089
98.8015
97.5181
96.2386
94.963
93.6911
92.4228
91.158
89.8966
88.6385
87.3836
86.1318
84.8832
83.6374
82.3946
81.1546
79.9174
78.6828
77.4508
76.2214
74.9945
73.7701
72.548
71.3283
70.1109
68.8956
67.6826
66.4717
65.2629
64.0562
62.8515
61.6487
60.4478
59.2488
58.0516
56.8562
55.6624
54.4704
53.28
52.0912
50.904
49.7182
48.5338
47.3508
46.1692
44.9888
43.8097
42.6317
41.4549
40.2791
39.1044
37.9306
36.7578
35.5858
34.4147
33.2442
32.0746
30.9055
29.7371
28.5692
27.4018
26.2349
25.0684
23.9022
22.7363
21.5707
20.4052
19.2399
18.0748
16.9097
15.7447
14.5796
13.4145
12.2494
11.0841
9.91872
8.75311
7.58758
6.42179
5.25593
4.08963
2.92391
1.75639
0.603543
158.5
153.866
151.943
150.154
148.441
146.743
145.078
143.453
141.86
140.293
138.749
137.224
135.719
134.229
132.755
131.295
129.847
128.412
126.987
125.573
124.168
122.773
121.386
120.007
118.636
117.273
115.916
114.566
113.223
111.886
110.554
109.228
107.908
106.593
105.283
103.978
102.677
101.381
100.089
98.8016
97.5182
96.2387
94.9631
93.6911
92.4228
91.158
89.8966
88.6385
87.3836
86.1319
84.8832
83.6375
82.3946
81.1546
79.9174
78.6828
77.4509
76.2215
74.9946
73.7701
72.5481
71.3283
70.1109
68.8957
67.6826
66.4718
65.263
64.0562
62.8515
61.6487
60.4478
59.2488
58.0516
56.8562
55.6624
54.4704
53.28
52.0912
50.9039
49.7182
48.5338
47.3508
46.1692
44.9888
43.8097
42.6317
41.4549
40.2791
39.1044
37.9306
36.7578
35.5858
34.4146
33.2442
32.0745
30.9055
29.737
28.5692
27.4018
26.2349
25.0683
23.9022
22.7363
21.5707
20.4052
19.2399
18.0748
16.9097
15.7446
14.5796
13.4144
12.2493
11.084
9.91869
8.75308
7.58755
6.42175
5.2559
4.08959
2.92388
1.75636
0.603514
158.48
153.874
151.945
150.156
148.444
146.745
145.08
143.454
141.861
140.294
138.749
137.225
135.719
134.23
132.756
131.296
129.848
128.412
126.988
125.573
124.169
122.773
121.386
120.007
118.637
117.273
115.916
114.567
113.223
111.886
110.554
109.229
107.908
106.593
105.283
103.978
102.677
101.381
100.089
98.8017
97.5183
96.2388
94.9632
93.6912
92.4229
91.1581
89.8967
88.6386
87.3837
86.132
84.8833
83.6375
82.3947
81.1547
79.9174
78.6828
77.4509
76.2215
74.9946
73.7701
72.5481
71.3283
70.1109
68.8957
67.6827
66.4718
65.263
64.0562
62.8515
61.6487
60.4478
59.2488
58.0516
56.8562
55.6624
54.4704
53.28
52.0912
50.9039
49.7181
48.5338
47.3508
46.1692
44.9888
43.8097
42.6317
41.4549
40.2791
39.1044
37.9306
36.7578
35.5858
34.4146
33.2442
32.0745
30.9055
29.737
28.5691
27.4018
26.2349
25.0683
23.9021
22.7363
21.5706
20.4052
19.2399
18.0747
16.9097
15.7446
14.5795
13.4144
12.2493
11.084
9.91866
8.75305
7.58751
6.42172
5.25586
4.08956
2.92384
1.75632
0.603478
158.457
153.884
151.947
150.158
148.446
146.748
145.082
143.456
141.863
140.295
138.751
137.226
135.72
134.231
132.757
131.296
129.849
128.413
126.988
125.574
124.169
122.773
121.387
120.008
118.637
117.273
115.917
114.567
113.223
111.886
110.555
109.229
107.908
106.593
105.283
103.978
102.677
101.381
100.089
98.8019
97.5184
96.2389
94.9633
93.6913
92.423
91.1582
89.8968
88.6387
87.3838
86.132
84.8833
83.6376
82.3948
81.1547
79.9175
78.6829
77.4509
76.2215
74.9946
73.7702
72.5481
71.3284
70.1109
68.8957
67.6827
66.4718
65.263
64.0562
62.8515
61.6487
60.4478
59.2488
58.0516
56.8562
55.6624
54.4704
53.28
52.0912
50.9039
49.7181
48.5338
47.3508
46.1692
44.9888
43.8097
42.6317
41.4549
40.2791
39.1044
37.9306
36.7578
35.5858
34.4146
33.2442
32.0745
30.9054
29.737
28.5691
27.4018
26.2348
25.0683
23.9021
22.7362
21.5706
20.4051
19.2399
18.0747
16.9096
15.7446
14.5795
13.4144
12.2492
11.084
9.91862
8.753
7.58747
6.42167
5.25582
4.08951
2.92379
1.75627
0.603431
158.43
153.894
151.948
150.16
148.448
146.75
145.084
143.458
141.864
140.297
138.752
137.228
135.721
134.232
132.758
131.297
129.849
128.413
126.989
125.574
124.17
122.774
121.387
120.008
118.637
117.274
115.917
114.567
113.224
111.886
110.555
109.229
107.909
106.594
105.283
103.978
102.677
101.381
100.09
98.802
97.5186
96.2391
94.9634
93.6915
92.4231
91.1583
89.8969
88.6388
87.3839
86.1321
84.8834
83.6377
82.3948
81.1548
79.9175
78.683
77.451
76.2216
74.9947
73.7702
72.5482
71.3284
70.111
68.8957
67.6827
66.4718
65.263
64.0563
62.8515
61.6487
60.4478
59.2488
58.0516
56.8562
55.6625
54.4704
53.28
52.0912
50.9039
49.7181
48.5338
47.3508
46.1692
44.9888
43.8097
42.6317
41.4549
40.2791
39.1044
37.9306
36.7578
35.5858
34.4146
33.2442
32.0745
30.9054
29.737
28.5691
27.4017
26.2348
25.0683
23.9021
22.7362
21.5706
20.4051
19.2398
18.0747
16.9096
15.7445
14.5795
13.4143
12.2492
11.0839
9.91857
8.75296
7.58742
6.42162
5.25576
4.08946
2.92374
1.75621
0.603371
158.4
153.906
151.95
150.162
148.45
146.752
145.086
143.46
141.866
140.298
138.753
137.229
135.723
134.233
132.759
131.298
129.85
128.414
126.989
125.575
124.17
122.775
121.388
120.009
118.638
117.274
115.918
114.568
113.224
111.887
110.555
109.229
107.909
106.594
105.284
103.978
102.678
101.382
100.09
98.8022
97.5188
96.2393
94.9636
93.6916
92.4233
91.1585
89.897
88.6389
87.384
86.1322
84.8835
83.6378
82.3949
81.1549
79.9176
78.6831
77.4511
76.2217
74.9948
73.7703
72.5482
71.3285
70.111
68.8958
67.6828
66.4719
65.2631
64.0563
62.8515
61.6487
60.4478
59.2488
58.0516
56.8562
55.6625
54.4704
53.28
52.0912
50.9039
49.7181
48.5338
47.3508
46.1692
44.9888
43.8096
42.6317
41.4549
40.2791
39.1043
37.9306
36.7577
35.5857
34.4146
33.2441
32.0745
30.9054
29.737
28.5691
27.4017
26.2348
25.0682
23.902
22.7362
21.5705
20.4051
19.2398
18.0746
16.9096
15.7445
14.5794
13.4143
12.2492
11.0839
9.91852
8.7529
7.58736
6.42156
5.2557
4.0894
2.92367
1.75614
0.603293
158.364
153.919
151.951
150.163
148.451
146.754
145.088
143.462
141.868
140.3
138.755
137.231
135.724
134.234
132.76
131.299
129.851
128.415
126.99
125.576
124.171
122.775
121.388
120.009
118.638
117.275
115.918
114.568
113.225
111.887
110.556
109.23
107.909
106.594
105.284
103.979
102.678
101.382
100.09
98.8025
97.519
96.2395
94.9638
93.6919
92.4235
91.1587
89.8972
88.6391
87.3842
86.1324
84.8837
83.6379
82.3951
81.155
79.9178
78.6832
77.4512
76.2218
74.9949
73.7704
72.5483
71.3286
70.1111
68.8959
67.6828
66.4719
65.2631
64.0563
62.8516
61.6488
60.4479
59.2489
58.0516
56.8562
55.6625
54.4705
53.2801
52.0912
50.904
49.7182
48.5338
47.3508
46.1692
44.9888
43.8096
42.6317
41.4549
40.2791
39.1043
37.9306
36.7577
35.5857
34.4146
33.2441
32.0744
30.9054
29.7369
28.569
27.4017
26.2348
25.0682
23.902
22.7361
21.5705
20.405
19.2397
18.0746
16.9095
15.7444
14.5794
13.4142
12.2491
11.0838
9.91846
8.75284
7.5873
6.4215
5.25564
4.08933
2.9236
1.75607
0.603191
158.323
153.936
151.952
150.164
148.452
146.755
145.089
143.463
141.87
140.302
138.757
137.232
135.726
134.236
132.761
131.301
129.853
128.416
126.991
125.577
124.172
122.776
121.389
120.01
118.639
117.275
115.919
114.569
113.225
111.888
110.556
109.23
107.91
106.595
105.284
103.979
102.678
101.382
100.09
98.8029
97.5194
96.2398
94.9641
93.6921
92.4238
91.1589
89.8975
88.6393
87.3844
86.1326
84.8839
83.6381
82.3953
81.1552
79.9179
78.6833
77.4513
76.2219
74.995
73.7705
72.5484
71.3287
70.1112
68.896
67.6829
66.472
65.2632
64.0564
62.8517
61.6488
60.4479
59.2489
58.0517
56.8563
55.6625
54.4705
53.2801
52.0913
50.904
49.7182
48.5338
47.3508
46.1692
44.9888
43.8097
42.6317
41.4549
40.2791
39.1043
37.9306
36.7577
35.5857
34.4145
33.2441
32.0744
30.9054
29.7369
28.569
27.4017
26.2347
25.0682
23.902
22.7361
21.5705
20.405
19.2397
18.0745
16.9095
15.7444
14.5793
13.4142
12.249
11.0838
9.9184
8.75278
7.58723
6.42142
5.25556
4.08926
2.92352
1.75599
0.603056
158.275
153.955
151.953
150.165
148.453
146.756
145.09
143.465
141.872
140.304
138.759
137.234
135.728
134.238
132.763
131.302
129.854
128.418
126.993
125.578
124.173
122.777
121.39
120.011
118.64
117.276
115.92
114.57
113.226
111.889
110.557
109.231
107.911
106.595
105.285
103.98
102.679
101.383
100.091
98.8033
97.5198
96.2402
94.9645
93.6925
92.4241
91.1592
89.8978
88.6396
87.3847
86.1329
84.8841
83.6384
82.3955
81.1554
79.9181
78.6835
77.4515
76.2221
74.9952
73.7707
72.5486
71.3288
70.1113
68.8961
67.683
66.4721
65.2633
64.0565
62.8518
61.6489
60.448
59.249
58.0518
56.8563
55.6626
54.4706
53.2802
52.0913
50.904
49.7182
48.5339
47.3509
46.1692
44.9888
43.8097
42.6317
41.4549
40.2791
39.1043
37.9306
36.7577
35.5857
34.4145
33.2441
32.0744
30.9054
29.7369
28.569
27.4016
26.2347
25.0682
23.902
22.7361
21.5704
20.405
19.2397
18.0745
16.9094
15.7443
14.5793
13.4141
12.249
11.0837
9.91833
8.75271
7.58716
6.42135
5.25548
4.08918
2.92343
1.7559
0.602876
158.22
153.977
151.954
150.166
148.454
146.757
145.091
143.466
141.873
140.305
138.761
137.236
135.729
134.24
132.765
131.304
129.856
128.419
126.994
125.579
124.174
122.779
121.391
120.012
118.641
117.277
115.921
114.571
113.227
111.889
110.558
109.232
107.911
106.596
105.286
103.98
102.68
101.383
100.091
98.8038
97.5203
96.2407
94.965
93.693
92.4245
91.1597
89.8982
88.64
87.385
86.1332
84.8845
83.6387
82.3958
81.1557
79.9184
78.6838
77.4518
76.2223
74.9954
73.7709
72.5488
71.329
70.1115
68.8963
67.6832
66.4723
65.2635
64.0567
62.8519
61.6491
60.4482
59.2491
58.0519
56.8564
55.6627
54.4707
53.2802
52.0914
50.9041
49.7183
48.5339
47.3509
46.1693
44.9889
43.8097
42.6317
41.4549
40.2791
39.1044
37.9306
36.7578
35.5857
34.4146
33.2441
32.0744
30.9054
29.7369
28.569
27.4016
26.2347
25.0681
23.9019
22.736
21.5704
20.4049
19.2396
18.0744
16.9094
15.7443
14.5792
13.4141
12.2489
11.0836
9.91827
8.75264
7.58708
6.42127
5.2554
4.08909
2.92334
1.75581
0.602633
158.156
154.004
151.956
150.167
148.455
146.757
145.092
143.466
141.873
140.306
138.762
137.237
135.731
134.241
132.766
131.305
129.857
128.421
126.996
125.581
124.176
122.78
121.393
120.014
118.642
117.279
115.922
114.572
113.228
111.89
110.559
109.233
107.912
106.597
105.287
103.981
102.68
101.384
100.092
98.8045
97.5209
96.2413
94.9656
93.6935
92.4251
91.1602
89.8987
88.6405
87.3855
86.1337
84.8849
83.6391
82.3962
81.1561
79.9188
78.6841
77.4521
76.2227
74.9957
73.7712
72.5491
71.3293
70.1118
68.8965
67.6835
66.4725
65.2637
64.0569
62.8521
61.6493
60.4483
59.2493
58.0521
56.8566
55.6629
54.4708
53.2804
52.0915
50.9042
49.7184
48.534
47.351
46.1694
44.989
43.8098
42.6318
41.455
40.2792
39.1044
37.9306
36.7578
35.5858
34.4146
33.2442
32.0745
30.9054
29.7369
28.569
27.4016
26.2347
25.0681
23.9019
22.736
21.5704
20.4049
19.2396
18.0744
16.9093
15.7443
14.5792
13.414
12.2489
11.0836
9.91821
8.75258
7.58701
6.4212
5.25532
4.08901
2.92324
1.75571
0.602303
158.082
154.034
151.957
150.169
148.456
146.758
145.092
143.467
141.874
140.307
138.762
137.238
135.732
134.242
132.768
131.307
129.859
128.423
126.997
125.583
124.178
122.782
121.394
120.015
118.644
117.28
115.923
114.573
113.229
111.892
110.56
109.234
107.913
106.598
105.288
103.982
102.681
101.385
100.093
98.8054
97.5217
96.2421
94.9663
93.6942
92.4258
91.1609
89.8993
88.6411
87.3861
86.1343
84.8855
83.6396
82.3967
81.1566
79.9193
78.6846
77.4526
76.2231
74.9961
73.7716
72.5495
71.3297
70.1121
68.8969
67.6838
66.4728
65.264
64.0572
62.8524
61.6495
60.4486
59.2495
58.0523
56.8568
55.6631
54.471
53.2806
52.0917
50.9044
49.7186
48.5342
47.3512
46.1695
44.9891
43.8099
42.6319
41.4551
40.2793
39.1045
37.9307
36.7579
35.5859
34.4147
33.2442
32.0745
30.9055
29.737
28.5691
27.4017
26.2347
25.0682
23.902
22.7361
21.5704
20.4049
19.2396
18.0744
16.9093
15.7442
14.5792
13.414
12.2488
11.0835
9.91816
8.75253
7.58696
6.42113
5.25525
4.08894
2.92315
1.75562
0.601853
157.998
154.069
151.959
150.17
148.458
146.759
145.093
143.467
141.874
140.307
138.762
137.238
135.732
134.243
132.768
131.308
129.86
128.424
126.999
125.584
124.179
122.783
121.396
120.017
118.645
117.282
115.925
114.574
113.231
111.893
110.561
109.235
107.915
106.599
105.289
103.983
102.682
101.386
100.094
98.8064
97.5227
96.2431
94.9672
93.6951
92.4267
91.1617
89.9001
88.6419
87.3869
86.135
84.8862
83.6403
82.3974
81.1572
79.9199
78.6852
77.4531
76.2237
74.9967
73.7721
72.55
71.3301
70.1126
68.8973
67.6842
66.4733
65.2644
64.0576
62.8527
61.6499
60.4489
59.2499
58.0526
56.8571
55.6634
54.4713
53.2808
52.092
50.9047
49.7188
48.5344
47.3514
46.1697
44.9893
43.8101
42.6321
41.4553
40.2795
39.1047
37.9309
36.758
35.586
34.4148
33.2444
32.0746
30.9056
29.7371
28.5692
27.4018
26.2348
25.0683
23.902
22.7361
21.5705
20.405
19.2397
18.0745
16.9094
15.7443
14.5792
13.414
12.2488
11.0835
9.91814
8.75251
7.58692
6.42109
5.25519
4.08889
2.92306
1.75555
0.601235
157.903
154.109
151.961
150.172
148.46
146.76
145.094
143.468
141.875
140.307
138.763
137.238
135.732
134.243
132.769
131.308
129.86
128.424
127
125.585
124.18
122.784
121.397
120.018
118.647
117.283
115.926
114.576
113.232
111.895
110.563
109.237
107.916
106.601
105.29
103.985
102.684
101.387
100.095
98.8076
97.5239
96.2442
94.9683
93.6962
92.4277
91.1627
89.9011
88.6428
87.3878
86.1359
84.887
83.6412
82.3982
81.158
79.9207
78.686
77.4539
76.2244
74.9974
73.7728
72.5506
71.3308
70.1132
68.8979
67.6848
66.4738
65.2649
64.0581
62.8532
61.6504
60.4494
59.2503
58.053
56.8575
55.6638
54.4717
53.2812
52.0924
50.905
49.7192
48.5348
47.3517
46.17
44.9896
43.8104
42.6324
41.4555
40.2797
39.105
37.9311
36.7583
35.5862
34.415
33.2446
32.0748
30.9058
29.7373
28.5693
27.4019
26.235
25.0684
23.9022
22.7362
21.5706
20.4051
19.2398
18.0745
16.9094
15.7443
14.5792
13.4141
12.2489
11.0836
9.91817
8.75253
7.58693
6.42109
5.25518
4.08887
2.92301
1.75549
0.60039
157.797
154.153
151.964
150.174
148.462
146.762
145.095
143.469
141.875
140.308
138.763
137.239
135.733
134.243
132.769
131.308
129.86
128.425
127
125.585
124.181
122.785
121.398
120.019
118.648
117.284
115.927
114.577
113.234
111.896
110.564
109.238
107.917
106.602
105.292
103.986
102.685
101.389
100.097
98.8089
97.5252
96.2455
94.9696
93.6975
92.4289
91.1639
89.9023
88.644
87.3889
86.137
84.8881
83.6422
82.3992
81.159
79.9216
78.6869
77.4548
76.2253
74.9982
73.7736
72.5514
71.3316
70.114
68.8987
67.6855
66.4745
65.2656
64.0588
62.8539
61.651
60.45
59.2509
58.0536
56.8581
55.6643
54.4722
53.2817
52.0929
50.9055
49.7196
48.5352
47.3522
46.1705
44.99
43.8108
42.6328
41.4559
40.2801
39.1053
37.9315
36.7586
35.5866
34.4153
33.2449
32.0751
30.906
29.7375
28.5696
27.4022
26.2352
25.0686
23.9024
22.7365
21.5708
20.4053
19.2399
18.0747
16.9096
15.7445
14.5794
13.4142
12.249
11.0837
9.91826
8.75261
7.58699
6.42114
5.25521
4.0889
2.92299
1.75548
0.599233
157.68
154.2
151.967
150.176
148.465
146.764
145.096
143.47
141.876
140.309
138.764
137.239
135.733
134.244
132.769
131.308
129.861
128.425
127
125.585
124.181
122.785
121.398
120.019
118.648
117.285
115.928
114.578
113.234
111.897
110.565
109.239
107.919
106.603
105.293
103.988
102.687
101.39
100.098
98.8104
97.5267
96.247
94.9711
93.6989
92.4303
91.1653
89.9037
88.6453
87.3902
86.1383
84.8894
83.6435
82.4004
81.1602
79.9228
78.688
77.4559
76.2264
74.9993
73.7747
72.5525
71.3326
70.115
68.8996
67.6865
66.4755
65.2665
64.0596
62.8548
61.6519
60.4509
59.2517
58.0544
56.8589
55.6651
54.4729
53.2825
52.0935
50.9062
49.7203
48.5359
47.3528
46.1711
44.9906
43.8114
42.6334
41.4565
40.2806
39.1058
37.932
36.7591
35.587
34.4158
33.2453
32.0756
30.9065
29.738
28.57
27.4026
26.2356
25.069
23.9027
22.7368
21.5711
20.4056
19.2402
18.075
16.9099
15.7447
14.5796
13.4144
12.2492
11.0839
9.91844
8.75278
7.58715
6.42128
5.25534
4.08901
2.92304
1.75553
0.597663
157.553
154.25
151.971
150.178
148.468
146.766
145.098
143.471
141.878
140.31
138.765
137.24
135.734
134.244
132.77
131.309
129.861
128.425
127
125.586
124.181
122.785
121.398
120.019
118.648
117.285
115.928
114.578
113.235
111.897
110.566
109.24
107.919
106.604
105.294
103.988
102.688
101.391
100.1
98.8118
97.5282
96.2485
94.9726
93.7004
92.4319
91.1668
89.9052
88.6468
87.3917
86.1397
84.8908
83.6449
82.4018
81.1616
79.9242
78.6894
77.4572
76.2277
75.0006
73.776
72.5537
71.3338
70.1162
68.9008
67.6876
66.4766
65.2676
64.0607
62.8558
61.6529
60.4519
59.2527
58.0554
56.8599
55.666
54.4739
53.2834
52.0944
50.9071
49.7212
48.5367
47.3536
46.1719
44.9914
43.8122
42.6341
41.4572
40.2814
39.1065
37.9327
36.7598
35.5877
34.4164
33.246
32.0762
30.9071
29.7385
28.5706
27.4031
26.2361
25.0695
23.9033
22.7373
21.5716
20.4061
19.2407
18.0754
16.9103
15.7451
14.58
13.4148
12.2496
11.0842
9.91875
8.75308
7.58742
6.42154
5.25557
4.08924
2.92319
1.75566
0.595554
157.419
154.301
151.976
150.179
148.471
146.769
145.1
143.473
141.879
140.311
138.766
137.241
135.735
134.245
132.77
131.31
129.862
128.426
127.001
125.586
124.181
122.786
121.399
120.02
118.649
117.285
115.928
114.578
113.235
111.897
110.566
109.24
107.919
106.604
105.294
103.989
102.688
101.392
100.1
98.8124
97.5289
96.2493
94.9735
93.7015
92.4331
91.1681
89.9065
88.6483
87.3932
86.1413
84.8924
83.6464
82.4034
81.1632
79.9257
78.6909
77.4588
76.2292
75.0021
73.7774
72.5551
71.3352
70.1176
68.9022
67.689
66.4779
65.269
64.0621
62.8572
61.6542
60.4532
59.254
58.0566
56.8611
55.6672
54.4751
53.2845
52.0956
50.9082
49.7223
48.5378
47.3547
46.1729
44.9924
43.8132
42.6351
41.4582
40.2823
39.1075
37.9336
36.7607
35.5886
34.4173
33.2468
32.077
30.9079
29.7393
28.5714
27.4039
26.2369
25.0703
23.904
22.738
21.5723
20.4067
19.2413
18.0761
16.9109
15.7457
14.5806
13.4153
12.2501
11.0847
9.91923
8.75355
7.58786
6.42196
5.25596
4.08961
2.92347
1.75588
0.592773
157.285
154.351
151.982
150.18
148.474
146.771
145.102
143.474
141.88
140.312
138.767
137.242
135.736
134.246
132.771
131.31
129.862
128.426
127.001
125.587
124.182
122.786
121.399
120.02
118.649
117.285
115.928
114.578
113.235
111.897
110.566
109.24
107.92
106.604
105.294
103.989
102.688
101.392
100.1
98.8124
97.5289
96.2494
94.9736
93.7017
92.4333
91.1684
89.9069
88.6488
87.3938
86.142
84.8933
83.6474
82.4045
81.1644
79.927
78.6923
77.4602
76.2307
75.0036
73.779
72.5568
71.3369
70.1192
68.9038
67.6906
66.4795
65.2705
64.0636
62.8587
61.6557
60.4546
59.2555
58.0581
56.8625
55.6686
54.4764
53.2859
52.0969
50.9095
49.7236
48.5391
47.356
46.1742
44.9937
43.8144
42.6364
41.4594
40.2835
39.1087
37.9348
36.7618
35.5897
34.4184
33.2479
32.0781
30.909
29.7404
28.5724
27.4049
26.2379
25.0712
23.9049
22.7389
21.5732
20.4076
19.2422
18.0769
16.9117
15.7465
14.5813
13.4161
12.2508
11.0854
9.91992
8.75422
7.5885
6.42257
5.25654
4.09017
2.92392
1.75623
0.589206
157.157
154.396
151.989
150.181
148.477
146.774
145.103
143.476
141.882
140.313
138.768
137.243
135.736
134.246
132.772
131.311
129.863
128.427
127.002
125.587
124.182
122.786
121.399
120.02
118.649
117.286
115.929
114.579
113.235
111.898
110.566
109.24
107.92
106.605
105.294
103.989
102.688
101.392
100.1
98.8125
97.529
96.2494
94.9737
93.7017
92.4333
91.1684
89.907
88.6488
87.3939
86.1421
84.8933
83.6475
82.4046
81.1646
79.9273
78.6927
77.4607
76.2312
75.0043
73.7798
72.5576
71.3378
70.1203
68.905
67.6919
66.4809
65.272
64.0652
62.8603
61.6574
60.4563
59.2572
58.0598
56.8642
55.6704
54.4782
53.2876
52.0986
50.9112
49.7252
48.5407
47.3576
46.1758
44.9952
43.816
42.6378
41.4609
40.285
39.1101
37.9362
36.7632
35.5911
34.4198
33.2493
32.0794
30.9103
29.7417
28.5737
27.4062
26.2391
25.0725
23.9061
22.7401
21.5743
20.4088
19.2433
18.078
16.9128
15.7476
14.5824
13.4171
12.2518
11.0864
9.92084
8.75512
7.58936
6.42341
5.25734
4.09095
2.92458
1.75671
0.584847
157.049
154.432
151.996
150.181
148.48
146.776
145.105
143.477
141.883
140.314
138.769
137.244
135.737
134.247
132.772
131.311
129.863
128.427
127.002
125.588
124.183
122.787
121.4
120.021
118.65
117.286
115.929
114.579
113.236
111.898
110.566
109.241
107.92
106.605
105.295
103.989
102.688
101.392
100.1
98.8127
97.5292
96.2496
94.9738
93.7018
92.4334
91.1685
89.9071
88.6489
87.394
86.1421
84.8934
83.6476
82.4047
81.1646
79.9273
78.6927
77.4607
76.2312
75.0043
73.7798
72.5577
71.3379
70.1204
68.9051
67.692
66.4811
65.2723
64.0655
62.8607
61.6579
60.4569
59.2579
58.0606
56.8651
55.6714
54.4793
53.2888
52.1
50.9126
49.7267
48.5423
47.3592
46.1775
44.997
43.8177
42.6396
41.4627
40.2868
39.1119
37.938
36.765
35.5929
34.4216
33.251
32.0812
30.912
29.7434
28.5753
27.4078
26.2407
25.074
23.9076
22.7416
21.5758
20.4102
19.2447
18.0794
16.9141
15.7489
14.5836
13.4183
12.253
11.0875
9.92197
8.75623
7.59044
6.42446
5.25836
4.09195
2.92546
1.75737
0.580033
156.981
154.454
152.001
150.181
148.482
146.778
145.106
143.478
141.883
140.315
138.769
137.244
135.738
134.248
132.773
131.312
129.864
128.428
127.003
125.588
124.183
122.787
121.4
120.021
118.65
117.286
115.929
114.579
113.236
111.898
110.567
109.241
107.92
106.605
105.295
103.989
102.689
101.392
100.1
98.8129
97.5293
96.2497
94.974
93.702
92.4336
91.1687
89.9072
88.649
87.3941
86.1422
84.8935
83.6477
82.4048
81.1647
79.9274
78.6928
77.4607
76.2313
75.0043
73.7798
72.5577
71.3379
70.1204
68.9052
67.6921
66.4812
65.2723
64.0655
62.8607
61.6579
60.457
59.2579
58.0606
56.8652
55.6714
54.4793
53.2889
52.1001
50.9127
49.7269
48.5425
47.3595
46.1778
44.9974
43.8182
42.6402
41.4633
40.2875
39.1127
37.9388
36.7659
35.5939
34.4226
33.2521
32.0823
30.9132
29.7446
28.5766
27.4091
26.2421
25.0754
23.9091
22.743
21.5773
20.4117
19.2462
18.0809
16.9156
15.7503
14.5851
13.4198
12.2544
11.0889
9.92337
8.75761
7.59179
6.42578
5.25965
4.09321
2.92663
1.75832
0.576316
156.981
154.454
152.001
150.181
148.482
146.778
145.106
143.478
141.883
140.315
138.769
137.244
135.738
134.248
132.773
131.312
129.864
128.428
127.003
125.588
124.183
122.787
121.4
120.021
118.65
117.286
115.929
114.579
113.236
111.898
110.567
109.241
107.92
106.605
105.295
103.989
102.689
101.392
100.1
98.8129
97.5293
96.2497
94.974
93.702
92.4336
91.1687
89.9072
88.649
87.3941
86.1422