/*--------------------------------*- C++ -*----------------------------------*\
  =========                 |
  \\      /  F ield         | OpenFOAM: The Open Source CFD Toolbox
   \\    /   O peration     | Website:  https://openfoam.org
    \\  /    A nd           | Version:  8
     \\/     M anipulation  |
\*---------------------------------------------------------------------------*/
FoamFile
{
    version     2.0;
    format      ascii;
    class       surfaceScalarField;
    location    "850";
    object      phi;
}
// * * * * * * * * * * * * * * * * * * * * * * * * * * * * * * * * * * * * * //

dimensions      [0 3 -1 0 0 0 0];

internalField   nonuniform List<scalar> 
14458
(
0.00222126
0.00139905
0.00205682
0.000164437
0.00198942
6.74047e-05
0.00194726
4.21621e-05
0.00191671
3.0548e-05
0.00189296
2.37487e-05
0.00187368
1.92771e-05
0.00185758
1.61011e-05
0.00184386
1.37264e-05
0.00183197
1.18877e-05
0.00182154
1.04251e-05
0.00181231
9.23491e-06
0.00180406
8.24849e-06
0.00179664
7.41843e-06
0.00178993
6.711e-06
0.00178383
6.10132e-06
0.00177826
5.57085e-06
0.00177315
5.10546e-06
0.00176846
4.69431e-06
0.00176413
4.32837e-06
0.00176013
4.00088e-06
0.00175643
3.70627e-06
0.00175299
3.4401e-06
0.00174979
3.19832e-06
0.00174681
2.97791e-06
0.00174403
2.7763e-06
0.00174144
2.59156e-06
0.00173902
2.42118e-06
0.00173676
2.2638e-06
0.00173464
2.11813e-06
0.00173266
1.98316e-06
0.0017308
1.85737e-06
0.00172906
1.74004e-06
0.00172743
1.63047e-06
0.0017259
1.52841e-06
0.00172447
1.43225e-06
0.00172313
1.34187e-06
0.00172187
1.25688e-06
0.00172069
1.17716e-06
0.00171959
1.10159e-06
0.00171856
1.03013e-06
0.0017176
9.62559e-07
0.0017167
8.99226e-07
0.00171586
8.38524e-07
0.00171508
7.80844e-07
0.00171435
7.26033e-07
0.00171368
6.7436e-07
0.00171305
6.2468e-07
0.00171248
5.77317e-07
0.00171194
5.32138e-07
0.00171145
4.89682e-07
0.00171101
4.48471e-07
0.0017106
4.09097e-07
0.00171022
3.71393e-07
0.00170989
3.35755e-07
0.00170959
3.0122e-07
0.00170932
2.68308e-07
0.00170908
2.36686e-07
0.00170887
2.06465e-07
0.0017087
1.77374e-07
0.00170855
1.49683e-07
0.00170842
1.22798e-07
0.00170833
9.67564e-08
0.00170825
7.17761e-08
0.00170821
4.8174e-08
0.00170818
2.49412e-08
0.00170818
9.85024e-10
0.0017082
-2.10734e-08
0.00170824
-4.19748e-08
0.00170831
-6.30695e-08
0.00170839
-8.44563e-08
0.0017085
-1.04784e-07
0.00170862
-1.23911e-07
0.00170877
-1.43327e-07
0.00170893
-1.63642e-07
0.00170911
-1.82474e-07
0.00170932
-2.00312e-07
0.00170954
-2.18536e-07
0.00170977
-2.35788e-07
0.00171003
-2.53172e-07
0.0017103
-2.69656e-07
0.00171058
-2.85969e-07
0.00171089
-2.98699e-07
0.0017112
-3.13801e-07
0.00171153
-3.28294e-07
0.00171187
-3.42116e-07
0.00171223
-3.51669e-07
0.00171259
-3.6389e-07
0.00171297
-3.76252e-07
0.00171336
-3.87174e-07
0.00171375
-3.89007e-07
0.00171415
-3.97994e-07
0.00171456
-4.07467e-07
0.00171497
-4.14634e-07
0.00171539
-4.15826e-07
0.00171581
-4.20969e-07
0.00171624
-4.27725e-07
0.00171666
-4.31767e-07
0.00171709
-4.26897e-07
0.00171752
-4.28798e-07
0.00171795
-4.32389e-07
0.00171838
-4.32273e-07
0.00171881
-4.29478e-07
0.00171923
-4.27234e-07
0.00171965
-4.27175e-07
0.00172007
-4.23814e-07
0.00172049
-4.22738e-07
0.0017209
-4.17093e-07
0.00172131
-4.12704e-07
0.00172171
-4.04644e-07
0.00172211
-4.07132e-07
0.0017225
-3.96599e-07
0.00172288
-3.84589e-07
0.00172326
-3.71318e-07
0.00172363
-3.95496e-07
0.001724
-3.79397e-07
0.00172435
-3.5796e-07
0.00172471
-3.37584e-07
0.00172505
-3.5663e-07
0.00172538
-3.22379e-07
0.0017257
-2.7736e-07
-8.77648e-08
0.00311152
0.00259572
0.00288393
0.000392019
0.00278399
0.000167352
0.00272314
0.000103006
0.0026798
7.38916e-05
0.0026464
5.71459e-05
0.00261943
4.6249e-05
0.00259697
3.85577e-05
0.00257787
3.28291e-05
0.00256135
2.84053e-05
0.00254689
2.48929e-05
0.00253408
2.20391e-05
0.00252265
1.96766e-05
0.00251238
1.76903e-05
0.00250309
1.59987e-05
0.00249465
1.45418e-05
0.00248695
1.32748e-05
0.00247989
1.21638e-05
0.0024734
1.11825e-05
0.00246742
1.03095e-05
0.00246189
9.52852e-06
0.00245677
8.82612e-06
0.00245202
8.19155e-06
0.00244761
7.61538e-06
0.00244349
7.09025e-06
0.00243966
6.60999e-06
0.00243608
6.16971e-06
0.00243274
5.76397e-06
0.00242961
5.38928e-06
0.00242669
5.04248e-06
0.00242395
4.72099e-06
0.00242139
4.42163e-06
0.00241899
4.14245e-06
0.00241673
3.88175e-06
0.00241462
3.63851e-06
0.00241265
3.40976e-06
0.00241079
3.19481e-06
0.00240906
2.99269e-06
0.00240743
2.8028e-06
0.00240591
2.62312e-06
0.00240449
2.45326e-06
0.00240316
2.29265e-06
0.00240192
2.14153e-06
0.00240076
1.99728e-06
0.00239968
1.86022e-06
0.00239867
1.73003e-06
0.00239774
1.60685e-06
0.00239688
1.48887e-06
0.00239608
1.37636e-06
0.00239534
1.26909e-06
0.00239466
1.1677e-06
0.00239404
1.06987e-06
0.00239347
9.76343e-07
0.00239296
8.86866e-07
0.00239249
8.01895e-07
0.00239207
7.19918e-07
0.0023917
6.41615e-07
0.00239137
5.66441e-07
0.00239108
4.94541e-07
0.00239083
4.25309e-07
0.00239062
3.59181e-07
0.00239045
2.95135e-07
0.00239031
2.33289e-07
0.00239021
1.73689e-07
0.00239014
1.16971e-07
0.00239011
6.13127e-08
0.0023901
5.36663e-09
0.00239013
-4.74405e-08
0.00239018
-9.78006e-08
0.00239027
-1.48136e-07
0.00239038
-1.98224e-07
0.00239053
-2.46543e-07
0.00239069
-2.92421e-07
0.00239089
-3.38537e-07
0.00239111
-3.85306e-07
0.00239136
-4.2967e-07
0.00239163
-4.71882e-07
0.00239193
-5.14328e-07
0.00239225
-5.54689e-07
0.00239259
-5.94818e-07
0.00239295
-6.33002e-07
0.00239334
-6.70322e-07
0.00239374
-7.01692e-07
0.00239417
-7.35923e-07
0.00239461
-7.68751e-07
0.00239507
-7.99722e-07
0.00239554
-8.23913e-07
0.00239603
-8.51077e-07
0.00239653
-8.78219e-07
0.00239704
-9.02022e-07
0.00239757
-9.12056e-07
0.00239811
-9.31536e-07
0.00239865
-9.5181e-07
0.0023992
-9.67384e-07
0.00239976
-9.74123e-07
0.00240033
-9.85372e-07
0.0024009
-9.99339e-07
0.00240147
-1.00787e-06
0.00240205
-1.00343e-06
0.00240263
-1.00757e-06
0.00240321
-1.01481e-06
0.00240379
-1.01529e-06
0.00240437
-1.01216e-06
0.00240496
-1.00852e-06
0.00240553
-1.00857e-06
0.00240611
-1.0028e-06
0.00240669
-1.00077e-06
0.00240726
-9.90739e-07
0.00240782
-9.82741e-07
0.00240839
-9.6901e-07
0.00240895
-9.70601e-07
0.0024095
-9.52695e-07
0.00241005
-9.31408e-07
0.00241059
-9.09838e-07
0.00241112
-9.42716e-07
0.00241165
-9.16636e-07
0.00241217
-8.7949e-07
0.00241269
-8.4757e-07
0.00241319
-8.69781e-07
0.00241368
-8.11698e-07
0.00241417
-7.30928e-07
-2.95585e-07
0.00403426
0.00368821
0.00373892
0.00068736
0.00360103
0.000305244
0.00351841
0.000185629
0.00346051
0.000131792
0.00341635
0.000101301
0.00338092
8.168e-05
0.00335155
6.79324e-05
0.00332663
5.77422e-05
0.00330514
4.98997e-05
0.00328634
4.36883e-05
0.00326973
3.86512e-05
0.00325492
3.44875e-05
0.00324162
3.09912e-05
0.0032296
2.80165e-05
0.00321869
2.54567e-05
0.00320873
2.32322e-05
0.00319961
2.12827e-05
0.00319123
1.95616e-05
0.00318351
1.80314e-05
0.00317637
1.66629e-05
0.00316977
1.54326e-05
0.00316364
1.43214e-05
0.00315794
1.33128e-05
0.00315264
1.23939e-05
0.00314769
1.15536e-05
0.00314308
1.07833e-05
0.00313877
1.00737e-05
0.00313474
9.41864e-06
0.00313097
8.81239e-06
0.00312744
8.25033e-06
0.00312414
7.72716e-06
0.00312104
7.23942e-06
0.00311814
6.78395e-06
0.00311542
6.35871e-06
0.00311287
5.95916e-06
0.00311048
5.58385e-06
0.00310824
5.23091e-06
0.00310614
4.89913e-06
0.00310418
4.58546e-06
0.00310235
4.28903e-06
0.00310063
4.0087e-06
0.00309903
3.74451e-06
0.00309753
3.49277e-06
0.00309614
3.25371e-06
0.00309484
3.02655e-06
0.00309364
2.81137e-06
0.00309252
2.60558e-06
0.00309149
2.40942e-06
0.00309053
2.22234e-06
0.00308966
2.04505e-06
0.00308885
1.87443e-06
0.00308812
1.71139e-06
0.00308745
1.55537e-06
0.00308684
1.40691e-06
0.0030863
1.26395e-06
0.00308581
1.12729e-06
0.00308538
9.96123e-07
0.00308501
8.70473e-07
0.00308468
7.49621e-07
0.00308441
6.33926e-07
0.00308418
5.22088e-07
0.003084
4.14022e-07
0.00308386
3.0995e-07
0.00308377
2.10357e-07
0.00308372
1.1315e-07
0.00308371
1.61053e-08
0.00308374
-7.59618e-08
0.0030838
-1.644e-07
0.00308391
-2.5189e-07
0.00308405
-3.38676e-07
0.00308422
-4.223e-07
0.00308443
-5.0244e-07
0.00308468
-5.82009e-07
0.00308496
-6.62085e-07
0.00308526
-7.38185e-07
0.0030856
-8.11121e-07
0.00308597
-8.83561e-07
0.00308637
-9.52801e-07
0.0030868
-1.02097e-06
0.00308725
-1.08598e-06
0.00308773
-1.14925e-06
0.00308824
-1.20413e-06
0.00308876
-1.26202e-06
0.00308931
-1.3172e-06
0.00308988
-1.36956e-06
0.00309047
-1.41217e-06
0.00309108
-1.45824e-06
0.0030917
-1.50307e-06
0.00309234
-1.54365e-06
0.003093
-1.56527e-06
0.00309367
-1.59891e-06
0.00309435
-1.63217e-06
0.00309504
-1.65964e-06
0.00309574
-1.67434e-06
0.00309645
-1.69506e-06
0.00309717
-1.71779e-06
0.00309789
-1.73422e-06
0.00309862
-1.73243e-06
0.00309935
-1.74207e-06
0.00310009
-1.75426e-06
0.00310083
-1.75842e-06
0.00310158
-1.75652e-06
0.00310232
-1.75438e-06
0.00310307
-1.7559e-06
0.00310381
-1.75045e-06
0.00310456
-1.74846e-06
0.0031053
-1.73643e-06
0.00310604
-1.72653e-06
0.00310678
-1.70907e-06
0.00310752
-1.71094e-06
0.00310825
-1.68697e-06
0.00310898
-1.6598e-06
0.0031097
-1.63011e-06
0.00311042
-1.67109e-06
0.00311113
-1.6343e-06
0.00311184
-1.58694e-06
0.00311254
-1.54123e-06
0.00311323
-1.5701e-06
0.00311391
-1.48013e-06
0.00311458
-1.38804e-06
-6.09496e-07
0.00509521
0.00469385
0.00472975
0.00105283
0.00454516
0.00048983
0.00443475
0.000296043
0.00435841
0.000208123
0.00430083
0.000158889
0.00425496
0.000127547
0.00421713
0.000105763
0.00418516
8.97081e-05
0.00415766
7.74022e-05
0.00413366
6.76856e-05
0.00411249
5.9825e-05
0.00409364
5.33395e-05
0.00407673
4.7902e-05
0.00406146
4.32816e-05
0.00404761
3.93098e-05
0.00403498
3.58616e-05
0.00402342
3.2842e-05
0.00401281
3.01778e-05
0.00400303
2.78106e-05
0.00399399
2.56949e-05
0.00398563
2.37936e-05
0.00397788
2.2077e-05
0.00397067
2.05197e-05
0.00396396
1.91012e-05
0.00395771
1.78047e-05
0.00395188
1.66161e-05
0.00394643
1.55218e-05
0.00394134
1.45118e-05
0.00393657
1.35773e-05
0.00393211
1.27109e-05
0.00392794
1.19048e-05
0.00392402
1.11535e-05
0.00392035
1.0452e-05
0.00391692
9.79678e-06
0.00391369
9.18159e-06
0.00391067
8.60384e-06
0.00390784
8.06058e-06
0.00390519
7.5497e-06
0.00390271
7.06701e-06
0.00390039
6.61095e-06
0.00389822
6.1797e-06
0.00389619
5.77283e-06
0.0038943
5.38564e-06
0.00389253
5.01801e-06
0.00389089
4.66874e-06
0.00388936
4.33756e-06
0.00388795
4.0212e-06
0.00388664
3.71966e-06
0.00388543
3.4321e-06
0.00388431
3.15913e-06
0.00388329
2.89692e-06
0.00388236
2.64631e-06
0.00388151
2.40654e-06
0.00388073
2.17806e-06
0.00388004
1.95832e-06
0.00387942
1.74811e-06
0.00387887
1.54636e-06
0.00387839
1.35303e-06
0.00387797
1.16707e-06
0.00387761
9.88847e-07
0.00387732
8.16704e-07
0.00387708
6.50529e-07
0.0038769
4.9034e-07
0.00387678
3.36755e-07
0.0038767
1.87097e-07
0.00387668
3.89037e-08
0.00387671
-1.02609e-07
0.00387678
-2.38738e-07
0.0038769
-3.72819e-07
0.00387707
-5.0494e-07
0.00387728
-6.32594e-07
0.00387753
-7.55139e-07
0.00387783
-8.76266e-07
0.00387816
-9.96913e-07
0.00387853
-1.11218e-06
0.00387895
-1.22274e-06
0.0038794
-1.33193e-06
0.00387988
-1.43639e-06
0.0038804
-1.53873e-06
0.00388095
-1.63646e-06
0.00388153
-1.73125e-06
0.00388214
-1.81534e-06
0.00388278
-1.90193e-06
0.00388345
-1.98455e-06
0.00388414
-2.0629e-06
0.00388486
-2.12915e-06
0.0038856
-2.19829e-06
0.00388637
-2.26541e-06
0.00388715
-2.32648e-06
0.00388795
-2.36493e-06
0.00388877
-2.41613e-06
0.0038896
-2.4666e-06
0.00389045
-2.50926e-06
0.00389131
-2.53676e-06
0.00389219
-2.57001e-06
0.00389308
-2.60553e-06
0.00389397
-2.63266e-06
0.00389488
-2.63844e-06
0.0038958
-2.65622e-06
0.00389672
-2.67712e-06
0.00389765
-2.68772e-06
0.00389858
-2.69118e-06
0.00389952
-2.69322e-06
0.00390046
-2.69958e-06
0.00390141
-2.69708e-06
0.00390235
-2.69842e-06
0.0039033
-2.68699e-06
0.00390425
-2.67796e-06
0.0039052
-2.65968e-06
0.00390615
-2.66323e-06
0.0039071
-2.63631e-06
0.00390804
-2.60474e-06
0.00390899
-2.57083e-06
0.00390993
-2.61781e-06
0.00391086
-2.57462e-06
0.00391179
-2.51709e-06
0.00391272
-2.46294e-06
0.00391363
-2.49254e-06
0.00391453
-2.37507e-06
0.00391542
-2.26031e-06
-1.04136e-06
0.00634387
0.00561001
0.00590982
0.00148688
0.00566913
0.000730515
0.00552327
0.000441905
0.00542325
0.000308148
0.0053485
0.000233634
0.00528942
0.000186628
0.00524096
0.000154221
0.00520019
0.000130482
0.00516522
0.000112371
0.00513478
9.81213e-05
0.00510798
8.66255e-05
0.00508416
7.71623e-05
0.00506282
6.92429e-05
0.00504358
6.25239e-05
0.00502613
5.67556e-05
0.00501024
5.17534e-05
0.0049957
4.7377e-05
0.00498236
4.3519e-05
0.00497008
4.00937e-05
0.00495874
3.70342e-05
0.00494825
3.42865e-05
0.00493852
3.18069e-05
0.00492948
2.95584e-05
0.00492107
2.75115e-05
0.00491323
2.56412e-05
0.00490592
2.3927e-05
0.00489909
2.23495e-05
0.00489271
2.0894e-05
0.00488674
1.95477e-05
0.00488115
1.82997e-05
0.00487592
1.71389e-05
0.00487102
1.60574e-05
0.00486642
1.50476e-05
0.00486211
1.41045e-05
0.00485807
1.32193e-05
0.00485429
1.23883e-05
0.00485074
1.1607e-05
0.00484742
1.08721e-05
0.00484431
1.01782e-05
0.0048414
9.52262e-06
0.00483868
8.90276e-06
0.00483613
8.31761e-06
0.00483376
7.76124e-06
0.00483154
7.23312e-06
0.00482948
6.73135e-06
0.00482756
6.25538e-06
0.00482578
5.801e-06
0.00482413
5.36803e-06
0.00482261
4.95509e-06
0.0048212
4.56271e-06
0.00481992
4.18622e-06
0.00481874
3.82644e-06
0.00481766
3.48218e-06
0.00481668
3.15385e-06
0.0048158
2.83832e-06
0.00481501
2.53637e-06
0.00481431
2.24658e-06
0.0048137
1.9687e-06
0.00481316
1.70155e-06
0.00481271
1.44529e-06
0.00481233
1.198e-06
0.00481202
9.59257e-07
0.00481178
7.29266e-07
0.00481161
5.08327e-07
0.0048115
2.93642e-07
0.00481146
8.17652e-08
0.00481148
-1.20824e-07
0.00481155
-3.16222e-07
0.00481169
-5.07673e-07
0.00481188
-6.95938e-07
0.00481212
-8.77519e-07
0.00481242
-1.05238e-06
0.00481277
-1.22417e-06
0.00481317
-1.39467e-06
0.00481361
-1.55751e-06
0.00481411
-1.71416e-06
0.00481464
-1.86801e-06
0.00481522
-2.01553e-06
0.00481584
-2.15945e-06
0.0048165
-2.29709e-06
0.0048172
-2.43048e-06
0.00481794
-2.55045e-06
0.00481871
-2.67243e-06
0.00481952
-2.7887e-06
0.00482035
-2.89953e-06
0.00482122
-2.99507e-06
0.00482211
-3.09355e-06
0.00482304
-3.18828e-06
0.00482399
-3.27612e-06
0.00482496
-3.33625e-06
0.00482595
-3.41112e-06
0.00482697
-3.4835e-06
0.00482801
-3.54725e-06
0.00482906
-3.59176e-06
0.00483014
-3.64328e-06
0.00483122
-3.69569e-06
0.00483233
-3.73926e-06
0.00483345
-3.75617e-06
0.00483458
-3.78759e-06
0.00483572
-3.82084e-06
0.00483687
-3.84296e-06
0.00483804
-3.85499e-06
0.00483921
-3.86589e-06
0.00484039
-3.88037e-06
0.00484157
-3.88505e-06
0.00484276
-3.8924e-06
0.00484396
-3.88518e-06
0.00484516
-3.87997e-06
0.00484636
-3.86349e-06
0.00484757
-3.87167e-06
0.00484877
-3.84338e-06
0.00484998
-3.8108e-06
0.00485118
-3.77243e-06
0.00485239
-3.82857e-06
0.00485359
-3.77731e-06
0.00485478
-3.71355e-06
0.00485597
-3.64684e-06
0.00485716
-3.68326e-06
0.00485832
-3.52632e-06
0.00485947
-3.40862e-06
-1.61071e-06
0.00782498
0.00642447
0.00732969
0.00198217
0.00702383
0.00103637
0.00683327
0.000632459
0.00670272
0.000438696
0.00660586
0.000330497
0.00652983
0.000262659
0.00646783
0.000216225
0.00641588
0.000182424
0.00637149
0.000156761
0.00633297
0.000136648
0.00629912
0.000120474
0.00626909
0.000107193
0.00624223
9.61036e-05
0.00621804
8.67114e-05
0.00619614
7.86607e-05
0.0061762
7.16883e-05
0.00615798
6.55952e-05
0.00614127
6.0229e-05
0.0061259
5.5469e-05
0.00611171
5.12207e-05
0.00609859
4.7408e-05
0.00608643
4.39694e-05
0.00607513
4.08533e-05
0.00606463
3.80179e-05
0.00605484
3.54283e-05
0.00604571
3.30558e-05
0.00603719
3.08735e-05
0.00602922
2.88608e-05
0.00602177
2.69996e-05
0.00601479
2.52748e-05
0.00600826
2.36711e-05
0.00600214
2.21774e-05
0.0059964
2.07832e-05
0.00599103
1.94808e-05
0.00598599
1.82592e-05
0.00598126
1.71126e-05
0.00597684
1.60347e-05
0.00597269
1.50209e-05
0.0059688
1.40639e-05
0.00596516
1.31601e-05
0.00596176
1.23056e-05
0.00595858
1.14987e-05
0.00595561
1.07319e-05
0.00595284
1.00043e-05
0.00595026
9.31302e-06
0.00594786
8.65705e-06
0.00594562
8.03126e-06
0.00594356
7.43501e-06
0.00594165
6.86639e-06
0.00593988
6.32567e-06
0.00593826
5.80733e-06
0.00593678
5.31198e-06
0.00593542
4.83804e-06
0.00593419
4.38572e-06
0.00593308
3.9513e-06
0.00593208
3.53542e-06
0.00593119
3.13632e-06
0.0059304
2.75356e-06
0.00592972
2.3856e-06
0.00592913
2.03249e-06
0.00592864
1.69191e-06
0.00592823
1.36334e-06
0.00592791
1.04674e-06
0.00592768
7.42444e-07
0.00592753
4.47113e-07
0.00592745
1.57004e-07
0.00592745
-1.21161e-07
0.00592753
-3.89576e-07
0.00592767
-6.51868e-07
0.00592788
-9.08771e-07
0.00592816
-1.15673e-06
0.00592851
-1.39558e-06
0.00592891
-1.62961e-06
0.00592938
-1.86061e-06
0.0059299
-2.08177e-06
0.00593048
-2.29458e-06
0.00593112
-2.50301e-06
0.00593181
-2.703e-06
0.00593254
-2.89773e-06
0.00593333
-3.0842e-06
0.00593417
-3.26474e-06
0.00593505
-3.42918e-06
0.00593597
-3.59457e-06
0.00593693
-3.75254e-06
0.00593794
-3.90333e-06
0.00593898
-4.03619e-06
0.00594006
-4.17103e-06
0.00594117
-4.30089e-06
0.00594231
-4.422e-06
0.00594349
-4.51158e-06
0.0059447
-4.6162e-06
0.00594593
-4.71751e-06
0.00594719
-4.80817e-06
0.00594848
-4.87693e-06
0.00594979
-4.95218e-06
0.00595112
-5.02802e-06
0.00595247
-5.09303e-06
0.00595384
-5.12797e-06
0.00595523
-5.17767e-06
0.00595664
-5.22916e-06
0.00595806
-5.26727e-06
0.0059595
-5.2937e-06
0.00596095
-5.31761e-06
0.00596242
-5.34512e-06
0.00596389
-5.36079e-06
0.00596538
-5.37865e-06
0.00596687
-5.37913e-06
0.00596837
-5.38132e-06
0.00596987
-5.37007e-06
0.00597138
-5.38497e-06
0.0059729
-5.35861e-06
0.00597441
-5.32627e-06
0.00597593
-5.28712e-06
0.00597745
-5.351e-06
0.00597896
-5.29543e-06
0.00598047
-5.22407e-06
0.00598198
-5.14915e-06
0.00598347
-5.18597e-06
0.00598494
-4.99149e-06
0.0059864
-4.85538e-06
-2.33827e-06
0.00958315
0.0071223
0.00904307
0.00252225
0.0086654
0.00141405
0.00841974
0.00087812
0.00825013
0.000608299
0.00812471
0.000455923
0.00802681
0.000360557
0.0079474
0.000295639
0.00788117
0.000248652
0.00782478
0.000213153
0.00777598
0.000185444
0.00773322
0.000163237
0.00769536
0.000145056
0.00766155
0.00012991
0.00763115
0.000117109
0.00760366
0.000106155
0.00757866
9.66826e-05
0.00755584
8.84159e-05
0.00753493
8.11436e-05
0.0075157
7.46996e-05
0.00749796
6.89536e-05
0.00748157
6.38011e-05
0.00746638
5.91574e-05
0.00745229
5.49522e-05
0.00743917
5.11282e-05
0.00742697
4.76375e-05
0.00741558
4.4441e-05
0.00740495
4.15022e-05
0.00739502
3.87932e-05
0.00738573
3.6289e-05
0.00737704
3.39691e-05
0.00736889
3.1813e-05
0.00736127
2.98053e-05
0.00735412
2.79321e-05
0.00734742
2.61824e-05
0.00734113
2.45419e-05
0.00733524
2.30026e-05
0.00732972
2.15559e-05
0.00732455
2.01952e-05
0.0073197
1.89113e-05
0.00731516
1.76991e-05
0.00731091
1.65532e-05
0.00730694
1.54708e-05
0.00730323
1.4443e-05
0.00729977
1.34678e-05
0.00729654
1.25414e-05
0.00729353
1.16623e-05
0.00729074
1.08239e-05
0.00728815
1.00253e-05
0.00728575
9.26371e-06
0.00728354
8.53915e-06
0.0072815
7.84503e-06
0.00727963
7.18178e-06
0.00727792
6.54719e-06
0.00727637
5.94129e-06
0.00727496
5.35962e-06
0.00727369
4.8027e-06
0.00727256
4.26827e-06
0.00727156
3.75557e-06
0.00727068
3.26288e-06
0.00726992
2.78989e-06
0.00726928
2.33401e-06
0.00726875
1.89422e-06
0.00726832
1.47077e-06
0.007268
1.0634e-06
0.00726778
6.68826e-07
0.00726766
2.82052e-07
0.00726762
-8.88274e-08
0.00726768
-4.47263e-07
0.00726783
-7.96378e-07
0.00726806
-1.13787e-06
0.00726837
-1.46694e-06
0.00726876
-1.78442e-06
0.00726922
-2.09433e-06
0.00726976
-2.39964e-06
0.00727037
-2.69183e-06
0.00727105
-2.97351e-06
0.0072718
-3.24856e-06
0.00727261
-3.51296e-06
0.00727348
-3.7699e-06
0.00727441
-4.01632e-06
0.0072754
-4.25499e-06
0.00727645
-4.47428e-06
0.00727755
-4.69358e-06
0.0072787
-4.90313e-06
0.0072799
-5.10409e-06
0.00728115
-5.28331e-06
0.00728244
-5.4644e-06
0.00728378
-5.63807e-06
0.00728516
-5.80222e-06
0.00728658
-5.92902e-06
0.00728803
-6.07286e-06
0.00728953
-6.21078e-06
0.00729105
-6.3374e-06
0.00729261
-6.43717e-06
0.00729421
-6.54485e-06
0.00729583
-6.65073e-06
0.00729748
-6.74561e-06
0.00729915
-6.8041e-06
0.00730086
-6.88001e-06
0.00730258
-6.95537e-06
0.00730433
-7.01662e-06
0.0073061
-7.06217e-06
0.00730788
-7.1055e-06
0.00730969
-7.15068e-06
0.00731151
-7.18284e-06
0.00731334
-7.21495e-06
0.00731519
-7.22762e-06
0.00731704
-7.24084e-06
0.00731891
-7.23776e-06
0.00732078
-7.263e-06
0.00732266
-7.2399e-06
0.00732455
-7.21128e-06
0.00732643
-7.17019e-06
0.00732832
-7.24569e-06
0.00733021
-7.18255e-06
0.00733209
-7.10699e-06
0.00733396
-7.01732e-06
0.00733583
-7.06099e-06
0.00733766
-6.81234e-06
0.00733949
-6.67765e-06
-3.25658e-06
0.0116649
0.00769175
0.0111083
0.00307885
0.0106583
0.00186413
0.0103471
0.00118928
0.0101283
0.000827099
0.00996616
0.000618058
0.00984002
0.0004867
0.00973813
0.000397523
0.00965352
0.000333268
0.00958173
0.000284941
0.0095198
0.00024737
0.00946568
0.000217365
0.00941786
0.000192874
0.00937524
0.000172524
0.00933699
0.000155363
0.00930244
0.000140708
0.00927106
0.000128056
0.00924245
0.000117031
0.00921625
0.000107345
0.00919217
9.87723e-05
0.00916999
9.11363e-05
0.0091495
8.42953e-05
0.00913052
7.81352e-05
0.00911291
7.25612e-05
0.00909654
6.74961e-05
0.0090813
6.28755e-05
0.0090671
5.86466e-05
0.00905384
5.4761e-05
0.00904145
5.1181e-05
0.00902987
4.78733e-05
0.00901903
4.48101e-05
0.00900888
4.19647e-05
0.00899936
3.93161e-05
0.00899045
3.68457e-05
0.00898209
3.45387e-05
0.00897426
3.23768e-05
0.00896691
3.03488e-05
0.00896003
2.84433e-05
0.00895357
2.66514e-05
0.00894752
2.49612e-05
0.00894185
2.33659e-05
0.00893655
2.18581e-05
0.00893159
2.04338e-05
0.00892695
1.9082e-05
0.00892261
1.77996e-05
0.00891857
1.65818e-05
0.00891481
1.54258e-05
0.00891131
1.43241e-05
0.00890806
1.32747e-05
0.00890505
1.22741e-05
0.00890227
1.13218e-05
0.0088997
1.04101e-05
0.00889735
9.53895e-06
0.00889519
8.70554e-06
0.00889322
7.90953e-06
0.00889143
7.14567e-06
0.00888982
6.4142e-06
0.00888838
5.71235e-06
0.00888709
5.03902e-06
0.00888596
4.39205e-06
0.00888498
3.77086e-06
0.00888414
3.17241e-06
0.00888344
2.59543e-06
0.00888287
2.03992e-06
0.00888243
1.50546e-06
0.00888211
9.88279e-07
0.00888191
4.82906e-07
0.00888183
-2.28718e-09
0.00888185
-4.71307e-07
0.00888198
-9.27472e-07
0.00888222
-1.37248e-06
0.00888255
-1.8014e-06
0.00888298
-2.21521e-06
0.00888351
-2.61848e-06
0.00888412
-3.0144e-06
0.00888482
-3.39393e-06
0.00888561
-3.75994e-06
0.00888648
-4.11683e-06
0.00888743
-4.4602e-06
0.00888845
-4.79363e-06
0.00888955
-5.11387e-06
0.00889072
-5.42406e-06
0.00889195
-5.71152e-06
0.00889326
-5.99737e-06
0.00889463
-6.27114e-06
0.00889606
-6.53416e-06
0.00889755
-6.77218e-06
0.00889909
-7.01072e-06
0.0089007
-7.23994e-06
0.00890235
-7.45754e-06
0.00890406
-7.63326e-06
0.00890581
-7.82608e-06
0.00890761
-8.01137e-06
0.00890946
-8.18315e-06
0.00891134
-8.32464e-06
0.00891327
-8.47327e-06
0.00891524
-8.61894e-06
0.00891724
-8.75141e-06
0.00891928
-8.84311e-06
0.00892135
-8.9523e-06
0.00892346
-9.05991e-06
0.00892559
-9.15082e-06
0.00892775
-9.2234e-06
0.00892994
-9.29198e-06
0.00893215
-9.36145e-06
0.00893438
-9.41523e-06
0.00893663
-9.46732e-06
0.0089389
-9.49663e-06
0.00894118
-9.52528e-06
0.00894347
-9.53435e-06
0.00894578
-9.57229e-06
0.0089481
-9.55598e-06
0.00895042
-9.53201e-06
0.00895274
-9.49253e-06
0.00895507
-9.5777e-06
0.00895739
-9.51031e-06
0.00895971
-9.42767e-06
0.00896202
-9.32681e-06
0.00896433
-9.36914e-06
0.00896658
-9.06565e-06
0.00896883
-8.91312e-06
-4.38778e-06
0.0141222
0.00812849
0.0135876
0.00361341
0.013076
0.0023758
0.0126916
0.00157368
0.0124125
0.00110616
0.0122038
0.000826793
0.0120413
0.000649182
0.0119104
0.000528424
0.0118021
0.000441626
0.0117104
0.000376571
0.0116316
0.000326176
0.0115629
0.000286066
0.0115024
0.000253427
0.0114485
0.00022638
0.0114002
0.000203626
0.0113567
0.000184235
0.0113172
0.000167526
0.0112813
0.00015299
0.0112484
0.000140238
0.0112182
0.000128966
0.0111904
0.000118938
0.0111647
0.000109964
0.011141
0.000101891
0.0111189
9.45922e-05
0.0110985
8.79654e-05
0.0110794
8.19248e-05
0.0110617
7.63996e-05
0.0110451
7.13265e-05
0.0110296
6.66553e-05
0.0110152
6.23416e-05
0.0110016
5.83486e-05
0.0109889
5.46414e-05
0.0109771
5.11923e-05
0.0109659
4.79765e-05
0.0109555
4.49743e-05
0.0109457
4.21622e-05
0.0109365
3.95253e-05
0.0109279
3.70484e-05
0.0109199
3.47197e-05
0.0109123
3.25241e-05
0.0109052
3.04524e-05
0.0108986
2.84948e-05
0.0108924
2.66455e-05
0.0108866
2.48913e-05
0.0108811
2.32277e-05
0.0108761
2.16481e-05
0.0108713
2.01487e-05
0.0108669
1.87202e-05
0.0108629
1.736e-05
0.0108591
1.60632e-05
0.0108556
1.48286e-05
0.0108523
1.36473e-05
0.0108494
1.25187e-05
0.0108466
1.14391e-05
0.0108441
1.04077e-05
0.0108418
9.41834e-06
0.0108398
8.47087e-06
0.0108379
7.5619e-06
0.0108363
6.68975e-06
0.0108348
5.85204e-06
0.0108336
5.04761e-06
0.0108325
4.27306e-06
0.0108315
3.52642e-06
0.0108308
2.80801e-06
0.0108301
2.11656e-06
0.0108297
1.44841e-06
0.0108294
7.96509e-07
0.0108292
1.70978e-07
0.0108292
-4.34262e-07
0.0108293
-1.02194e-06
0.0108295
-1.59467e-06
0.0108298
-2.14606e-06
0.0108303
-2.67854e-06
0.0108309
-3.19615e-06
0.0108316
-3.70374e-06
0.0108323
-4.19025e-06
0.0108332
-4.66011e-06
0.0108342
-5.11745e-06
0.0108353
-5.55813e-06
0.0108365
-5.98573e-06
0.0108378
-6.39701e-06
0.0108392
-6.79565e-06
0.0108407
-7.16746e-06
0.0108422
-7.5361e-06
0.0108438
-7.88947e-06
0.0108455
-8.23022e-06
0.0108473
-8.54126e-06
0.0108491
-8.85237e-06
0.010851
-9.15072e-06
0.010853
-9.43649e-06
0.010855
-9.67345e-06
0.0108572
-9.92938e-06
0.0108593
-1.0174e-05
0.0108615
-1.04043e-05
0.0108638
-1.05982e-05
0.0108661
-1.08005e-05
0.0108685
-1.09961e-05
0.0108709
-1.11783e-05
0.0108734
-1.13119e-05
0.0108759
-1.14655e-05
0.0108785
-1.16139e-05
0.0108811
-1.17444e-05
0.0108837
-1.18511e-05
0.0108863
-1.19538e-05
0.010889
-1.20542e-05
0.0108918
-1.2137e-05
0.0108945
-1.22145e-05
0.0108973
-1.22663e-05
0.0109001
-1.23152e-05
0.0109029
-1.23403e-05
0.0109057
-1.23954e-05
0.0109085
-1.23875e-05
0.0109113
-1.23721e-05
0.0109142
-1.23327e-05
0.010917
-1.24316e-05
0.0109199
-1.23557e-05
0.0109227
-1.2269e-05
0.0109256
-1.21486e-05
0.0109284
-1.21956e-05
0.0109311
-1.18164e-05
0.0109339
-1.16653e-05
-5.78529e-06
0.0170157
0.00843801
0.0165448
0.00408431
0.0160001
0.0029205
0.0155424
0.00203134
0.0151931
0.00145547
0.0149266
0.00109326
0.0147179
0.000857873
0.0145497
0.000696631
0.0144107
0.000580626
0.0142935
0.000493826
0.0141929
0.000426763
0.0141054
0.000373541
0.0140285
0.000330355
0.0139602
0.000294664
0.0138991
0.00026471
0.0138441
0.000239239
0.0137943
0.000217335
0.013749
0.000198312
0.0137076
0.000181651
0.0136696
0.000166945
0.0136347
0.00015388
0.0136024
0.000142201
0.0135726
0.000131706
0.013545
0.000122228
0.0135193
0.00011363
0.0134954
0.000105799
0.0134732
9.86416e-05
0.0134524
9.20749e-05
0.0134331
8.60323e-05
0.013415
8.04558e-05
0.013398
7.52967e-05
0.0133821
7.05095e-05
0.0133673
6.60581e-05
0.0133533
6.19097e-05
0.0133403
5.8038e-05
0.013328
5.44136e-05
0.0133165
5.10163e-05
0.0133058
4.78264e-05
0.0132956
4.48282e-05
0.0132862
4.20025e-05
0.0132773
3.93372e-05
0.013269
3.68194e-05
0.0132612
3.44412e-05
0.0132539
3.21863e-05
0.013247
3.00486e-05
0.0132407
2.80192e-05
0.0132347
2.6093e-05
0.0132292
2.42587e-05
0.013224
2.25125e-05
0.0132193
2.08479e-05
0.0132148
1.92631e-05
0.0132107
1.77473e-05
0.0132069
1.62994e-05
0.0132035
1.49146e-05
0.0132003
1.35914e-05
0.0131974
1.23225e-05
0.0131947
1.11074e-05
0.0131924
9.94183e-06
0.0131902
8.8236e-06
0.0131883
7.74967e-06
0.0131867
6.71843e-06
0.0131852
5.72591e-06
0.013184
4.76965e-06
0.0131829
3.84967e-06
0.0131821
2.96432e-06
0.0131814
2.10944e-06
0.0131809
1.27714e-06
0.0131806
4.78289e-07
0.0131805
-2.94576e-07
0.0131805
-1.04468e-06
0.0131807
-1.7744e-06
0.013181
-2.47704e-06
0.0131815
-3.15549e-06
0.0131821
-3.81428e-06
0.0131829
-4.45886e-06
0.0131838
-5.07742e-06
0.0131848
-5.67502e-06
0.0131859
-6.25627e-06
0.0131872
-6.81682e-06
0.0131885
-7.36065e-06
0.01319
-7.88439e-06
0.0131916
-8.39226e-06
0.0131933
-8.86891e-06
0.0131951
-9.33997e-06
0.013197
-9.79243e-06
0.013199
-1.02294e-05
0.0132011
-1.06324e-05
0.0132033
-1.10336e-05
0.0132056
-1.1419e-05
0.0132079
-1.17893e-05
0.0132104
-1.2105e-05
0.0132129
-1.24393e-05
0.0132155
-1.27596e-05
0.0132181
-1.30628e-05
0.0132208
-1.33248e-05
0.0132236
-1.3594e-05
0.0132265
-1.38541e-05
0.0132294
-1.4098e-05
0.0132324
-1.42873e-05
0.0132354
-1.44965e-05
0.0132385
-1.46978e-05
0.0132416
-1.48779e-05
0.0132448
-1.50301e-05
0.013248
-1.51756e-05
0.0132513
-1.53165e-05
0.0132546
-1.5436e-05
0.0132579
-1.55468e-05
0.0132613
-1.56277e-05
0.0132647
-1.57031e-05
0.0132681
-1.57496e-05
0.0132715
-1.58255e-05
0.0132749
-1.58305e-05
0.0132784
-1.58251e-05
0.0132819
-1.57899e-05
0.0132853
-1.59008e-05
0.0132888
-1.58196e-05
0.0132922
-1.57253e-05
0.0132957
-1.55884e-05
0.0132991
-1.56307e-05
0.0133025
-1.51721e-05
0.0133058
-1.50001e-05
-7.47997e-06
0.0204181
0.00863699
0.020045
0.00445733
0.0195159
0.00344959
0.0190009
0.0025464
0.0185768
0.00187952
0.018242
0.00142811
0.0179759
0.00112395
0.0177603
0.000912208
0.017582
0.000758947
0.0174317
0.000644117
0.017303
0.000555475
0.0171913
0.00048526
0.0170932
0.000428414
0.0170063
0.000381545
0.0169288
0.000342298
0.016859
0.000308997
0.0167959
0.000280416
0.0167386
0.00025564
0.0166863
0.000233976
0.0166383
0.000214885
0.0165943
0.000197947
0.0165536
0.000182826
0.0165161
0.000169254
0.0164813
0.00015701
0.016449
0.000145914
0.016419
0.000135818
0.016391
0.000126598
0.016365
0.000118146
0.0163406
0.000110374
0.0163179
0.000103207
0.0162966
9.65804e-05
0.0162767
9.04356e-05
0.016258
8.4725e-05
0.0162405
7.9406e-05
0.0162241
7.44441e-05
0.0162087
6.98015e-05
0.0161943
6.54521e-05
0.0161807
6.13697e-05
0.016168
5.75341e-05
0.0161561
5.39207e-05
0.0161449
5.05139e-05
0.0161345
4.72968e-05
0.0161246
4.42584e-05
0.0161154
4.1379e-05
0.0161068
3.86501e-05
0.0160988
3.60603e-05
0.0160913
3.36025e-05
0.0160843
3.12629e-05
0.0160778
2.90362e-05
0.0160717
2.69142e-05
0.0160661
2.48937e-05
0.0160608
2.29622e-05
0.016056
2.11175e-05
0.0160516
1.93534e-05
0.0160475
1.76677e-05
0.0160438
1.60519e-05
0.0160404
1.45045e-05
0.0160373
1.30206e-05
0.0160345
1.15969e-05
0.0160321
1.02301e-05
0.0160299
8.9176e-06
0.0160279