/*--------------------------------*- C++ -*----------------------------------*\
  =========                 |
  \\      /  F ield         | OpenFOAM: The Open Source CFD Toolbox
   \\    /   O peration     | Website:  https://openfoam.org
    \\  /    A nd           | Version:  8
     \\/     M anipulation  |
\*---------------------------------------------------------------------------*/
FoamFile
{
    version     2.0;
    format      ascii;
    class       volVectorField;
    location    "850";
    object      U;
}
// * * * * * * * * * * * * * * * * * * * * * * * * * * * * * * * * * * * * * //

dimensions      [0 1 -1 0 0 0 0];

internalField   nonuniform List<vector> 
7320
(
(22.6429 -0.848127 0)
(20.2991 -0.0156863 0)
(19.4729 0.000192382 0)
(18.9932 0.000303714 0)
(18.6577 0.000223816 0)
(18.4025 0.000174268 0)
(18.1985 0.000141578 0)
(18.0298 0.000118314 0)
(17.8872 0.000100896 0)
(17.7644 8.73991e-05 0)
(17.6573 7.66564e-05 0)
(17.5629 6.7911e-05 0)
(17.4788 6.06606e-05 0)
(17.4034 5.4558e-05 0)
(17.3353 4.93565e-05 0)
(17.2736 4.48728e-05 0)
(17.2174 4.09715e-05 0)
(17.1659 3.75484e-05 0)
(17.1186 3.45248e-05 0)
(17.0751 3.1833e-05 0)
(17.035 2.94239e-05 0)
(16.9978 2.72565e-05 0)
(16.9633 2.52991e-05 0)
(16.9313 2.35203e-05 0)
(16.9015 2.1899e-05 0)
(16.8737 2.04155e-05 0)
(16.8478 1.90577e-05 0)
(16.8236 1.7804e-05 0)
(16.801 1.66463e-05 0)
(16.7798 1.55742e-05 0)
(16.76 1.45823e-05 0)
(16.7415 1.36565e-05 0)
(16.7241 1.27935e-05 0)
(16.7078 1.19869e-05 0)
(16.6926 1.1238e-05 0)
(16.6783 1.053e-05 0)
(16.6649 9.8652e-06 0)
(16.6523 9.23919e-06 0)
(16.6406 8.65432e-06 0)
(16.6296 8.09761e-06 0)
(16.6193 7.57198e-06 0)
(16.6097 7.07405e-06 0)
(16.6007 6.61085e-06 0)
(16.5923 6.16339e-06 0)
(16.5845 5.73904e-06 0)
(16.5772 5.33475e-06 0)
(16.5704 4.95672e-06 0)
(16.5641 4.59013e-06 0)
(16.5583 4.24156e-06 0)
(16.553 3.90802e-06 0)
(16.548 3.59967e-06 0)
(16.5435 3.29531e-06 0)
(16.5394 3.00541e-06 0)
(16.5356 2.72688e-06 0)
(16.5322 2.46786e-06 0)
(16.5291 2.21262e-06 0)
(16.5263 1.9697e-06 0)
(16.5239 1.73561e-06 0)
(16.5218 1.52059e-06 0)
(16.5199 1.30499e-06 0)
(16.5183 1.09948e-06 0)
(16.517 8.99978e-07 0)
(16.5159 7.13738e-07 0)
(16.5151 5.27608e-07 0)
(16.5146 3.49754e-07 0)
(16.5142 1.75028e-07 0)
(16.5141 1.16705e-08 0)
(16.5142 -1.55378e-07 0)
(16.5145 -3.15459e-07 0)
(16.515 -4.75826e-07 0)
(16.5157 -6.25826e-07 0)
(16.5166 -7.81866e-07 0)
(16.5177 -9.3059e-07 0)
(16.519 -1.08133e-06 0)
(16.5205 -1.21453e-06 0)
(16.5222 -1.36185e-06 0)
(16.5241 -1.50018e-06 0)
(16.5261 -1.64341e-06 0)
(16.5283 -1.7614e-06 0)
(16.5307 -1.89868e-06 0)
(16.5332 -2.02291e-06 0)
(16.5359 -2.15119e-06 0)
(16.5388 -2.2354e-06 0)
(16.5418 -2.35355e-06 0)
(16.5449 -2.45748e-06 0)
(16.5482 -2.56689e-06 0)
(16.5515 -2.63119e-06 0)
(16.555 -2.72613e-06 0)
(16.5586 -2.80555e-06 0)
(16.5623 -2.88625e-06 0)
(16.566 -2.91364e-06 0)
(16.5699 -2.97558e-06 0)
(16.5738 -3.02672e-06 0)
(16.5778 -3.07461e-06 0)
(16.5818 -3.0957e-06 0)
(16.5858 -3.1234e-06 0)
(16.5899 -3.14746e-06 0)
(16.5941 -3.15904e-06 0)
(16.5982 -3.18237e-06 0)
(16.6023 -3.17276e-06 0)
(16.6065 -3.16926e-06 0)
(16.6106 -3.13653e-06 0)
(16.6148 -3.1657e-06 0)
(16.6189 -3.11306e-06 0)
(16.623 -3.08413e-06 0)
(16.6271 -3.01388e-06 0)
(16.6311 -3.10838e-06 0)
(16.6351 -3.02198e-06 0)
(16.6391 -2.96888e-06 0)
(16.643 -2.84833e-06 0)
(16.6469 -2.93136e-06 0)
(16.6507 -2.79811e-06 0)
(16.6544 -2.71924e-06 0)
(16.6581 -2.57105e-06 0)
(16.6617 -2.76616e-06 0)
(16.6653 -2.6113e-06 0)
(16.6688 -2.51602e-06 0)
(16.6722 -2.32891e-06 0)
(16.6756 -2.40833e-06 0)
(16.6788 -2.19139e-06 0)
(16.6819 -2.05251e-06 0)
(16.6851 -9.75253e-07 0)
(26.6037 0.16714 0)
(23.9491 0.00743101 0)
(22.9106 0.00132356 0)
(22.324 0.000761372 0)
(21.922 0.000547532 0)
(21.6197 0.000424674 0)
(21.3794 0.000344311 0)
(21.1815 0.000287382 0)
(21.0145 0.000244877 0)
(20.8711 0.000212001 0)
(20.7461 0.000185867 0)
(20.636 0.000164613 0)
(20.5381 0.000147005 0)
(20.4503 0.000132194 0)
(20.3712 0.000119574 0)
(20.2994 0.0001087 0)
(20.2341 9.92417e-05 0)
(20.1743 9.09447e-05 0)
(20.1194 8.36153e-05 0)
(20.0688 7.70932e-05 0)
(20.0222 7.12573e-05 0)
(19.979 6.60076e-05 0)
(19.939 6.1265e-05 0)
(19.9018 5.69575e-05 0)
(19.8672 5.30315e-05 0)
(19.835 4.94401e-05 0)
(19.8049 4.61488e-05 0)
(19.7769 4.31139e-05 0)
(19.7506 4.03117e-05 0)
(19.7261 3.77173e-05 0)
(19.7031 3.53134e-05 0)
(19.6816 3.30734e-05 0)
(19.6615 3.09851e-05 0)
(19.6426 2.9034e-05 0)
(19.6249 2.72156e-05 0)
(19.6083 2.55034e-05 0)
(19.5927 2.38953e-05 0)
(19.5782 2.2382e-05 0)
(19.5645 2.09624e-05 0)
(19.5518 1.96169e-05 0)
(19.5398 1.8346e-05 0)
(19.5286 1.71432e-05 0)
(19.5182 1.60144e-05 0)
(19.5085 1.49337e-05 0)
(19.4994 1.39082e-05 0)
(19.4909 1.29325e-05 0)
(19.4831 1.20125e-05 0)
(19.4758 1.11281e-05 0)
(19.469 1.02862e-05 0)
(19.4628 9.48203e-06 0)
(19.457 8.72677e-06 0)
(19.4518 7.99306e-06 0)
(19.447 7.29302e-06 0)
(19.4426 6.6221e-06 0)
(19.4386 5.98927e-06 0)
(19.435 5.37439e-06 0)
(19.4318 4.78739e-06 0)
(19.4289 4.22316e-06 0)
(19.4264 3.69311e-06 0)
(19.4242 3.17308e-06 0)
(19.4224 2.67555e-06 0)
(19.4208 2.19423e-06 0)
(19.4196 1.73715e-06 0)
(19.4186 1.28823e-06 0)
(19.4179 8.57243e-07 0)
(19.4175 4.36016e-07 0)
(19.4173 3.25324e-08 0)
(19.4174 -3.68479e-07 0)
(19.4177 -7.54994e-07 0)
(19.4183 -1.13803e-06 0)
(19.4191 -1.50551e-06 0)
(19.4202 -1.87495e-06 0)
(19.4214 -2.23049e-06 0)
(19.4229 -2.58507e-06 0)
(19.4246 -2.91708e-06 0)
(19.4265 -3.25948e-06 0)
(19.4286 -3.58578e-06 0)
(19.4309 -3.91366e-06 0)
(19.4335 -4.20737e-06 0)
(19.4361 -4.51812e-06 0)
(19.439 -4.80752e-06 0)
(19.4421 -5.09547e-06 0)
(19.4453 -5.32319e-06 0)
(19.4486 -5.587e-06 0)
(19.4521 -5.82751e-06 0)
(19.4558 -6.06665e-06 0)
(19.4596 -6.24253e-06 0)
(19.4635 -6.45059e-06 0)
(19.4675 -6.63484e-06 0)
(19.4716 -6.81158e-06 0)
(19.4759 -6.90878e-06 0)
(19.4802 -7.04897e-06 0)
(19.4846 -7.17175e-06 0)
(19.489 -7.28121e-06 0)
(19.4936 -7.34603e-06 0)
(19.4981 -7.41774e-06 0)
(19.5027 -7.48279e-06 0)
(19.5074 -7.5245e-06 0)
(19.5121 -7.56336e-06 0)
(19.5168 -7.56626e-06 0)
(19.5215 -7.57603e-06 0)
(19.5262 -7.54284e-06 0)
(19.5309 -7.57383e-06 0)
(19.5357 -7.50482e-06 0)
(19.5404 -7.46467e-06 0)
(19.5451 -7.37027e-06 0)
(19.5498 -7.46536e-06 0)
(19.5544 -7.33813e-06 0)
(19.559 -7.25201e-06 0)
(19.5636 -7.0829e-06 0)
(19.5682 -7.15593e-06 0)
(19.5727 -6.96057e-06 0)
(19.5772 -6.8253e-06 0)
(19.5816 -6.61386e-06 0)
(19.586 -6.82949e-06 0)
(19.5903 -6.59751e-06 0)
(19.5946 -6.42523e-06 0)
(19.5988 -6.1594e-06 0)
(19.6029 -6.22585e-06 0)
(19.607 -5.84777e-06 0)
(19.6109 -5.58215e-06 0)
(19.6149 -2.71429e-06 0)
(28.9497 0.0984766 0)
(26.1304 0.00639105 0)
(24.9213 0.0023381 0)
(24.2467 0.00142135 0)
(23.7932 0.00101462 0)
(23.4561 0.000782731 0)
(23.1903 0.000632596 0)
(22.9724 0.000526943 0)
(22.7892 0.000448391 0)
(22.6322 0.000387806 0)
(22.4957 0.000339745 0)
(22.3756 0.000300722 0)
(22.2689 0.000268432 0)
(22.1734 0.000241297 0)
(22.0873 0.000218195 0)
(22.0093 0.000198303 0)
(21.9383 0.00018101 0)
(21.8733 0.000165848 0)
(21.8137 0.000152458 0)
(21.7589 0.000140548 0)
(21.7083 0.000129895 0)
(21.6615 0.000120315 0)
(21.6181 0.000111661 0)
(21.5778 0.000103804 0)
(21.5403 9.6644e-05 0)
(21.5054 9.00958e-05 0)
(21.4728 8.40931e-05 0)
(21.4424 7.85615e-05 0)
(21.414 7.34548e-05 0)
(21.3874 6.87274e-05 0)
(21.3625 6.43457e-05 0)
(21.3392 6.02651e-05 0)
(21.3174 5.64614e-05 0)
(21.2969 5.29082e-05 0)
(21.2777 4.95929e-05 0)
(21.2598 4.64751e-05 0)
(21.2429 4.35474e-05 0)
(21.2272 4.07927e-05 0)
(21.2124 3.82056e-05 0)
(21.1985 3.57568e-05 0)
(21.1856 3.34439e-05 0)
(21.1735 3.12552e-05 0)
(21.1621 2.91961e-05 0)
(21.1516 2.723e-05 0)
(21.1417 2.53643e-05 0)
(21.1326 2.35899e-05 0)
(21.124 2.19126e-05 0)
(21.1161 2.03047e-05 0)
(21.1088 1.87735e-05 0)
(21.102 1.73116e-05 0)
(21.0958 1.59322e-05 0)
(21.09 1.45987e-05 0)
(21.0848 1.33257e-05 0)
(21.08 1.21063e-05 0)
(21.0756 1.09514e-05 0)
(21.0717 9.83379e-06 0)
(21.0682 8.76565e-06 0)
(21.0651 7.7394e-06 0)
(21.0623 6.76922e-06 0)
(21.06 5.82295e-06 0)
(21.0579 4.91616e-06 0)
(21.0562 4.03973e-06 0)
(21.0548 3.20368e-06 0)
(21.0537 2.3864e-06 0)
(21.0529 1.60016e-06 0)
(21.0525 8.33483e-07 0)
(21.0522 9.59141e-08 0)
(21.0523 -6.32039e-07 0)
(21.0526 -1.3352e-06 0)
(21.0532 -2.02834e-06 0)
(21.0541 -2.69609e-06 0)
(21.0551 -3.36069e-06 0)
(21.0565 -4.00195e-06 0)
(21.058 -4.63692e-06 0)
(21.0598 -5.23804e-06 0)
(21.0618 -5.84623e-06 0)
(21.064 -6.4281e-06 0)
(21.0664 -7.00649e-06 0)
(21.0691 -7.53517e-06 0)
(21.0719 -8.07933e-06 0)
(21.0749 -8.58992e-06 0)
(21.0781 -9.09242e-06 0)
(21.0814 -9.51045e-06 0)
(21.0849 -9.96872e-06 0)
(21.0886 -1.03907e-05 0)
(21.0924 -1.08043e-05 0)
(21.0964 -1.11292e-05 0)
(21.1005 -1.14897e-05 0)
(21.1047 -1.18139e-05 0)
(21.109 -1.21224e-05 0)
(21.1134 -1.23193e-05 0)
(21.118 -1.25685e-05 0)
(21.1226 -1.27903e-05 0)
(21.1272 -1.29893e-05 0)
(21.132 -1.31233e-05 0)
(21.1368 -1.32633e-05 0)
(21.1417 -1.3391e-05 0)
(21.1466 -1.34849e-05 0)
(21.1516 -1.35654e-05 0)
(21.1566 -1.35995e-05 0)
(21.1616 -1.36402e-05 0)
(21.1667 -1.36224e-05 0)
(21.1717 -1.36798e-05 0)
(21.1768 -1.36075e-05 0)
(21.1819 -1.35711e-05 0)
(21.187 -1.34629e-05 0)
(21.1921 -1.35903e-05 0)
(21.1971 -1.34307e-05 0)
(21.2022 -1.33238e-05 0)
(21.2073 -1.31087e-05 0)
(21.2123 -1.31999e-05 0)
(21.2173 -1.29431e-05 0)
(21.2223 -1.27621e-05 0)
(21.2273 -1.24832e-05 0)
(21.2322 -1.27537e-05 0)
(21.2371 -1.24396e-05 0)
(21.2419 -1.22003e-05 0)
(21.2467 -1.18413e-05 0)
(21.2515 -1.19155e-05 0)
(21.2562 -1.13311e-05 0)
(21.2607 -1.09719e-05 0)
(21.2654 -5.42118e-06 0)
(30.6449 0.0459572 0)
(27.8131 0.00831863 0)
(26.4561 0.00392316 0)
(25.6943 0.00237911 0)
(25.1892 0.00168082 0)
(24.8184 0.00128804 0)
(24.5284 0.00103664 0)
(24.2922 0.000861125 0)
(24.0944 0.000731342 0)
(23.9254 0.000631623 0)
(23.7788 0.000552742 0)
(23.6501 0.000488835 0)
(23.5359 0.000436047 0)
(23.4338 0.000391748 0)
(23.3419 0.000354076 0)
(23.2586 0.00032167 0)
(23.1829 0.000293521 0)
(23.1137 0.000268859 0)
(23.0503 0.000247091 0)
(22.9919 0.000227742 0)
(22.9381 0.000210442 0)
(22.8883 0.000194891 0)
(22.8421 0.000180848 0)
(22.7993 0.000168104 0)
(22.7594 0.000156495 0)
(22.7223 0.00014588 0)
(22.6877 0.000136149 0)
(22.6554 0.000127187 0)
(22.6252 0.000118915 0)
(22.597 0.000111259 0)
(22.5705 0.000104162 0)
(22.5458 9.75563e-05 0)
(22.5226 9.13999e-05 0)
(22.5009 8.56497e-05 0)
(22.4805 8.02813e-05 0)
(22.4614 7.52375e-05 0)
(22.4435 7.05016e-05 0)
(22.4268 6.60465e-05 0)
(22.4111 6.18596e-05 0)
(22.3964 5.79004e-05 0)
(22.3826 5.41611e-05 0)
(22.3697 5.06232e-05 0)
(22.3577 4.72893e-05 0)
(22.3465 4.41121e-05 0)
(22.336 4.10972e-05 0)
(22.3262 3.82305e-05 0)
(22.3171 3.55165e-05 0)
(22.3087 3.29195e-05 0)
(22.3009 3.0446e-05 0)
(22.2937 2.80851e-05 0)
(22.287 2.58511e-05 0)
(22.2809 2.36979e-05 0)
(22.2753 2.16419e-05 0)
(22.2702 1.9673e-05 0)
(22.2655 1.78033e-05 0)
(22.2613 1.59985e-05 0)
(22.2575 1.42724e-05 0)
(22.2542 1.26144e-05 0)
(22.2512 1.10408e-05 0)
(22.2487 9.51161e-06 0)
(22.2464 8.04465e-06 0)
(22.2446 6.62788e-06 0)
(22.2431 5.27279e-06 0)
(22.2419 3.95217e-06 0)
(22.241 2.6802e-06 0)
(22.2404 1.44219e-06 0)
(22.2401 2.48885e-07 0)
(22.2402 -9.24032e-07 0)
(22.2404 -2.05813e-06 0)
(22.241 -3.1713e-06 0)
(22.2418 -4.24544e-06 0)
(22.2429 -5.30762e-06 0)
(22.2442 -6.3338e-06 0)
(22.2458 -7.34459e-06 0)
(22.2476 -8.3069e-06 0)
(22.2497 -9.2693e-06 0)
(22.2519 -1.01921e-05 0)
(22.2544 -1.11027e-05 0)
(22.2571 -1.19455e-05 0)
(22.2599 -1.27981e-05 0)
(22.263 -1.36022e-05 0)
(22.2663 -1.43882e-05 0)
(22.2697 -1.50645e-05 0)
(22.2733 -1.57798e-05 0)
(22.277 -1.64435e-05 0)
(22.281 -1.70888e-05 0)
(22.285 -1.76197e-05 0)
(22.2892 -1.81846e-05 0)
(22.2935 -1.86984e-05 0)
(22.2979 -1.91864e-05 0)
(22.3025 -1.95325e-05 0)
(22.3071 -1.99337e-05 0)
(22.3119 -2.02957e-05 0)
(22.3167 -2.06245e-05 0)
(22.3216 -2.0868e-05 0)
(22.3266 -2.11127e-05 0)
(22.3317 -2.13379e-05 0)
(22.3368 -2.15183e-05 0)
(22.342 -2.16744e-05 0)
(22.3472 -2.1771e-05 0)
(22.3525 -2.18723e-05 0)
(22.3578 -2.19e-05 0)
(22.3631 -2.20101e-05 0)
(22.3685 -2.19623e-05 0)
(22.3739 -2.19545e-05 0)
(22.3793 -2.18589e-05 0)
(22.3847 -2.20348e-05 0)
(22.3902 -2.1866e-05 0)
(22.3956 -2.17587e-05 0)
(22.4011 -2.152e-05 0)
(22.4065 -2.16385e-05 0)
(22.412 -2.13393e-05 0)
(22.4174 -2.11283e-05 0)
(22.4228 -2.07984e-05 0)
(22.4282 -2.11168e-05 0)
(22.4336 -2.07335e-05 0)
(22.4389 -2.04375e-05 0)
(22.4442 -1.99941e-05 0)
(22.4495 -2.00675e-05 0)
(22.4548 -1.92404e-05 0)
(22.4598 -1.88106e-05 0)
(22.465 -9.40254e-06 0)
(31.9342 0.0469922 0)
(29.2283 0.0125097 0)
(27.7543 0.00606046 0)
(26.9065 0.00365719 0)
(26.348 0.00255943 0)
(25.9421 0.00194753 0)
(25.6273 0.00155994 0)
(25.3724 0.00129159 0)
(25.1601 0.00109437 0)
(24.9793 0.000943508 0)
(24.8229 0.000824568 0)
(24.6858 0.000728459 0)
(24.5645 0.00064924 0)
(24.4562 0.000582872 0)
(24.3587 0.000526513 0)
(24.2706 0.000478092 0)
(24.1905 0.000436073 0)
(24.1174 0.000399291 0)
(24.0504 0.00036685 0)
(23.9888 0.000338033 0)
(23.9319 0.000312285 0)
(23.8794 0.000289152 0)
(23.8308 0.000268271 0)
(23.7856 0.00024933 0)
(23.7436 0.000232084 0)
(23.7045 0.00021632 0)
(23.6681 0.000201871 0)
(23.634 0.00018857 0)
(23.6022 0.000176296 0)
(23.5725 0.00016494 0)
(23.5447 0.000154414 0)
(23.5186 0.00014462 0)
(23.4942 0.000135494 0)
(23.4713 0.000126972 0)
(23.4499 0.000119013 0)
(23.4298 0.000111541 0)
(23.411 0.000104526 0)
(23.3933 9.79283e-05 0)
(23.3768 9.17256e-05 0)
(23.3613 8.5864e-05 0)
(23.3468 8.03286e-05 0)
(23.3332 7.50922e-05 0)
(23.3205 7.01531e-05 0)
(23.3087 6.54519e-05 0)
(23.2976 6.09911e-05 0)
(23.2873 5.67505e-05 0)
(23.2777 5.27321e-05 0)
(23.2688 4.88913e-05 0)
(23.2606 4.52333e-05 0)
(23.2529 4.17422e-05 0)
(23.2459 3.84328e-05 0)
(23.2394 3.52494e-05 0)
(23.2334 3.22092e-05 0)
(23.228 2.92983e-05 0)
(23.2231 2.65294e-05 0)
(23.2186 2.38608e-05 0)
(23.2146 2.13074e-05 0)
(23.211 1.8855e-05 0)
(23.2078 1.65216e-05 0)
(23.2051 1.42594e-05 0)
(23.2027 1.20881e-05 0)
(23.2007 9.99224e-06 0)
(23.199 7.98433e-06 0)
(23.1977 6.03195e-06 0)
(23.1967 4.15055e-06 0)
(23.196 2.32229e-06 0)
(23.1957 5.58248e-07 0)
(23.1956 -1.17018e-06 0)
(23.1958 -2.84204e-06 0)
(23.1964 -4.47749e-06 0)
(23.1972 -6.05681e-06 0)
(23.1982 -7.61083e-06 0)
(23.1995 -9.11278e-06 0)
(23.2011 -1.05865e-05 0)
(23.2029 -1.19946e-05 0)
(23.2049 -1.33915e-05 0)
(23.2072 -1.47328e-05 0)
(23.2097 -1.60498e-05 0)
(23.2123 -1.72793e-05 0)
(23.2152 -1.8509e-05 0)
(23.2183 -1.9673e-05 0)
(23.2216 -2.08066e-05 0)
(23.2251 -2.18047e-05 0)
(23.2287 -2.2837e-05 0)
(23.2325 -2.38001e-05 0)
(23.2365 -2.47336e-05 0)
(23.2406 -2.55264e-05 0)
(23.2448 -2.63489e-05 0)
(23.2492 -2.7104e-05 0)
(23.2537 -2.78225e-05 0)
(23.2584 -2.83688e-05 0)
(23.2631 -2.89705e-05 0)
(23.268 -2.95199e-05 0)
(23.2729 -3.00253e-05 0)
(23.278 -3.04245e-05 0)
(23.2831 -3.08188e-05 0)
(23.2883 -3.11847e-05 0)
(23.2936 -3.14954e-05 0)
(23.2989 -3.17684e-05 0)
(23.3044 -3.1969e-05 0)
(23.3098 -3.21706e-05 0)
(23.3154 -3.22839e-05 0)
(23.321 -3.2483e-05 0)
(23.3266 -3.24972e-05 0)
(23.3323 -3.25537e-05 0)
(23.338 -3.25058e-05 0)
(23.3437 -3.27575e-05 0)
(23.3495 -3.26116e-05 0)
(23.3552 -3.2534e-05 0)
(23.361 -3.23002e-05 0)
(23.3668 -3.24662e-05 0)
(23.3726 -3.21492e-05 0)
(23.3785 -3.19312e-05 0)
(23.3843 -3.15697e-05 0)
(23.3901 -3.19414e-05 0)
(23.3959 -3.15034e-05 0)
(23.4016 -3.11652e-05 0)
(23.4074 -3.06451e-05 0)
(23.4131 -3.07173e-05 0)
(23.4188 -2.961e-05 0)
(23.4243 -2.9134e-05 0)
(23.43 -1.46681e-05 0)
(32.9266 0.0603716 0)
(30.4695 0.0174492 0)
(28.9196 0.00880608 0)
(27.99 0.00533476 0)
(27.3757 0.00370685 0)
(26.9322 0.00280127 0)
(26.5909 0.00223228 0)
(26.3162 0.00184148 0)
(26.0885 0.00155608 0)
(25.8954 0.00133882 0)
(25.7288 0.00116818 0)
(25.5832 0.00103072 0)
(25.4546 0.000917684 0)
(25.3399 0.000823178 0)
(25.2369 0.000743059 0)
(25.1439 0.000674321 0)
(25.0594 0.000614746 0)
(24.9824 0.00056265 0)
(24.9118 0.000516743 0)
(24.847 0.000476 0)
(24.7873 0.000439621 0)
(24.7321 0.000406959 0)
(24.6809 0.000377491 0)
(24.6335 0.000350777 0)
(24.5894 0.000326464 0)
(24.5484 0.000304251 0)
(24.5101 0.000283897 0)
(24.4744 0.000265168 0)
(24.4411 0.000247893 0)
(24.4099 0.000231913 0)
(24.3807 0.000217104 0)
(24.3534 0.00020333 0)
(24.3278 0.0001905 0)
(24.3038 0.000178522 0)
(24.2813 0.000167334 0)
(24.2602 0.000156835 0)
(24.2405 0.000146981 0)
(24.2219 0.000137715 0)
(24.2046 0.000129003 0)
(24.1883 0.000120774 0)
(24.1731 0.000113004 0)
(24.1588 0.000105655 0)
(24.1455 9.87186e-05 0)
(24.1331 9.21226e-05 0)
(24.1215 8.58647e-05 0)
(24.1106 7.99169e-05 0)
(24.1005 7.42774e-05 0)
(24.0912 6.88917e-05 0)
(24.0825 6.37625e-05 0)
(24.0744 5.88681e-05 0)
(24.067 5.42226e-05 0)
(24.0601 4.97602e-05 0)
(24.0538 4.54981e-05 0)
(24.0481 4.14179e-05 0)
(24.0429 3.7532e-05 0)
(24.0381 3.37912e-05 0)
(24.0338 3.02106e-05 0)
(24.03 2.67722e-05 0)
(24.0266 2.34946e-05 0)
(24.0237 2.03227e-05 0)
(24.0211 1.72771e-05 0)
(24.0189 1.43391e-05 0)
(24.0171 1.15213e-05 0)
(24.0156 8.78632e-06 0)
(24.0145 6.15046e-06 0)
(24.0137 3.59257e-06 0)
(24.0133 1.12366e-06 0)
(24.0131 -1.28945e-06 0)
(24.0133 -3.62393e-06 0)
(24.0137 -5.90135e-06 0)
(24.0144 -8.10103e-06 0)
(24.0154 -1.02572e-05 0)
(24.0167 -1.23411e-05 0)
(24.0182 -1.43797e-05 0)
(24.02 -1.63324e-05 0)
(24.022 -1.82584e-05 0)
(24.0242 -2.01093e-05 0)
(24.0267 -2.19207e-05 0)
(24.0294 -2.36223e-05 0)
(24.0323 -2.53115e-05 0)
(24.0354 -2.69149e-05 0)
(24.0387 -2.84736e-05 0)
(24.0421 -2.98694e-05 0)
(24.0458 -3.12914e-05 0)
(24.0496 -3.26251e-05 0)
(24.0536 -3.39161e-05 0)
(24.0577 -3.50392e-05 0)
(24.062 -3.61853e-05 0)
(24.0665 -3.72464e-05 0)
(24.071 -3.82591e-05 0)
(24.0758 -3.90686e-05 0)
(24.0806 -3.99315e-05 0)
(24.0855 -4.07277e-05 0)
(24.0906 -4.14684e-05 0)
(24.0957 -4.20808e-05 0)
(24.101 -4.26808e-05 0)
(24.1063 -4.32421e-05 0)
(24.1118 -4.37371e-05 0)
(24.1173 -4.41786e-05 0)
(24.1229 -4.45341e-05 0)
(24.1286 -4.48854e-05 0)
(24.1343 -4.51328e-05 0)
(24.1401 -4.54655e-05 0)
(24.146 -4.55865e-05 0)
(24.1519 -4.57498e-05 0)
(24.1578 -4.57906e-05 0)
(24.1638 -4.61525e-05 0)
(24.1698 -4.60657e-05 0)
(24.1759 -4.60515e-05 0)
(24.182 -4.5854e-05 0)
(24.1881 -4.60916e-05 0)
(24.1942 -4.57823e-05 0)
(24.2004 -4.55798e-05 0)
(24.2065 -4.52051e-05 0)
(24.2127 -4.56385e-05 0)
(24.2188 -4.51577e-05 0)
(24.2249 -4.47867e-05 0)
(24.231 -4.41926e-05 0)
(24.2371 -4.42607e-05 0)
(24.2432 -4.28252e-05 0)
(24.249 -4.23141e-05 0)
(24.2551 -2.14044e-05 0)
(33.6709 0.0694784 0)
(31.5724 0.022704 0)
(30.0008 0.0122434 0)
(28.9993 0.00751392 0)
(28.3282 0.00520147 0)
(27.8445 0.00390707 0)
(27.4742 0.00309742 0)
(27.1779 0.00254504 0)
(26.9335 0.00214414 0)
(26.727 0.00184049 0)
(26.5495 0.00160296 0)
(26.3948 0.00141225 0)
(26.2583 0.00125586 0)
(26.137 0.00112541 0)
(26.0282 0.00101502 0)
(25.93 0.00092048 0)
(25.841 0.000838653 0)
(25.7598 0.000767187 0)
(25.6856 0.000704278 0)
(25.6174 0.000648501 0)
(25.5547 0.00059874 0)
(25.4967 0.000554097 0)
(25.443 0.000513847 0)
(25.3933 0.000477382 0)
(25.347 0.000444213 0)
(25.304 0.000413924 0)
(25.2639 0.000386182 0)
(25.2265 0.000360667 0)
(25.1916 0.000337143 0)
(25.1589 0.000315391 0)
(25.1283 0.000295237 0)
(25.0997 0.000276501 0)
(25.0729 0.000259053 0)
(25.0477 0.000242768 0)
(25.0242 0.000227558 0)
(25.0021 0.000213293 0)
(24.9814 0.000199906 0)
(24.962 0.000187322 0)
(24.9438 0.000175488 0)
(24.9268 0.000164316 0)
(24.9108 0.00015377 0)
(24.8959 0.000143797 0)
(24.8819 0.00013438 0)
(24.8688 0.000125432 0)
(24.8566 0.000116944 0)
(24.8452 0.000108878 0)
(24.8346 0.000101227 0)
(24.8248 9.39257e-05 0)
(24.8156 8.69724e-05 0)
(24.8072 8.03384e-05 0)
(24.7993 7.4036e-05 0)
(24.7921 6.79886e-05 0)
(24.7854 6.22124e-05 0)
(24.7793 5.66833e-05 0)
(24.7738 5.14129e-05 0)
(24.7688 4.63438e-05 0)
(24.7642 4.14906e-05 0)
(24.7601 3.68308e-05 0)
(24.7565 3.2383e-05 0)
(24.7533 2.80846e-05 0)
(24.7505 2.39568e-05 0)
(24.7481 1.99766e-05 0)
(24.7462 1.61567e-05 0)
(24.7445 1.24547e-05 0)
(24.7433 8.88696e-06 0)
(24.7423 5.42904e-06 0)
(24.7418 2.09145e-06 0)
(24.7415 -1.16404e-06 0)
(24.7415 -4.31382e-06 0)
(24.7419 -7.3799e-06 0)
(24.7425 -1.03411e-05 0)
(24.7434 -1.3235e-05 0)
(24.7446 -1.60315e-05 0)
(24.7461 -1.87606e-05 0)
(24.7478 -2.13795e-05 0)
(24.7498 -2.39517e-05 0)
(24.752 -2.64256e-05 0)
(24.7544 -2.88409e-05 0)
(24.757 -3.11211e-05 0)
(24.7599 -3.33726e-05 0)
(24.763 -3.55156e-05 0)
(24.7663 -3.75967e-05 0)
(24.7697 -3.94852e-05 0)
(24.7734 -4.13892e-05 0)
(24.7772 -4.31835e-05 0)
(24.7812 -4.49201e-05 0)
(24.7854 -4.64594e-05 0)
(24.7897 -4.80131e-05 0)
(24.7942 -4.9462e-05 0)
(24.7988 -5.08494e-05 0)
(24.8036 -5.20006e-05 0)
(24.8085 -5.32015e-05 0)
(24.8135 -5.43192e-05 0)
(24.8186 -5.53688e-05 0)
(24.8239 -5.62652e-05 0)
(24.8293 -5.71406e-05 0)
(24.8347 -5.79645e-05 0)
(24.8403 -5.87097e-05 0)
(24.846 -5.93821e-05 0)
(24.8517 -5.99541e-05 0)
(24.8576 -6.0514e-05 0)
(24.8635 -6.09527e-05 0)
(24.8695 -6.14719e-05 0)
(24.8755 -6.17516e-05 0)
(24.8816 -6.20704e-05 0)
(24.8878 -6.22458e-05 0)
(24.894 -6.27577e-05 0)
(24.9003 -6.27696e-05 0)
(24.9066 -6.28551e-05 0)
(24.9129 -6.27261e-05 0)
(24.9193 -6.30616e-05 0)
(24.9257 -6.27843e-05 0)
(24.9321 -6.26186e-05 0)
(24.9385 -6.22458e-05 0)
(24.9449 -6.27492e-05 0)
(24.9514 -6.22315e-05 0)
(24.9578 -6.18322e-05 0)
(24.9642 -6.11588e-05 0)
(24.9705 -6.12152e-05 0)
(24.9769 -5.93864e-05 0)
(24.983 -5.88443e-05 0)
(24.9894 -2.98723e-05 0)
(34.1947 0.0755308 0)
(32.5411 0.0282332 0)
(31.0182 0.016421 0)
(29.9639 0.010304 0)
(29.2379 0.00713878 0)
(28.712 0.00533866 0)
(28.3102 0.00421211 0)
(27.9902 0.00344701 0)
(27.7273 0.0028947 0)
(27.5061 0.0024784 0)
(27.3165 0.00215411 0)
(27.1518 0.00189464 0)
(27.0068 0.00168252 0)
(26.8782 0.00150601 0)
(26.763 0.00135699 0)
(26.6593 0.00122958 0)
(26.5653 0.00111949 0)
(26.4798 0.00102348 0)
(26.4016 0.000939062 0)
(26.3299 0.000864301 0)
(26.2639 0.00079767 0)
(26.203 0.000737945 0)
(26.1466 0.00068414 0)
(26.0944 0.00063543 0)
(26.0459 0.000591152 0)
(26.0007 0.000550744 0)
(25.9587 0.00051375 0)
(25.9194 0.000479748 0)
(25.8828 0.000448412 0)
(25.8486 0.00041945 0)
(25.8165 0.000392625 0)
(25.7865 0.000367698 0)
(25.7584 0.000344494 0)
(25.7321 0.000322843 0)
(25.7074 0.000302625 0)
(25.6843 0.000283671 0)
(25.6626 0.00026589 0)
(25.6423 0.000249178 0)
(25.6232 0.000233464 0)
(25.6053 0.000218636 0)
(25.5886 0.000204641 0)
(25.5729 0.00019141 0)
(25.5582 0.000178914 0)
(25.5445 0.000167048 0)
(25.5317 0.000155793 0)
(25.5197 0.000145101 0)
(25.5086 0.000134956 0)
(25.4982 0.00012528 0)
(25.4886 0.000116066 0)
(25.4796 0.000107278 0)
(25.4713 9.89223e-05 0)
(25.4637 9.09122e-05 0)
(25.4567 8.32614e-05 0)
(25.4502 7.59388e-05 0)
(25.4443 6.89541e-05 0)
(25.4389 6.2241e-05 0)
(25.4341 5.58131e-05 0)
(25.4297 4.96421e-05 0)
(25.4258 4.37463e-05 0)
(25.4224 3.80547e-05 0)
(25.4194 3.25887e-05 0)
(25.4168 2.73206e-05 0)
(25.4146 2.22627e-05 0)
(25.4128 1.73669e-05 0)
(25.4113 1.26495e-05 0)
(25.4102 8.08221e-06 0)
(25.4095 3.67487e-06 0)
(25.4091 -6.16364e-07 0)
(25.409 -4.76866e-06 0)
(25.4092 -8.80413e-06 0)
(25.4097 -1.27008e-05 0)
(25.4106 -1.64996e-05 0)
(25.4117 -2.01699e-05 0)
(25.413 -2.37451e-05 0)
(25.4147 -2.71806e-05 0)
(25.4165 -3.05443e-05 0)
(25.4187 -3.37818e-05 0)
(25.421 -3.69375e-05 0)
(25.4236 -3.99288e-05 0)
(25.4265 -4.28714e-05 0)
(25.4295 -4.56791e-05 0)
(25.4327 -4.84045e-05 0)
(25.4362 -5.09045e-05 0)
(25.4398 -5.34066e-05 0)
(25.4437 -5.57742e-05 0)
(25.4477 -5.80668e-05 0)
(25.4518 -6.01301e-05 0)
(25.4562 -6.21968e-05 0)
(25.4607 -6.41358e-05 0)
(25.4653 -6.59984e-05 0)
(25.4702 -6.75888e-05 0)
(25.4751 -6.92232e-05 0)
(25.4802 -7.07548e-05 0)
(25.4854 -7.22038e-05 0)
(25.4907 -7.34715e-05 0)
(25.4962 -7.47074e-05 0)
(25.5018 -7.58758e-05 0)
(25.5075 -7.69509e-05 0)
(25.5132 -7.79296e-05 0)
(25.5191 -7.87916e-05 0)
(25.5251 -7.96304e-05 0)
(25.5312 -8.03276e-05 0)
(25.5373 -8.10955e-05 0)
(25.5435 -8.15938e-05 0)
(25.5498 -8.21242e-05 0)
(25.5562 -8.24862e-05 0)
(25.5626 -8.31937e-05 0)
(25.569 -8.33478e-05 0)
(25.5756 -8.35727e-05 0)
(25.5821 -8.35461e-05 0)
(25.5887 -8.40075e-05 0)
(25.5953 -8.37858e-05 0)
(25.6019 -8.36774e-05 0)
(25.6086 -8.33186e-05 0)
(25.6152 -8.38987e-05 0)
(25.6219 -8.33449e-05 0)
(25.6285 -8.29165e-05 0)
(25.6352 -8.21507e-05 0)
(25.6418 -8.21821e-05 0)
(25.6483 -7.98768e-05 0)
(25.6547 -7.93003e-05 0)
(25.6613 -4.03601e-05 0)
(34.5334 0.0801402 0)
(33.3602 0.0337828 0)
(31.9723 0.0212955 0)
(30.8975 0.0138032 0)
(30.1241 0.00962832 0)
(29.5557 0.00718747 0)
(29.1205 0.00564903 0)
(28.7745 0.00460538 0)
(28.4912 0.00385487 0)
(28.2535 0.00329156 0)
(28.0506 0.00285448 0)
(27.8746 0.00250601 0)
(27.7203 0.002222 0)
(27.5835 0.00198632 0)
(27.4613 0.0017878 0)
(27.3515 0.00161843 0)
(27.2521 0.00147234 0)
(27.1617 0.00134513 0)
(27.0792 0.00123344 0)
(27.0035 0.00113465 0)
(26.934 0.00104671 0)
(26.8699 0.000967955 0)
(26.8106 0.000897073 0)
(26.7556 0.000832958 0)
(26.7047 0.000774721 0)
(26.6572 0.000721611 0)
(26.6131 0.000673017 0)
(26.5719 0.000628381 0)
(26.5334 0.000587269 0)
(26.4975 0.000549291 0)
(26.4638 0.000514128 0)
(26.4324 0.000481471 0)
(26.4029 0.000451083 0)
(26.3753 0.000422741 0)
(26.3494 0.000396279 0)
(26.3251 0.000371485 0)
(26.3023 0.000348232 0)
(26.281 0.000326385 0)
(26.261 0.000305845 0)
(26.2422 0.000286471 0)
(26.2246 0.000268191 0)
(26.2081 0.000250913 0)
(26.1927 0.000234594 0)
(26.1783 0.000219105 0)
(26.1648 0.000204418 0)
(26.1522 0.000190467 0)
(26.1404 0.00017723 0)
(26.1294 0.00016461 0)
(26.1193 0.000152596 0)
(26.1098 0.000141138 0)
(26.101 0.000130239 0)
(26.0929 0.000119799 0)
(26.0855 0.000109827 0)
(26.0786 0.000100284 0)
(26.0723 9.11779e-05 0)
(26.0666 8.24306e-05 0)
(26.0614 7.40544e-05 0)
(26.0567 6.60144e-05 0)
(26.0525 5.83274e-05 0)
(26.0488 5.09135e-05 0)
(26.0455 4.37937e-05 0)
(26.0426 3.69347e-05 0)
(26.0402 3.03477e-05 0)
(26.0382 2.39786e-05 0)
(26.0365 1.7843e-05 0)
(26.0352 1.19084e-05 0)
(26.0343 6.18322e-06 0)
(26.0337 6.18401e-07 0)
(26.0335 -4.76655e-06 0)
(26.0335 -9.99475e-06 0)
(26.0339 -1.50416e-05 0)
(26.0346 -1.99522e-05 0)
(26.0356 -2.46959e-05 0)
(26.0368 -2.93098e-05 0)
(26.0384 -3.37481e-05 0)
(26.0401 -3.80837e-05 0)
(26.0422 -4.22595e-05 0)
(26.0445 -4.63251e-05 0)
(26.047 -5.01919e-05 0)
(26.0498 -5.39859e-05 0)
(26.0527 -5.7614e-05 0)
(26.0559 -6.11354e-05 0)
(26.0593 -6.43949e-05 0)
(26.0629 -6.76394e-05 0)
(26.0667 -7.07209e-05 0)
(26.0707 -7.3707e-05 0)
(26.0749 -7.64281e-05 0)
(26.0792 -7.91385e-05 0)
(26.0837 -8.16949e-05 0)
(26.0884 -8.41571e-05 0)
(26.0932 -8.63075e-05 0)
(26.0982 -8.8493e-05 0)
(26.1034 -9.05526e-05 0)
(26.1086 -9.2512e-05 0)
(26.114 -9.42582e-05 0)
(26.1196 -9.59585e-05 0)
(26.1252 -9.75712e-05 0)
(26.131 -9.90727e-05 0)
(26.1369 -0.000100449 0)
(26.1429 -0.00010169 0)
(26.1489 -0.000102892 0)
(26.1551 -0.000103927 0)
(26.1614 -0.000105018 0)
(26.1678 -0.000105806 0)
(26.1742 -0.000106614 0)
(26.1807 -0.000107223 0)
(26.1873 -0.00010818 0)
(26.1939 -0.000108525 0)
(26.2006 -0.000108935 0)
(26.2073 -0.000109048 0)
(26.2141 -0.000109667 0)
(26.2209 -0.000109526 0)
(26.2277 -0.000109495 0)
(26.2345 -0.000109162 0)
(26.2413 -0.000109824 0)
(26.2482 -0.000109232 0)
(26.255 -0.000108769 0)
(26.2618 -0.000107892 0)
(26.2686 -0.000107878 0)
(26.2754 -0.000104998 0)
(26.2819 -0.00010437 0)
(26.2887 -5.32289e-05 0)
(34.7383 0.0835127 0)
(34.0044 0.0389143 0)
(32.8456 0.0266757 0)
(31.8006 0.0180608 0)
(30.9964 0.0127823 0)
(30.3892 0.00956165 0)
(29.9198 0.00749913 0)
(29.546 0.00609466 0)
(29.2402 0.0050859 0)
(28.9844 0.00433096 0)
(28.7664 0.00374712 0)
(28.578 0.00328318 0)
(28.413 0.00290621 0)
(28.2672 0.00259425 0)
(28.1371 0.00233212 0)
(28.0204 0.00210896 0)
(27.9149 0.00191685 0)
(27.8191 0.00174986 0)
(27.7318 0.00160347 0)
(27.6518 0.00147417 0)
(27.5783 0.0013592 0)
(27.5106 0.00125637 0)
(27.4481 0.00116391 0)
(27.3901 0.00108036 0)
(27.3364 0.00100454 0)
(27.2864 0.000935441 0)
(27.2399 0.000872264 0)
(27.1966 0.000814276 0)
(27.1561 0.000760898 0)
(27.1183 0.000711618 0)
(27.0829 0.000666015 0)
(27.0498 0.000623685 0)
(27.0188 0.000584314 0)
(26.9898 0.000547612 0)
(26.9625 0.000513353 0)
(26.937 0.000481271 0)
(26.913 0.000451195 0)
(26.8905 0.000422947 0)
(26.8695 0.000396394 0)
(26.8497 0.000371361 0)
(26.8312 0.000347747 0)
(26.8138 0.000325435 0)
(26.7975 0.000304361 0)
(26.7823 0.00028437 0)
(26.7681 0.000265419 0)
(26.7547 0.000247422 0)
(26.7423 0.000230345 0)
(26.7307 0.000214073 0)
(26.7199 0.000198584 0)
(26.7099 0.000183815 0)
(26.7006 0.000169763 0)
(26.692 0.00015631 0)
(26.684 0.000143463 0)
(26.6767 0.00013117 0)
(26.67 0.000119435 0)
(26.6639 0.000108169 0)
(26.6583 9.73808e-05 0)
(26.6532 8.70275e-05 0)
(26.6486 7.71237e-05 0)
(26.6446 6.75793e-05 0)
(26.641 5.84142e-05 0)
(26.6378 4.95886e-05 0)
(26.6351 4.1112e-05 0)
(26.6328 3.29232e-05 0)
(26.6309 2.50368e-05 0)
(26.6294 1.74151e-05 0)
(26.6282 1.00645e-05 0)
(26.6274 2.93181e-06 0)
(26.627 -3.96992e-06 0)
(26.6269 -1.06674e-05 0)
(26.6271 -1.71309e-05 0)
(26.6276 -2.34102e-05 0)
(26.6284 -2.94749e-05 0)
(26.6295 -3.53666e-05 0)
(26.6309 -4.10388e-05 0)
(26.6326 -4.65704e-05 0)
(26.6345 -5.19015e-05 0)
(26.6367 -5.70875e-05 0)
(26.6391 -6.20343e-05 0)
(26.6418 -6.68788e-05 0)
(26.6447 -7.15206e-05 0)
(26.6478 -7.60268e-05 0)
(26.6511 -8.02293e-05 0)
(26.6547 -8.43957e-05 0)
(26.6584 -8.83654e-05 0)
(26.6624 -9.22156e-05 0)
(26.6665 -9.57605e-05 0)
(26.6708 -9.92769e-05 0)
(26.6753 -0.000102608 0)
(26.68 -0.000105824 0)
(26.6848 -0.000108683 0)
(26.6898 -0.000111566 0)
(26.6949 -0.000114294 0)
(26.7002 -0.000116901 0)
(26.7057 -0.000119257 0)
(26.7113 -0.000121549 0)
(26.717 -0.000123729 0)
(26.7228 -0.000125775 0)
(26.7288 -0.000127661 0)
(26.7348 -0.000129388 0)
(26.741 -0.000131055 0)
(26.7473 -0.000132526 0)
(26.7537 -0.000134031 0)
(26.7601 -0.000135193 0)
(26.7667 -0.000136358 0)
(26.7733 -0.000137286 0)
(26.78 -0.000138557 0)
(26.7867 -0.000139154 0)
(26.7936 -0.000139801 0)
(26.8004 -0.000140099 0)
(26.8073 -0.000140913 0)
(26.8143 -0.000140882 0)
(26.8212 -0.000140953 0)
(26.8282 -0.000140658 0)
(26.8352 -0.000141409 0)
(26.8422 -0.000140773 0)
(26.8492 -0.000140269 0)