/*--------------------------------*- C++ -*----------------------------------*\
  =========                 |
  \\      /  F ield         | OpenFOAM: The Open Source CFD Toolbox
   \\    /   O peration     | Website:  https://openfoam.org
    \\  /    A nd           | Version:  8
     \\/     M anipulation  |
\*---------------------------------------------------------------------------*/
FoamFile
{
    version     2.0;
    format      ascii;
    class       volScalarField;
    location    "700";
    object      epsilon;
}
// * * * * * * * * * * * * * * * * * * * * * * * * * * * * * * * * * * * * * //

dimensions      [0 2 -3 0 0 0 0];

internalField   nonuniform List<scalar> 
7320
(
11607.3
10157.7
9314.43
8772.21
8390.2
8102.79
7875.93
7690.7
7535.77
7403.76
7289.61
7189.73
7101.46
7022.84
6952.31
6888.69
6831
6778.46
6730.43
6686.38
6645.85
6608.48
6573.93
6541.93
6512.24
6484.64
6458.97
6435.04
6412.73
6391.9
6372.44
6354.26
6337.25
6321.34
6306.45
6292.51
6279.47
6267.27
6255.85
6245.18
6235.2
6225.88
6217.18
6209.06
6201.5
6194.47
6187.94
6181.88
6176.27
6171.09
6166.33
6161.95
6157.95
6154.32
6151.02
6148.06
6145.42
6143.09
6141.05
6139.3
6137.82
6136.61
6135.66
6134.96
6134.51
6134.28
6134.28
6134.51
6134.94
6135.58
6136.41
6137.44
6138.66
6140.06
6141.63
6143.37
6145.27
6147.33
6149.54
6151.9
6154.4
6157.04
6159.81
6162.7
6165.72
6168.86
6172.11
6175.46
6178.93
6182.49
6186.14
6189.89
6193.72
6197.64
6201.63
6205.69
6209.83
6214.03
6218.28
6222.59
6226.95
6231.35
6235.8
6240.27
6244.77
6249.3
6253.83
6258.38
6262.93
6267.48
6272.01
6276.53
6281.02
6285.47
6289.89
6294.26
6298.57
6302.82
6307
6311.1
6314.99
6318.93
3749.32
3919.37
3598.69
3368.86
3210.19
3093.2
3002.11
2928.43
2867.18
2815.25
2770.5
2731.45
2697.02
2666.41
2638.99
2614.29
2591.92
2571.56
2552.97
2535.93
2520.26
2505.82
2492.48
2480.12
2468.66
2458.02
2448.11
2438.89
2430.29
2422.26
2414.76
2407.75
2401.19
2395.06
2389.32
2383.95
2378.93
2374.22
2369.82
2365.71
2361.86
2358.26
2354.91
2351.78
2348.86
2346.15
2343.62
2341.28
2339.12
2337.12
2335.27
2333.58
2332.04
2330.63
2329.35
2328.2
2327.18
2326.27
2325.47
2324.79
2324.21
2323.73
2323.35
2323.07
2322.88
2322.77
2322.75
2322.82
2322.96
2323.18
2323.47
2323.84
2324.28
2324.78
2325.35
2325.99
2326.68
2327.43
2328.24
2329.1
2330.02
2330.98
2332
2333.06
2334.17
2335.32
2336.51
2337.74
2339.02
2340.32
2341.67
2343.05
2344.46
2345.9
2347.36
2348.86
2350.38
2351.93
2353.5
2355.08
2356.69
2358.31
2359.95
2361.6
2363.26
2364.94
2366.61
2368.29
2369.98
2371.66
2373.34
2375.01
2376.67
2378.33
2379.97
2381.59
2383.2
2384.78
2386.34
2387.87
2389.33
2390.8
1528.99
1989.05
1884.98
1770.23
1685.89
1623.05
1574.14
1534.67
1501.95
1474.25
1450.43
1429.67
1411.39
1395.16
1380.63
1367.55
1355.71
1344.94
1335.11
1326.11
1317.83
1310.2
1303.16
1296.64
1290.59
1284.98
1279.75
1274.89
1270.35
1266.11
1262.16
1258.46
1255.01
1251.78
1248.75
1245.92
1243.27
1240.79
1238.47
1236.3
1234.27
1232.37
1230.6
1228.95
1227.41
1225.98
1224.65
1223.41
1222.27
1221.21
1220.23
1219.34
1218.52
1217.77
1217.09
1216.47
1215.93
1215.44
1215.01
1214.64
1214.32
1214.06
1213.85
1213.68
1213.57
1213.5
1213.47
1213.49
1213.55
1213.65
1213.79
1213.97
1214.19
1214.44
1214.72
1215.04
1215.39
1215.78
1216.19
1216.63
1217.1
1217.6
1218.12
1218.67
1219.24
1219.84
1220.46
1221.1
1221.76
1222.45
1223.15
1223.87
1224.61
1225.37
1226.14
1226.93
1227.73
1228.55
1229.38
1230.22
1231.07
1231.93
1232.8
1233.68
1234.57
1235.46
1236.35
1237.25
1238.15
1239.06
1239.96
1240.86
1241.76
1242.65
1243.54
1244.42
1245.29
1246.15
1247
1247.83
1248.64
1249.44
720.941
1168.15
1165.72
1105.65
1054.38
1014.75
983.61
958.429
937.557
919.91
904.751
891.558
879.953
869.656
860.45
852.168
844.676
837.868
831.656
825.967
820.741
815.927
811.482
807.369
803.556
800.014
796.721
793.654
790.795
788.127
785.635
783.306
781.129
779.092
777.186
775.402
773.733
772.17
770.708
769.34
768.061
766.865
765.749
764.707
763.735
762.83
761.988
761.207
760.482
759.812
759.193
758.624
758.101
757.624
757.19
756.796
756.443
756.128
755.849
755.606
755.397
755.221
755.078
754.965
754.882
754.828
754.801
754.802
754.829
754.882
754.96
755.062
755.187
755.336
755.506
755.698
755.911
756.143
756.396
756.667
756.957
757.264
757.589
757.93
758.287
758.66
759.048
759.451
759.868
760.298
760.741
761.197
761.665
762.144
762.635
763.135
763.646
764.166
764.695
765.232
765.777
766.329
766.888
767.452
768.021
768.595
769.172
769.753
770.335
770.919
771.504
772.088
772.67
773.251
773.829
774.402
774.971
775.534
776.089
776.637
777.167
777.689
358.82
725.629
779.829
754.392
722.982
696.536
675.147
657.664
643.11
630.786
620.195
610.98
602.879
595.694
589.274
583.502
578.284
573.544
569.221
565.264
561.63
558.284
555.195
552.337
549.689
547.229
544.943
542.813
540.829
538.977
537.247
535.631
534.12
532.707
531.384
530.146
528.987
527.902
526.887
525.937
525.049
524.218
523.442
522.717
522.041
521.412
520.825
520.28
519.774
519.306
518.873
518.473
518.106
517.77
517.463
517.185
516.933
516.708
516.508
516.332
516.18
516.051
515.943
515.857
515.792
515.747
515.722
515.715
515.726
515.756
515.803
515.868
515.949
516.046
516.159
516.287
516.43
516.587
516.759
516.944
517.142
517.353
517.577
517.812
518.06
518.318
518.588
518.868
519.159
519.459
519.769
520.088
520.416
520.752
521.097
521.449
521.809
522.176
522.549
522.928
523.313
523.704
524.099
524.499
524.903
525.31
525.72
526.133
526.547
526.963
527.379
527.795
528.211
528.625
529.038
529.448
529.854
530.257
530.654
531.047
531.428
531.8
180.95
454.606
539.365
539.228
522.289
504.944
489.985
477.422
466.83
457.801
450.016
443.23
437.258
431.96
427.226
422.969
419.121
415.626
412.44
409.523
406.846
404.381
402.106
400.001
398.051
396.241
394.557
392.99
391.529
390.166
388.893
387.704
386.592
385.551
384.578
383.666
382.813
382.014
381.266
380.567
379.912
379.3
378.727
378.193
377.694
377.228
376.795
376.391
376.016
375.669
375.347
375.049
374.775
374.524
374.294
374.084
373.894
373.724
373.571
373.437
373.32
373.219
373.135
373.066
373.013
372.975
372.951
372.941
372.945
372.962
372.993
373.036
373.092
373.16
373.24
373.332
373.435
373.548
373.673
373.808
373.953
374.107
374.271
374.445
374.627
374.818
375.018
375.225
375.441
375.664
375.894
376.132
376.376
376.627
376.884
377.146
377.415
377.689
377.968
378.252
378.54
378.832
379.128
379.428
379.73
380.035
380.342
380.652
380.962
381.274
381.586
381.898
382.209
382.52
382.829
383.136
383.441
383.742
384.04
384.334
384.621
384.897
91.0616
278.177
374.321
393.387
388.302
378.207
368.135
359.167
351.387
344.653
338.793
333.658
329.123
325.091
321.482
318.234
315.297
312.628
310.193
307.964
305.918
304.034
302.295
300.686
299.195
297.811
296.524
295.326
294.209
293.167
292.194
291.284
290.434
289.638
288.893
288.196
287.543
286.931
286.359
285.823
285.321
284.852
284.413
284.003
283.62
283.263
282.929
282.619
282.33
282.061
281.812
281.582
281.37
281.174
280.995
280.831
280.682
280.548
280.428
280.321
280.227
280.147
280.078
280.022
279.978
279.945
279.924
279.913
279.913
279.923
279.944
279.974
280.015
280.065
280.124
280.193
280.27
280.356
280.45
280.553
280.663
280.781
280.907
281.04
281.18
281.327
281.48
281.64
281.806
281.978
282.156
282.339
282.527
282.721
282.92
283.123
283.33
283.542
283.758
283.977
284.2
284.426
284.655
284.886
285.12
285.356
285.593
285.832
286.072
286.312
286.553
286.793
287.033
287.272
287.51
287.746
287.979
288.211
288.439
288.664
288.884
289.094
46.0967
162.189
254.261
286.985
292.083
288.344
282.427
276.399
270.841
265.871
261.463
257.553
254.072
250.96
248.165
245.642
243.355
241.274
239.374
237.632
236.033
234.559
233.198
231.938
230.77
229.686
228.677
227.738
226.862
226.045
225.281
224.568
223.9
223.275
222.691
222.143
221.63
221.15
220.7
220.278
219.884
219.514
219.169
218.845
218.543
218.261
217.998
217.752
217.524
217.311
217.113
216.93
216.761
216.605
216.462
216.33
216.211
216.103
216.006
215.919
215.843
215.777
215.721
215.674
215.637
215.608
215.589
215.579
215.577
215.583
215.597
215.619
215.65
215.688
215.733
215.786
215.845
215.912
215.986
216.066
216.152
216.245
216.343
216.448
216.558
216.673
216.794
216.92
217.051
217.187
217.327
217.471
217.62
217.773
217.93
218.09
218.254
218.421
218.591
218.764
218.94
219.118
219.298
219.481
219.664
219.85
220.036
220.224
220.412
220.6
220.789
220.977
221.164
221.351
221.536
221.72
221.902
222.081
222.258
222.432
222.603
222.764
24.139
88.6484
164.986
205.253
218.887
220.976
218.885
215.492
211.862
208.378
205.161
202.236
199.59
197.197
195.031
193.064
191.273
189.637
188.14
186.765
185.499
184.331
183.252
182.251
181.323
180.461
179.658
178.91
178.212
177.561
176.952
176.382
175.849
175.351
174.883
174.446
174.035
173.651
173.291
172.954
172.637
172.341
172.064
171.805
171.562
171.336
171.124
170.926
170.742
170.57
170.41
170.262
170.125
169.998
169.882
169.775
169.677
169.589
169.509
169.438
169.375
169.32
169.273
169.234
169.203
169.178
169.162
169.152
169.148
169.152
169.162
169.179
169.202
169.231
169.266
169.308
169.355
169.408
169.466
169.529
169.598
169.672
169.75
169.834
169.921
170.014
170.11
170.211
170.316
170.424
170.536
170.652
170.771
170.893
171.019
171.147
171.278
171.411
171.547
171.685
171.825
171.967
172.111
172.256
172.402
172.549
172.697
172.846
172.995
173.144
173.293
173.441
173.589
173.736
173.881
174.026
174.168
174.308
174.446
174.581
174.714
174.839
13.5084
45.5623
99.8141
140.768
160.687
168.047
169.612
168.74
166.918
164.789
162.633
160.564
158.629
156.839
155.192
153.678
152.288
151.01
149.834
148.749
147.746
146.819
145.959
145.161
144.42
143.729
143.086
142.486
141.925
141.401
140.911
140.452
140.023
139.62
139.243
138.889
138.558
138.247
137.956
137.682
137.426
137.186
136.961
136.751
136.554
136.369
136.197
136.036
135.885
135.745
135.615
135.494
135.381
135.277
135.182
135.094
135.013
134.94
134.874
134.815
134.763
134.717
134.678
134.645
134.618
134.597
134.582
134.573
134.569
134.571
134.578
134.591
134.609
134.632
134.659
134.692
134.73
134.772
134.818
134.869
134.924
134.983
135.047
135.114
135.185
135.259
135.337
135.418
135.503
135.59
135.681
135.774
135.87
135.968
136.069
136.173
136.278
136.385
136.495
136.606
136.718
136.832
136.947
137.063
137.18
137.298
137.416
137.535
137.654
137.772
137.89
138.008
138.125
138.241
138.356
138.47
138.581
138.691
138.799
138.905
139.008
139.105
8.23297
22.8776
55.2867
90.2281
113.178
124.85
129.856
131.463
131.425
130.618
129.473
128.204
126.919
125.67
124.481
123.362
122.317
121.343
120.436
119.594
118.81
118.08
117.401
116.769
116.178
115.627
115.113
114.631
114.181
113.76
113.365
112.994
112.647
112.322
112.016
111.729
111.46
111.208
110.971
110.748
110.54
110.344
110.161
109.989
109.828
109.677
109.536
109.404
109.28
109.165
109.058
108.958
108.866
108.78
108.701
108.628
108.561
108.501
108.446
108.397
108.353
108.315
108.282
108.254
108.231
108.213
108.2
108.192
108.188
108.189
108.194
108.204
108.218
108.236
108.258
108.284
108.314
108.348
108.385
108.426
108.471
108.519
108.57
108.624
108.681
108.742
108.805
108.871
108.939
109.01
109.083
109.159
109.237
109.317
109.398
109.482
109.567
109.654
109.742
109.832
109.923
110.015
110.107
110.201
110.295
110.389
110.484
110.579
110.674
110.769
110.863
110.957
111.05
111.142
111.233
111.322
111.41
111.497
111.581
111.664
111.744
111.819
5.47937
11.9932
28.2309
52.6649
74.495
88.7635
96.7042
100.69
102.44
102.969
102.841
102.365
101.714
100.983
100.226
99.4735
98.7429
98.0428
97.3776
96.7488
96.1563
95.5992
95.0758
94.5846
94.1235
93.6909
93.2848
92.9037
92.5458
92.2097
91.894
91.5973
91.3185
91.0565
90.8102
90.5787
90.3611
90.1566
89.9644
89.7838
89.6142
89.455
89.3055
89.1652
89.0337
88.9103
88.7948
88.6867
88.5856
88.4911
88.403
88.321
88.2448
88.1741
88.1088
88.0488
87.9937
87.9435
87.898
87.8572
87.8208
87.7889
87.7613
87.7379
87.7187
87.7035
87.6924
87.6851
87.6817
87.6819
87.6856
87.693
87.7038
87.7181
87.7357
87.7567
87.7808
87.8081
87.8384
87.8716
87.9077
87.9466
87.9881
88.0323
88.0789
88.1279
88.1793
88.2329
88.2886
88.3463
88.406
88.4675
88.5307
88.5957
88.6621
88.73
88.7992
88.8697
88.9413
89.0139
89.0874
89.1617
89.2367
89.3121
89.388
89.4642
89.5405
89.6168
89.6929
89.7688
89.8442
89.919
89.993
90.0662
90.1382
90.209
90.2785
90.3464
90.4126
90.4769
90.5398
90.5985
3.95841
6.92866
14.0447
27.7128
44.4801
58.7408
68.535
74.555
78.0226
79.9011
80.8188
81.1603
81.1575
80.9504
80.6246
80.2329
79.8081
79.3708
78.9339
78.5054
78.0901
77.6909
77.3093
76.9458
76.6006
76.2734
75.9637
75.6708
75.394
75.1326
74.8859
74.6531
74.4334
74.2262
74.0309
73.8468
73.6733
73.5098
73.3559
73.211
73.0747
72.9464
72.8258
72.7125
72.606
72.5061
72.4124
72.3246
72.2424
72.1656
72.0938
72.0269
71.9647
71.907
71.8536
71.8044
71.7593
71.7181
71.6808
71.6472
71.6174
71.5911
71.5683
71.549
71.5331
71.5205
71.5112
71.5051
71.5021
71.5021
71.5051
71.5109
71.5196
71.5311
71.5453
71.5623
71.5819
71.604
71.6287
71.6557
71.6851
71.7168
71.7507
71.7867
71.8248
71.8648
71.9067
71.9505
71.9959
72.0431
72.0918
72.142
72.1936
72.2465
72.3007
72.3561
72.4125
72.4698
72.5281
72.5871
72.6468
72.7071
72.7679
72.829
72.8904
72.9519
73.0135
73.075
73.1362
73.1971
73.2576
73.3174
73.3765
73.4348
73.492
73.5481
73.6029
73.6564
73.7083
73.7587
73.8076
73.8535
3.07723
4.48267
7.4297
13.6627
23.6765
35.0257
44.8492
52.0825
56.9685
60.1185
62.0853
63.271
63.946
64.2875
64.4108
64.3915
64.2795
64.1082
63.8999
63.6698
63.4282
63.1824
62.937
62.6954
62.4598
62.2316
62.0117
61.8007
61.5987
61.4059
61.2222
61.0474
60.8813
60.7237
60.5742
60.4326
60.2986
60.1718
60.0519
59.9387
59.8319
59.7311
59.6362
59.5467
59.4625
59.3833
59.309
59.2391
59.1737
59.1124
59.0551
59.0016
58.9519
58.9057
58.8629
58.8235
58.7873
58.7543
58.7243
58.6974
58.6734
58.6524
58.6341
58.6187
58.606
58.596
58.5887
58.5839
58.5817
58.582
58.5847
58.5896
58.5969
58.6065
58.6183
58.6322
58.6484
58.6666
58.6868
58.7091
58.7332
58.7592
58.787
58.8166
58.8478
58.8807
58.9151
58.9509
58.9882
59.0269
59.0668
59.1079
59.1502
59.1935
59.2379
59.2831
59.3292
59.3761
59.4237
59.4718
59.5205
59.5696
59.619
59.6687
59.7185
59.7684
59.8182
59.8679
59.9173
59.9664
60.0149
60.0629
60.1102
60.1567
60.2022
60.2467
60.2901
60.3322
60.373
60.4123
60.4504
60.4863
2.55068
3.21778
4.43832
6.94254
11.6103
18.4647
26.1707
33.1843
38.7612
42.8701
45.7762
47.7853
49.1524
50.0674
50.6656
51.0415
51.2609
51.37
51.4011
51.3772
51.3148
51.2258
51.1186
50.9996
50.8734
50.7434
50.6119
50.4809
50.3516
50.225
50.1019
49.9826
49.8675
49.7568
49.6506
49.5491
49.452
49.3596
49.2715
49.1879
49.1085
49.0333
48.962
48.8947
48.8311
48.771
48.7145
48.6613
48.6113
48.5644
48.5205
48.4795
48.4413
48.4058
48.3729
48.3426
48.3148
48.2894
48.2665
48.2459
48.2276
48.2116
48.1979
48.1863
48.1769
48.1697
48.1645
48.1615
48.1604
48.1614
48.1643
48.1691
48.1757
48.1841
48.1942
48.2061
48.2198
48.2351
48.2521
48.2706
48.2908
48.3124
48.3355
48.36
48.3859
48.4131
48.4415
48.4712
48.502
48.5339
48.5668
48.6007
48.6355
48.6712
48.7077
48.7449
48.7827
48.8212
48.8602
48.8996
48.9395
48.9796
49.02
49.0605
49.1011
49.1417
49.1822
49.2225
49.2625
49.3021
49.3412
49.3798
49.4178
49.4549
49.4912
49.5266
49.5609
49.594
49.626
49.6567
49.6864
49.7144
2.23299
2.5213
3.02004
3.97831
5.81132
8.95327
13.4245
18.6064
23.6547
28.0086
31.4918
34.1618
36.1611
37.6393
38.7238
39.5144
40.0865
40.4959
40.7841
40.9815
41.1107
41.1886
41.2279
41.2381
41.2264
41.1984
41.1584
41.1097
41.0547
40.9955
40.9335
40.8701
40.8061
40.7423
40.6792
40.6172
40.5567
40.498
40.4412
40.3865
40.3339
40.2835
40.2354
40.1895
40.1458
40.1044
40.0651
40.028
39.993
39.9601
39.9292
39.9002
39.8732
39.8481
39.8249
39.8035
39.784
39.7662
39.7502
39.7359
39.7234
39.7125
39.7034
39.6959
39.6901
39.6859
39.6834
39.6824
39.6831
39.6852
39.6889
39.6941
39.7007
39.7087
39.7181
39.7288
39.7409
39.7543
39.769
39.7849
39.8021
39.8205
39.8401
39.8608
39.8826
39.9054
39.9293
39.9541
39.9798
40.0064
40.0338
40.062
40.091
40.1206
40.1508
40.1817
40.213
40.2448
40.277
40.3095
40.3423
40.3754
40.4085
40.4418
40.475
40.5082
40.5413
40.5741
40.6066
40.6387
40.6704
40.7015
40.732
40.7618
40.7908
40.8189
40.8461
40.8722
40.8972
40.9211
40.9441
40.966
2.04415
2.12289
2.29752
2.64296
3.30166
4.4877
6.42603
9.18516
12.5445
16.0848
19.4152
22.3108
24.7067
26.6315
28.1526
29.344
30.2729
30.9955
31.5567
31.9918
32.3282
32.5874
32.7857
32.936
33.0484
33.1307
33.1892
33.2286
33.253
33.2654
33.2683
33.2638
33.2535
33.2387
33.2205
33.1997
33.1771
33.1532
33.1286
33.1036
33.0785
33.0535
33.029
33.005
32.9817
32.9592
32.9375
32.9168
32.897
32.8782
32.8605
32.8439
32.8283
32.8139
32.8005
32.7883
32.7772
32.7673
32.7585
32.7509
32.7444
32.7391
32.735
32.732
32.7303
32.7296
32.7302
32.7319
32.7348
32.7388
32.7439
32.7502
32.7575
32.7659
32.7753
32.7857
32.7971
32.8094
32.8228
32.8372
32.8524
32.8687
32.8858
32.9038
32.9226
32.9423
32.9627
32.9839
33.0058
33.0284
33.0516
33.0754
33.0998
33.1248
33.1502
33.176
33.2022
33.2288
33.2557
33.2828
33.3101
33.3375
33.365
33.3924
33.4199
33.4472
33.4744
33.5013
33.5279
33.5541
33.5798
33.605
33.6297
33.6536
33.6768
33.6992
33.7207
33.7413
33.7609
33.7795
33.7972
33.8142
1.93662
1.89378
1.9091
1.99887
2.20581
2.60135
3.28857
4.38475
5.96585
7.99812
10.3235
12.7231
15.0051
17.0512
18.8156
20.3
21.5307
22.5425
23.3709
24.0479
24.6009
25.053
25.4228
25.7255
25.9736
26.1769
26.3435
26.4799
26.5915
26.6825
26.7566
26.8165
26.8648
26.9034
26.9339
26.9578
26.9761
26.9899
26.9999
27.0068
27.0111
27.0135
27.0142
27.0136
27.012
27.0096
27.0067
27.0034
26.9999
26.9962
26.9926
26.9891
26.9857
26.9826
26.9799
26.9775
26.9756
26.9741
26.9732
26.9729
26.9731
26.974
26.9755
26.9777
26.9806
26.9842
26.9886
26.9937
26.9995
27.0061
27.0134
27.0215
27.0303
27.0399
27.0502
27.0611
27.0727
27.085
27.098
27.1117
27.1261
27.1411
27.1568
27.1731
27.19
27.2075
27.2257
27.2443
27.2635
27.2832
27.3034
27.324
27.3451
27.3665
27.3883
27.4103
27.4327
27.4553
27.4781
27.501
27.524
27.5471
27.5701
27.5932
27.6161
27.6389
27.6614
27.6837
27.7056
27.7272
27.7483
27.7689
27.7889
27.8083
27.8269
27.8448
27.8619
27.8781
27.8934
27.9078
27.9214
27.9345
1.87971
1.76618
1.6969
1.6702
1.69599
1.79455
1.99808
2.35263
2.91532
3.74022
4.85282
6.2268
7.78258
9.41177
11.0108
12.5043
13.8504
15.0348
16.0607
16.9406
17.6911
18.3292
18.8711
19.3314
19.7227
20.0558
20.3398
20.5824
20.79
20.9681
21.121
21.2527
21.3663
21.4644
21.5493
21.6229
21.6869
21.7426
21.7911
21.8336
21.8707
21.9034
21.9321
21.9575
21.9799
21.9999
22.0178
22.0338
22.0483
22.0614
22.0734
22.0844
22.0946
22.1042
22.1133
22.1219
22.1303
22.1384
22.1464
22.1543
22.1622
22.1702
22.1783
22.1866
22.1951
22.2039
22.2129
22.2222
22.2319
22.2419
22.2523
22.2631
22.2743
22.286
22.298
22.3105
22.3233
22.3365
22.3501
22.3641
22.3785
22.3933
22.4085
22.4242
22.4402
22.4567
22.4735
22.4907
22.5082
22.5261
22.5443
22.5628
22.5815
22.6005
22.6197
22.6391
22.6587
22.6784
22.6982
22.718
22.7378
22.7577
22.7774
22.7971
22.8166
22.8359
22.855
22.8737
22.8921
22.9101
22.9276
22.9446
22.9611
22.9769
22.9921
23.0065
23.0201
23.033
23.0449
23.056
23.0663
23.0765
1.85262
1.70013
1.58443
1.50014
1.44691
1.42874
1.45383
1.53512
1.69135
1.94726
2.33147
2.87025
3.57781
4.44717
5.44734
6.52935
7.63811
8.72432
9.75159
10.698
11.554
12.3183
12.995
13.5909
14.114
14.5724
14.974
15.3259
15.6346
15.9057
16.1443
16.3545
16.5401
16.7044
16.8501
16.9795
17.0949
17.1979
17.29
17.3727
17.4471
17.5141
17.5747
17.6296
17.6795
17.725
17.7665
17.8046
17.8396
17.8718
17.9017
17.9294
17.9552
17.9794
18.002
18.0234
18.0436
18.0628
18.0812
18.0988
18.1158
18.1322
18.1482
18.1637
18.179
18.194
18.2089
18.2236
18.2382
18.2527
18.2673
18.2819
18.2965
18.3112
18.326
18.341
18.356
18.3712
18.3864
18.4017
18.4172
18.4329
18.4487
18.4647
18.4809
18.4973
18.5138
18.5306
18.5475
18.5645
18.5818
18.5991
18.6166
18.6342
18.6518
18.6696
18.6873
18.7051
18.7229
18.7407
18.7584
18.7759
18.7934
18.8107
18.8277
18.8445
18.861
18.8772
18.893
18.9084
18.9232
18.9376
18.9514
18.9646
18.9771
18.9889
18.9999
19.0101
19.0196
19.0281
19.0361
19.0438
1.84139
1.6697
1.52946
1.4157
1.32537
1.25752
1.21298
1.19428
1.2059
1.25453
1.3495
1.50277
1.72823
2.03963
2.44734
2.95456
3.55469
4.23102
4.95936
5.71237
6.46405
7.19312
7.8844
8.52869
9.1217
9.66265
10.153
10.5957
10.9943
11.3526
11.6744
11.9636
12.2235
12.4574
12.668
12.858
13.0296
13.1849
13.3257
13.4536
13.5699
13.6759
13.7728
13.8615
13.9428
14.0176
14.0865
14.15
14.2088
14.2633
14.314
14.3611
14.4051
14.4463
14.4849
14.5213
14.5555
14.5878
14.6185
14.6476
14.6754
14.702
14.7274
14.7519
14.7754
14.7982
14.8203
14.8417
14.8626
14.883
14.903
14.9226
14.9419
14.9609
14.9797
14.9982
15.0166
15.0348
15.0529
15.0707
15.0885
15.1061
15.1236
15.1411
15.1585
15.1759
15.1932
15.2105
15.2278
15.2451
15.2624
15.2796
15.2968
15.314
15.3311
15.3481
15.3651
15.382
15.3987
15.4154
15.4318
15.4481
15.4641
15.4799
15.4954
15.5106
15.5255
15.54
15.554
15.5676
15.5806
15.5931
15.6051
15.6164
15.627
15.6369
15.6461
15.6545
15.662
15.6688
15.6749
15.6809
1.83747
1.65774
1.50597
1.37779
1.26982
1.17973
1.10613
1.0485
1.0071
0.982967
0.978021
0.995182
1.03851
1.11327
1.22579
1.383
1.59157
1.8566
2.1803
2.56083
2.992
3.4637
3.96324
4.47698
4.99199
5.49723
5.98423
6.44713
6.88245
7.28854
7.66514
8.0129
8.33307
8.62722
8.89713
9.14464
9.37156
9.57968
9.77064
9.94601
10.1072
10.2555
10.3922
10.5183
10.6347
10.7425
10.8423
10.9349
11.021
11.1011
11.1758
11.2456
11.3108
11.3719
11.4293
11.4833
11.5341
11.5821
11.6274
11.6703
11.7111
11.7499
11.7868
11.8221
11.8558
11.8882
11.9192
11.9491
11.9779
12.0058
12.0327
12.0589
12.0843
12.109
12.1331
12.1566
12.1796
12.2021
12.2242
12.2458
12.2671
12.2879
12.3083
12.3285
12.3483
12.3678
12.3871
12.4061
12.4249
12.4435
12.4619
12.4801
12.4981
12.5158
12.5334
12.5508
12.5679
12.5849
12.6015
12.618
12.6341
12.65
12.6655
12.6807
12.6956
12.71
12.7241
12.7376
12.7507
12.7633
12.7753
12.7867
12.7976
12.8077
12.8172
12.8259
12.8339
12.841
12.8474
12.853
12.8579
12.8627
1.83635
1.65389
1.49762
1.36332
1.24761
1.14783
1.062
0.988661
0.926848
0.875995
0.835924
0.806832
0.789309
0.784375
0.793528
0.818789
0.862716
0.928351
1.01906
1.13827
1.28904
1.47355
1.69265
1.94546
2.22922
2.53944
2.87029
3.21516
3.56729
3.92031
4.26872
4.60806
4.93502
5.24734
5.54369
5.82341
6.08643
6.33301
6.56368
6.77914
6.98018
7.16765
7.34241
7.50534
7.65726
7.79901
7.93133
8.05494
8.17052
8.27869
8.38
8.475
8.56418
8.64797
8.72681
8.80107
8.8711
8.93724
8.99979
9.05901
9.11516
9.16848
9.21919
9.26747
9.31351
9.35748
9.39953
9.43981
9.47845
9.51557
9.55127
9.58567
9.61885
9.65091
9.68192
9.71195
9.74109
9.76937
9.79687
9.82364
9.84972
9.87515
9.89993
9.92407
9.94761
9.9706
9.99308
10.0151
10.0366
10.0577
10.0783
10.0986
10.1185
10.138
10.1571
10.1758
10.1942
10.2121
10.2297
10.247
10.2638
10.2801
10.2961
10.3116
10.3267
10.3412
10.3553
10.3688
10.3817
10.3941
10.4058
10.4169
10.4273
10.437
10.4459
10.4541
10.4615
10.4681
10.4739
10.4788
10.4831
10.4871
1.8361
1.6529
1.49526
1.35888
1.24033
1.13688
1.04634
0.966998
0.8975
0.836801
0.784121
0.738903
0.700795
0.66963
0.645428
0.628393
0.618928
0.617651
0.625408
0.643286
0.672608
0.714903
0.771843
0.845141
0.936407
1.04698
1.17771
1.32885
1.49987
1.68946
1.89556
2.11546
2.34603
2.58391
2.82576
3.06843
3.30913
3.54552
3.77574
3.99841
4.21256
4.41761
4.61326
4.79943
4.97619
5.14377
5.30244
5.45255
5.59446
5.72857
5.85529
5.97502
6.08819
6.19517
6.29637
6.39213
6.48281
6.56874
6.65024
6.72758
6.80104
6.87089
6.93734
7.00064
7.06098
7.11857
7.17359
7.22621
7.27658
7.32486
7.37117
7.41566
7.45843
7.4996
7.53926
7.57751
7.61444
7.65012
7.68463
7.71803
7.75041
7.7818
7.81227
7.84187
7.87061
7.89848
7.92555
7.95185
7.97742
8.00231
8.02653
8.05012
8.07309
8.09548
8.11728
8.13851
8.15919
8.17931
8.19888
8.21789
8.23635
8.25425
8.27158
8.28832
8.30447
8.32001
8.33491
8.34918
8.36277
8.37567
8.38786
8.39932
8.41002
8.41994
8.42905
8.43734
8.44479
8.45137
8.45707
8.4619
8.46601
8.46981
1.83605
1.6527
1.49473
1.35782
1.23848
1.13393
1.04192
0.960651
0.888632
0.82467
0.767793
0.717216
0.672311
0.632587
0.597667
0.567277
0.541239
0.519467
0.501959
0.488805
0.480185
0.476377
0.477764
0.484832
0.498176
0.518492
0.546563
0.583231
0.629359
0.685782
0.753241
0.832319
0.923371
1.02647
1.14136
1.26746
1.40383
1.54928
1.70235
1.86144
2.02487
2.19097
2.35815
2.52494
2.69006
2.85245
3.01123
3.16573
3.31548
3.46013
3.59951
3.73352
3.86216
3.98547
4.10356
4.21657
4.32463
4.42793
4.52664
4.62096
4.71107
4.79718
4.87948
4.95816
5.03341
5.10542
5.17436
5.24041
5.30372
5.36444
5.42273
5.47871
5.53252
5.58426
5.63406
5.68202
5.72824
5.77281
5.81582
5.85735
5.89749
5.93629
5.97384
6.01019
6.04539
6.07952
6.1126
6.14465
6.17566
6.2057
6.23481
6.26303
6.29038
6.31691
6.34262
6.36754
6.39169
6.41508
6.43772
6.45962
6.48078
6.50119
6.52086
6.53979
6.55796
6.57537
6.592
6.60785
6.62289
6.63712
6.65052
6.66307
6.67475
6.68555
6.69545
6.70445
6.71251
6.71964
6.72583
6.73108
6.73554
6.73957
1.83603
1.65264
1.49462
1.3576
1.23811
1.13332
1.04098
0.959246
0.886595
0.821781
0.76377
0.711705
0.664871
0.622675
0.584622
0.550304
0.519386
0.491594
0.466712
0.444572
0.425055
0.408081
0.393614
0.381659
0.372259
0.365503
0.36152
0.360489
0.362632
0.368221
0.377575
0.391057
0.409065
0.432026
0.46038
0.494561
0.534978
0.58199
0.63588
0.696832
0.764912
0.840046
0.92202
1.01047
1.10491
1.20471
1.30915
1.41746
1.52878
1.64229
1.75716
1.87259
1.98787
2.10236
2.21548
2.32677
2.43586
2.54243
2.64627
2.74723
2.8452
2.94014
3.03203
3.12089
3.20675
3.28968
3.36973
3.44697
3.5215
3.59338
3.66272
3.72959
3.79409
3.85631
3.91634
3.97426
4.03018
4.08417
4.13632
4.1867
4.23541
4.2825
4.32805
4.37212
4.41478
4.45609
4.49609
4.53484
4.57239
4.60875
4.64392
4.67792
4.7108
4.74259
4.77333
4.80303
4.83173
4.85944
4.88618
4.91195
4.93678
4.96066
4.9836
5.0056
5.02665
5.04677
5.06593
5.08413
5.10137
5.11764
5.13292
5.14721
5.16051
5.17279
5.18406
5.19431
5.20353
5.21172
5.21888
5.22503
5.23031
5.235
1.83602
1.65261
1.49457
1.35754
1.23801
1.13319
1.0408
0.958995
0.886239
0.821274
0.763051
0.710688
0.663449
0.620708
0.581938
0.54669
0.514581
0.485287
0.45853
0.434076
0.411723
0.391305
0.372681
0.355736
0.340378
0.326535
0.314157
0.30321
0.293681
0.285572
0.278905
0.273723
0.270083
0.268068
0.267776
0.26933
0.272873
0.278569
0.2866
0.297168
0.310484
0.326774
0.346264
0.369178
0.395727
0.426102
0.460467
0.498945
0.541614
0.588495
0.639555
0.694696
0.753758
0.816521
0.882708
0.951997
1.02402
1.09839
1.17468
1.25247
1.33136
1.41092
1.49077
1.57056
1.64996
1.72868
1.80648
1.88314
1.9585
2.03242
2.10479
2.17554
2.24462
2.31199
2.37764
2.44158
2.50381
2.56436
2.62323
2.68047
2.73609
2.79014
2.84263
2.89362
2.94312
2.99117
3.0378
3.08305
3.12694
3.16951
3.21079
3.2508
3.28956
3.32704
3.36324
3.39821
3.43197
3.46453
3.49591
3.52612
3.55518
3.5831
3.60986
3.63549
3.65999
3.68334
3.70556
3.72664
3.74658
3.76538
3.78303
3.79954
3.8149
3.82913
3.84221
3.85416
3.86499
3.87469
3.88329
3.8908
3.89736
3.9032
1.83602
1.65258
1.49453
1.35749
1.23795
1.13313
1.04073
0.958918
0.886153
0.821175
0.76293
0.710534
0.663244
0.620428
0.581551
0.546153
0.513841
0.484276
0.457165
0.432255
0.409327
0.388188
0.368672
0.350636
0.333951
0.31851
0.304216
0.290989
0.278758
0.267465
0.25706
0.247503
0.238763
0.230816
0.223648
0.217252
0.211627
0.206783
0.202736
0.199511
0.19714
0.195665
0.195138
0.195619
0.197177
0.199892
0.20385
0.209149
0.215892
0.224189
0.234155
0.245908
0.259564
0.275238
0.293041
0.313073
0.335423
0.360163
0.387349
0.417012
0.449163
0.483786
0.520837
0.560247
0.601921
0.645736
0.691551
0.739199
0.7885
0.839259
0.891271
0.944326
0.998213
1.05272
1.10765
1.1628
1.21798
1.27303
1.32779
1.38212
1.43589
1.48899
1.54133
1.59283
1.64342
1.69304
1.74166
1.78923
1.83573
1.88113
1.92543
1.96861
2.01066
2.05159
2.09138
2.13002
2.16744
2.20363
2.23861
2.27235
2.30486
2.33614
2.36617
2.39495
2.42249
2.44877
2.47381
2.49759
2.52013
2.54142
2.56147
2.58029
2.5979
2.6143
2.62951
2.64355
2.65643
2.66818
2.67882
2.68838
2.69697
2.70477
1.83601
1.65256
1.4945
1.35744
1.2379
1.13307
1.04068
0.958862
0.886097
0.821119
0.762874
0.710479
0.663188
0.620369
0.581486
0.546077
0.513746
0.484154
0.457003
0.432037
0.409031
0.387791
0.368143
0.349936
0.333036
0.317326
0.302702
0.28907
0.276348
0.264464
0.253353
0.242957
0.233225
0.224112
0.215578
0.207589
0.200113
0.193125
0.186603
0.180527
0.174883
0.169658
0.164845
0.160438
0.156435
0.152837
0.149649
0.146879
0.144537
0.142639
0.141204
0.140252
0.139811
0.139912
0.140587
0.141877
0.143823
0.146471
0.149873
0.15408
0.15915
0.16514
0.17211
0.180121
0.189234
0.199507
0.210997
0.223758
0.237836
0.253275
0.270109
0.288364
0.308056
0.329192
0.351766
0.375762
0.401151
0.427892
0.455933
0.485208
0.515642
0.547151
0.57964
0.613008
0.647145
0.681939
0.717273
0.753027
0.789082
0.825319
0.861622
0.897878
0.933977
0.969817
1.0053
1.04034
1.07488
1.10882
1.14209
1.17459
1.20628
1.23711
1.26702
1.296
1.324
1.35102
1.37703
1.40203
1.426
1.44896
1.47089
1.49181
1.51172
1.53064
1.54858
1.56556
1.58158
1.59668
1.61086
1.62416
1.63662
1.64833
1.83601
1.65254
1.49448
1.35742
1.23787
1.13304
1.04064
0.958826
0.886061
0.821083
0.762838
0.710444
0.663153
0.620336
0.581454
0.546046
0.513716
0.484124
0.456972
0.432004
0.408994
0.387747
0.368088
0.349865
0.332945
0.317207
0.302545
0.288866
0.276084
0.264125
0.25292
0.24241
0.232539
0.223258
0.214524
0.206295
0.198537
0.191216
0.184303
0.177772
0.171597
0.165758
0.160235
0.155011
0.150069
0.145397
0.140981
0.136812
0.132879
0.129176
0.125696
0.122433
0.119385
0.116549
0.113924
0.11151
0.109309
0.107324
0.105559
0.104021
0.102717
0.101657
0.10085
0.100309
0.100048
0.100084
0.100434
0.101117
0.102156
0.103573
0.105394
0.107644
0.110353
0.113549
0.117263
0.121526
0.12637
0.131826
0.137927
0.144702
0.152182
0.160394
0.169364
0.179114
0.189663
0.201027
0.213217
0.226238
0.24009
0.254769
0.270265
0.286559
0.30363
0.321449
0.339981
0.359188
0.379025
0.399443
0.420396
0.441834
0.463694
0.485909
0.508413
0.531137
0.554015
0.576978
0.599961
0.622899
0.64573
0.668394
0.690836
0.713002
0.734843
0.756313
0.77737
0.797977
0.818098
0.837704
0.856767
0.875266
0.893185
0.910484
1.83601
1.65254