/*--------------------------------*- C++ -*----------------------------------*\
  =========                 |
  \\      /  F ield         | OpenFOAM: The Open Source CFD Toolbox
   \\    /   O peration     | Website:  https://openfoam.org
    \\  /    A nd           | Version:  8
     \\/     M anipulation  |
\*---------------------------------------------------------------------------*/
FoamFile
{
    version     2.0;
    format      ascii;
    class       volScalarField;
    location    "700";
    object      k;
}
// * * * * * * * * * * * * * * * * * * * * * * * * * * * * * * * * * * * * * //

dimensions      [0 2 -2 0 0 0 0];

internalField   nonuniform List<scalar> 
7320
(
6.07652
5.55942
5.24732
5.04165
4.8942
4.78178
4.69211
4.61825
4.55602
4.50265
4.45625
4.41545
4.37924
4.34686
4.31771
4.29132
4.26733
4.24542
4.22534
4.20689
4.18987
4.17415
4.15959
4.14608
4.13352
4.12184
4.11095
4.10079
4.09131
4.08244
4.07415
4.0664
4.05914
4.05234
4.04598
4.04001
4.03443
4.0292
4.02431
4.01973
4.01545
4.01144
4.00771
4.00422
4.00097
3.99794
3.99513
3.99252
3.99011
3.98788
3.98583
3.98394
3.98221
3.98064
3.97922
3.97794
3.9768
3.97579
3.97491
3.97415
3.97351
3.97298
3.97256
3.97226
3.97205
3.97195
3.97195
3.97203
3.97222
3.97249
3.97284
3.97328
3.9738
3.9744
3.97507
3.97582
3.97663
3.97752
3.97847
3.97948
3.98056
3.9817
3.98289
3.98414
3.98544
3.98679
3.9882
3.98965
3.99114
3.99268
3.99426
3.99588
3.99754
3.99923
4.00096
4.00272
4.00451
4.00633
4.00817
4.01004
4.01193
4.01384
4.01577
4.01771
4.01966
4.02163
4.0236
4.02557
4.02755
4.02952
4.03149
4.03346
4.03541
4.03735
4.03927
4.04117
4.04305
4.04491
4.04673
4.04852
4.05022
4.05194
4.84215
5.67924
5.54001
5.36046
5.21715
5.10399
5.01225
4.93597
4.87129
4.81558
4.76697
4.72412
4.68601
4.65186
4.62109
4.59321
4.56782
4.54462
4.52335
4.50378
4.48573
4.46904
4.45358
4.43924
4.4259
4.41348
4.40191
4.39112
4.38103
4.37161
4.3628
4.35455
4.34683
4.3396
4.33284
4.3265
4.32057
4.31501
4.30981
4.30495
4.3004
4.29615
4.29218
4.28848
4.28504
4.28183
4.27885
4.27609
4.27354
4.27118
4.269
4.26701
4.26518
4.26352
4.26202
4.26067
4.25946
4.25839
4.25746
4.25665
4.25597
4.25542
4.25498
4.25466
4.25444
4.25434
4.25433
4.25443
4.25463
4.25492
4.2553
4.25578
4.25634
4.25699
4.25772
4.25854
4.25943
4.26039
4.26143
4.26254
4.26372
4.26497
4.26628
4.26765
4.26909
4.27058
4.27213
4.27373
4.27539
4.27709
4.27885
4.28065
4.2825
4.28438
4.28631
4.28828
4.29028
4.29232
4.29439
4.29648
4.29861
4.30076
4.30293
4.30512
4.30733
4.30955
4.31178
4.31402
4.31627
4.31851
4.32076
4.323
4.32523
4.32745
4.32965
4.33183
4.33399
4.33612
4.33822
4.34029
4.34228
4.34422
3.59581
5.0514
5.15997
5.06781
4.96411
4.87324
4.79598
4.72999
4.67307
4.62344
4.57977
4.541
4.50635
4.47517
4.44698
4.42135
4.39797
4.37656
4.35689
4.33877
4.32204
4.30655
4.29219
4.27885
4.26644
4.25488
4.2441
4.23404
4.22464
4.21585
4.20763
4.19994
4.19274
4.186
4.17969
4.17378
4.16825
4.16307
4.15822
4.15369
4.14946
4.14551
4.14182
4.13838
4.13518
4.13221
4.12945
4.12689
4.12452
4.12234
4.12033
4.11849
4.1168
4.11527
4.11388
4.11263
4.11152
4.11054
4.10968
4.10894
4.10832
4.10782
4.10742
4.10714
4.10696
4.10688
4.1069
4.10702
4.10723
4.10754
4.10794
4.10842
4.109
4.10966
4.1104
4.11122
4.11212
4.1131
4.11415
4.11528
4.11647
4.11774
4.11907
4.12047
4.12193
4.12345
4.12503
4.12667
4.12837
4.13012
4.13192
4.13376
4.13566
4.1376
4.13959
4.14162
4.14369
4.14579
4.14793
4.15011
4.15231
4.15454
4.1568
4.15908
4.16137
4.16369
4.16602
4.16836
4.17071
4.17306
4.17541
4.17775
4.18009
4.18242
4.18474
4.18703
4.1893
4.19155
4.19376
4.19594
4.19805
4.20008
2.74725
4.48339
4.83294
4.83938
4.78111
4.71517
4.65355
4.59832
4.54927
4.50567
4.46677
4.43188
4.40045
4.372
4.34614
4.32254
4.30093
4.28108
4.2628
4.24593
4.23032
4.21585
4.20241
4.18991
4.17828
4.16743
4.15731
4.14786
4.13902
4.13076
4.12303
4.11579
4.10901
4.10267
4.09673
4.09117
4.08597
4.0811
4.07655
4.0723
4.06833
4.06462
4.06116
4.05795
4.05495
4.05217
4.0496
4.04721
4.04501
4.04297
4.0411
4.03939
4.03783
4.03641
4.03512
4.03397
4.03295
4.03204
4.03126
4.03059
4.03003
4.02958
4.02924
4.029
4.02886
4.02882
4.02888
4.02904
4.02928
4.02962
4.03006
4.03058
4.03119
4.03188
4.03266
4.03352
4.03446
4.03549
4.03659
4.03776
4.03901
4.04033
4.04172
4.04318
4.04471
4.0463
4.04796
4.04967
4.05145
4.05328
4.05517
4.05711
4.05911
4.06115
4.06324
4.06538
4.06756
4.06978
4.07203
4.07433
4.07666
4.07901
4.0814
4.08381
4.08625
4.0887
4.09117
4.09365
4.09613
4.09863
4.10112
4.10362
4.1061
4.10857
4.11103
4.11347
4.11589
4.11827
4.12063
4.12294
4.1252
4.12733
2.10346
3.90602
4.48941
4.61127
4.60898
4.57387
4.53133
4.489
4.44924
4.41265
4.37922
4.34873
4.32092
4.29549
4.27219
4.2508
4.23111
4.21295
4.19616
4.18061
4.16619
4.15279
4.14032
4.12871
4.11788
4.10777
4.09833
4.08951
4.08125
4.07353
4.0663
4.05953
4.05319
4.04726
4.0417
4.0365
4.03164
4.02709
4.02284
4.01887
4.01516
4.01171
4.0085
4.00551
4.00273
4.00015
3.99777
3.99556
3.99353
3.99166
3.98994
3.98837
3.98694
3.98564
3.98447
3.98343
3.9825
3.98169
3.98099
3.9804
3.97992
3.97954
3.97927
3.97909
3.97902
3.97904
3.97916
3.97937
3.97967
3.98007
3.98055
3.98113
3.9818
3.98255
3.98339
3.98432
3.98533
3.98642
3.98759
3.98883
3.99016
3.99156
3.99304
3.99458
3.9962
3.99789
3.99964
4.00146
4.00334
4.00528
4.00728
4.00934
4.01145
4.01361
4.01583
4.01809
4.0204
4.02275
4.02515
4.02758
4.03005
4.03255
4.03508
4.03764
4.04022
4.04282
4.04543
4.04806
4.0507
4.05335
4.05599
4.05863
4.06127
4.06389
4.06649
4.06907
4.07163
4.07415
4.07664
4.07908
4.08147
4.0837
1.61624
3.30894
4.10161
4.35522
4.42201
4.42574
4.40724
4.38106
4.35281
4.32483
4.29808
4.27292
4.24944
4.22762
4.20738
4.18859
4.17115
4.15496
4.13991
4.1259
4.11285
4.10069
4.08934
4.07874
4.06884
4.05958
4.05091
4.0428
4.03521
4.0281
4.02144
4.0152
4.00935
4.00388
3.99876
3.99397
3.98949
3.9853
3.98139
3.97774
3.97434
3.97118
3.96824
3.9655
3.96297
3.96063
3.95846
3.95646
3.95463
3.95294
3.9514
3.94999
3.94872
3.94757
3.94654
3.94563
3.94483
3.94413
3.94354
3.94306
3.94268
3.94239
3.94221
3.94212
3.94213
3.94224
3.94244
3.94273
3.94311
3.94358
3.94415
3.9448
3.94555
3.94638
3.94731
3.94832
3.94941
3.95059
3.95185
3.95319
3.95461
3.95611
3.95769
3.95934
3.96106
3.96286
3.96472
3.96666
3.96866
3.97072
3.97284
3.97503
3.97727
3.97956
3.98191
3.98431
3.98676
3.98925
3.99179
3.99436
3.99698
3.99962
4.0023
4.00501
4.00773
4.01048
4.01325
4.01602
4.01881
4.0216
4.02439
4.02717
4.02994
4.0327
4.03544
4.03815
4.04083
4.04348
4.04608
4.04864
4.05114
4.05345
1.26812
2.7064
3.65726
4.05358
4.20386
4.25636
4.26838
4.26267
4.24897
4.23181
4.21339
4.19484
4.17674
4.15936
4.14285
4.12725
4.11255
4.09875
4.0858
4.07365
4.06226
4.05158
4.04157
4.03219
4.02339
4.01514
4.0074
4.00014
3.99333
3.98695
3.98096
3.97535
3.9701
3.96517
3.96057
3.95626
3.95223
3.94847
3.94496
3.94169
3.93865
3.93583
3.93321
3.93078
3.92854
3.92647
3.92457
3.92282
3.92122
3.91976
3.91843
3.91722
3.91614
3.91517
3.91431
3.91356
3.91292
3.91237
3.91192
3.91157
3.91132
3.91116
3.9111
3.91113
3.91125
3.91146
3.91177
3.91217
3.91265
3.91323
3.91389
3.91465
3.9155
3.91644
3.91746
3.91857
3.91977
3.92106
3.92243
3.92388
3.92541
3.92702
3.92872
3.93048
3.93233
3.93425
3.93623
3.93829
3.94042
3.94261
3.94487
3.94719
3.94956
3.95199
3.95448
3.95702
3.95961
3.96224
3.96492
3.96764
3.9704
3.97319
3.97601
3.97886
3.98173
3.98462
3.98753
3.99044
3.99336
3.99629
3.99921
4.00212
4.00502
4.0079
4.01076
4.01359
4.01638
4.01913
4.02183
4.02448
4.02708
4.02946
1.04443
2.13048
3.15609
3.69382
3.94125
4.05401
4.10457
4.12487
4.12967
4.12622
4.11833
4.10811
4.09673
4.0849
4.07304
4.06139
4.0501
4.03924
4.02888
4.01901
4.00966
4.0008
3.99243
3.98452
3.97707
3.97005
3.96343
3.95721
3.95136
3.94585
3.94069
3.93584
3.93129
3.92703
3.92305
3.91932
3.91584
3.91259
3.90957
3.90676
3.90416
3.90174
3.89951
3.89746
3.89556
3.89383
3.89224
3.89079
3.88948
3.88829
3.88722
3.88626
3.88542
3.88467
3.88403
3.88348
3.88303
3.88267
3.8824
3.88223
3.88214
3.88214
3.88223
3.8824
3.88267
3.88302
3.88347
3.884
3.88462
3.88532
3.88612
3.887
3.88797
3.88903
3.89018
3.89142
3.89274
3.89415
3.89565
3.89723
3.89889
3.90063
3.90245
3.90435
3.90632
3.90837
3.91049
3.91268
3.91495
3.91727
3.91967
3.92212
3.92464
3.92721
3.92984
3.93252
3.93525
3.93802
3.94084
3.9437
3.9466
3.94953
3.95249
3.95548
3.95848
3.96151
3.96455
3.96759
3.97064
3.97369
3.97674
3.97977
3.98278
3.98577
3.98873
3.99166
3.99455
3.99738
4.00017
4.0029
4.00557
4.008
0.919762
1.62589
2.61278
3.26902
3.62244
3.80741
3.90596
3.95917
3.98747
4.00145
4.00694
4.00725
4.00438
3.99954
3.99352
3.98681
3.97977
3.97259
3.96544
3.95842
3.95158
3.94497
3.93862
3.93255
3.92675
3.92124
3.91601
3.91106
3.90637
3.90195
3.89779
3.89387
3.89019
3.88675
3.88352
3.8805
3.87769
3.87507
3.87264
3.87039
3.86831
3.8664
3.86464
3.86304
3.86157
3.86025
3.85904
3.85797
3.857
3.85615
3.8554
3.85475
3.85419
3.85372
3.85335
3.85305
3.85285
3.85272
3.85268
3.85271
3.85283
3.85303
3.85331
3.85368
3.85413
3.85466
3.85527
3.85597
3.85675
3.85762
3.85857
3.85961
3.86073
3.86194
3.86324
3.86462
3.86609
3.86765
3.86928
3.87101
3.87281
3.87469
3.87666
3.8787
3.88081
3.88301
3.88527
3.88761
3.89001
3.89248
3.89502
3.89762
3.90027
3.90299
3.90576
3.90858
3.91145
3.91437
3.91732
3.92032
3.92336
3.92642
3.92952
3.93263
3.93577
3.93893
3.94209
3.94526
3.94843
3.95159
3.95475
3.95788
3.961
3.96409
3.96714
3.97015
3.97312
3.97604
3.97889
3.98168
3.98441
3.98688
0.860369
1.23773
2.06198
2.78202
3.23846
3.50547
3.66218
3.75644
3.81442
3.85055
3.87304
3.88674
3.89464
3.89864
3.89999
3.89953
3.89781
3.89526
3.89213
3.88865
3.88496
3.88115
3.87732
3.87352
3.86978
3.86614
3.86262
3.85924
3.856
3.85292
3.84999
3.84722
3.84461
3.84216
3.83986
3.83772
3.83573
3.83388
3.83218
3.83061
3.82918
3.82788
3.82671
3.82565
3.82471
3.82388
3.82316
3.82253
3.822
3.82155
3.8212
3.82092
3.82072
3.8206
3.82055
3.82058
3.82067
3.82084
3.82107
3.82138
3.82176
3.82221
3.82273
3.82333
3.824
3.82475
3.82558
3.82648
3.82747
3.82853
3.82967
3.83089
3.8322
3.83359
3.83506
3.83662
3.83826
3.83998
3.84178
3.84367
3.84563
3.84767
3.8498
3.85199
3.85427
3.85661
3.85903
3.86152
3.86408
3.8667
3.86938
3.87213
3.87494
3.8778
3.88071
3.88368
3.88669
3.88975
3.89284
3.89598
3.89915
3.90235
3.90557
3.90882
3.91208
3.91536
3.91864
3.92193
3.92521
3.92848
3.93174
3.93498
3.93819
3.94136
3.9445
3.94759
3.95063
3.95361
3.95652
3.95936
3.96214
3.96464
0.836787
0.98815
1.55966
2.25312
2.7872
3.13869
3.36248
3.50657
3.60152
3.66555
3.70958
3.74028
3.76187
3.77709
3.78779
3.79521
3.80023
3.80349
3.80544
3.80641
3.80665
3.80636
3.80567
3.8047
3.80353
3.80223
3.80084
3.79941
3.79797
3.79654
3.79514
3.7938
3.79251
3.79129
3.79014
3.78908
3.78809
3.7872
3.78639
3.78567
3.78504
3.78449
3.78403
3.78366
3.78336
3.78314
3.783
3.78293
3.78293
3.78299
3.78311
3.7833
3.78355
3.78385
3.78421
3.78462
3.78509
3.78562
3.7862
3.78684
3.78754
3.7883
3.78912
3.79
3.79096
3.79198
3.79306
3.79422
3.79545
3.79675
3.79813
3.79958
3.8011
3.8027
3.80438
3.80614
3.80798
3.8099
3.81189
3.81397
3.81611
3.81834
3.82064
3.82301
3.82546
3.82798
3.83056
3.83322
3.83594
3.83872
3.84157
3.84447
3.84743
3.85045
3.85351
3.85663
3.85979
3.86299
3.86623
3.8695
3.87281
3.87614
3.8795
3.88287
3.88626
3.88966
3.89306
3.89645
3.89984
3.90322
3.90658
3.90991
3.91321
3.91647
3.91968
3.92284
3.92594
3.92898
3.93195
3.93483
3.93764
3.94018
0.830413
0.857509
1.16926
1.7285
2.28148
2.70333
2.99742
3.19899
3.33861
3.4372
3.50825
3.56042
3.59936
3.62883
3.65138
3.6688
3.68236
3.69298
3.70133
3.70792
3.71312
3.71725
3.72051
3.72309
3.72514
3.72675
3.72803
3.72903
3.72983
3.73046
3.73097
3.73139
3.73175
3.73206
3.73234
3.73261
3.73288
3.73316
3.73346
3.73378
3.73414
3.73452
3.73495
3.73541
3.7359
3.73644
3.73702
3.73763
3.73828
3.73897
3.73969
3.74045
3.74124
3.74207
3.74293
3.74383
3.74476
3.74573
3.74674
3.74779
3.74889
3.75003
3.75122
3.75246
3.75375
3.7551
3.75651
3.75798
3.75951
3.7611
3.76276
3.76448
3.76627
3.76813
3.77006
3.77206
3.77413
3.77628
3.7785
3.78079
3.78315
3.78558
3.78809
3.79066
3.7933
3.79601
3.79879
3.80163
3.80453
3.80749
3.81051
3.81358
3.81671
3.81989
3.82312
3.82639
3.82971
3.83306
3.83645
3.83987
3.84332
3.84679
3.85028
3.85379
3.8573
3.86082
3.86434
3.86785
3.87135
3.87483
3.87829
3.88171
3.88509
3.88844
3.89172
3.89495
3.89812
3.90121
3.90422
3.90714
3.90999
3.91256
0.831632
0.801461
0.924682
1.27902
1.76057
2.20994
2.5635
2.82478
3.0153
3.15518
3.2594
3.33832
3.39906
3.44651
3.48408
3.51418
3.53856
3.5585
3.57496
3.58866
3.60014
3.60984
3.61808
3.62514
3.63123
3.63651
3.64112
3.64519
3.64878
3.652
3.65489
3.65752
3.65992
3.66214
3.6642
3.66613
3.66796
3.66971
3.67138
3.673
3.67457
3.67611
3.67763
3.67912
3.6806
3.68208
3.68354
3.685
3.68646
3.68792
3.68938
3.69084
3.69231
3.69378
3.69526
3.69676
3.69826
3.69978
3.70132
3.70288
3.70446
3.70608
3.70772
3.7094
3.71112
3.71287
3.71467
3.71652
3.71842
3.72037
3.72237
3.72442
3.72653
3.7287
3.73093
3.73322
3.73558
3.73799
3.74048
3.74303
3.74564
3.74832
3.75106
3.75387
3.75673
3.75966
3.76265
3.7657
3.76881
3.77197
3.77518
3.77845
3.78177
3.78513
3.78853
3.79198
3.79547
3.79899
3.80254
3.80611
3.80972
3.81334
3.81697
3.82061
3.82426
3.82791
3.83155
3.83518
3.8388
3.84238
3.84594
3.84946
3.85294
3.85636
3.85972
3.86302
3.86625
3.86939
3.87245
3.87541
3.8783
3.8809
0.835915
0.782667
0.803403
0.968303
1.29566
1.69673
2.07275
2.38225
2.62383
2.80953
2.95259
3.06386
3.15146
3.22133
3.27774
3.32383
3.3619
3.39365
3.42038
3.44308
3.46251
3.47926
3.49381
3.50652
3.51771
3.52762
3.53644
3.54435
3.55147
3.55793
3.56381
3.56921
3.57418
3.57878
3.58306
3.58708
3.59085
3.59442
3.59781
3.60104
3.60413
3.60711
3.60998
3.61277
3.61547
3.6181
3.62066
3.62317
3.62563
3.62805
3.63042
3.63275
3.63506
3.63733
3.63958
3.64181
3.64402
3.64622
3.64841
3.6506
3.65279
3.65499
3.65719
3.65941
3.66164
3.6639
3.66619
3.6685
3.67085
3.67323
3.67565
3.67811
3.68061
3.68316
3.68575
3.68839
3.69109
3.69384
3.69664
3.6995
3.70241
3.70538
3.70841
3.71149
3.71462
3.71781
3.72105
3.72434
3.72769
3.73108
3.73452
3.73801
3.74154
3.74511
3.74871
3.75236
3.75603
3.75974
3.76347
3.76722
3.77099
3.77478
3.77857
3.78237
3.78617
3.78996
3.79373
3.79749
3.80123
3.80493
3.8086
3.81222
3.81579
3.81931
3.82275
3.82613
3.82942
3.83262
3.83573
3.83873
3.84165
3.84429
0.841165
0.780282
0.755
0.801817
0.962762
1.23783
1.56799
1.88853
2.16639
2.39488
2.57903
2.72692
2.8462
2.94319
3.02278
3.08874
3.14394
3.19054
3.23023
3.26431
3.29379
3.31947
3.34199
3.36187
3.37951
3.39527
3.40941
3.42217
3.43375
3.44429
3.45394
3.46282
3.47102
3.47862
3.4857
3.49232
3.49853
3.50438
3.50992
3.51517
3.52017
3.52494
3.52951
3.53389
3.53812
3.54219
3.54613
3.54995
3.55365
3.55725
3.56076
3.56418
3.56752
3.57079
3.57399
3.57713
3.58022
3.58326
3.58626
3.58922
3.59216
3.59507
3.59797
3.60085
3.60373
3.60661
3.60949
3.61238
3.61528
3.6182
3.62113
3.62409
3.62707
3.63008
3.63312
3.6362
3.63931
3.64246
3.64565
3.64889
3.65216
3.65548
3.65885
3.66226
3.66571
3.66921
3.67275
3.67633
3.67996
3.68363
3.68733
3.69108
3.69486
3.69867
3.70252
3.70639
3.71029
3.71421
3.71815
3.7221
3.72607
3.73004
3.73401
3.73799
3.74195
3.7459
3.74983
3.75374
3.75762
3.76145
3.76524
3.76898
3.77266
3.77627
3.77981
3.78327
3.78664
3.78991
3.79307
3.79613
3.79909
3.80177
0.846372
0.784571
0.740866
0.731421
0.780818
0.913761
1.13036
1.39676
1.66969
1.92048
2.13792
2.32135
2.47447
2.60211
2.70889
2.79873
2.87484
2.93979
2.99561
3.04393
3.08604
3.12297
3.15556
3.18449
3.2103
3.23346
3.25433
3.27324
3.29043
3.30615
3.32056
3.33384
3.34611
3.35749
3.3681
3.378
3.38728
3.39601
3.40424
3.41203
3.41941
3.42644
3.43313
3.43953
3.44566
3.45154
3.4572
3.46264
3.4679
3.47298
3.47791
3.48268
3.48731
3.49181
3.4962
3.50048
3.50465
3.50874
3.51274
3.51667
3.52054
3.52434
3.5281
3.53181
3.53548
3.53912
3.54274
3.54634
3.54993
3.55351
3.55708
3.56066
3.56423
3.56782
3.57141
3.57502
3.57864
3.58229
3.58596
3.58965
3.59337
3.59712
3.6009
3.60472
3.60856
3.61243
3.61634
3.62028
3.62425
3.62824
3.63227
3.63633
3.64041
3.64451
3.64864
3.65278
3.65695
3.66112
3.66531
3.6695
3.6737
3.67789
3.68208
3.68626
3.69042
3.69456
3.69867
3.70275
3.70679
3.71078
3.71472
3.71859
3.7224
3.72613
3.72978
3.73333
3.73679
3.74014
3.74337
3.74648
3.74949
3.75223
0.851011
0.791143
0.741126
0.708367
0.70346
0.741579
0.838108
0.996907
1.20263
1.4285
1.65059
1.85477
2.03555
2.19259
2.3279
2.44426
2.54449
2.63115
2.70642
2.77214
2.82983
2.88074
2.9259
2.96617
3.00225
3.03473
3.0641
3.09076
3.11507
3.13732
3.15775
3.17659
3.19401
3.21018
3.22524
3.23929
3.25245
3.26481
3.27645
3.28743
3.29782
3.30768
3.31705
3.32598
3.33451
3.34266
3.35047
3.35797
3.36517
3.37211
3.3788
3.38527
3.39151
3.39756
3.40343
3.40912
3.41466
3.42005
3.42531
3.43044
3.43546
3.44038
3.4452
3.44994
3.4546
3.4592
3.46373
3.46822
3.47265
3.47705
3.48142
3.48576
3.49008
3.49437
3.49865
3.50292
3.50718
3.51144
3.51571
3.51997
3.52425
3.52853
3.53283
3.53713
3.54146
3.5458
3.55015
3.55452
3.55891
3.56332
3.56774
3.57217
3.57662
3.58108
3.58556
3.59003
3.59452
3.59901
3.60349
3.60798
3.61245
3.61692
3.62136
3.62579
3.63019
3.63456
3.63889
3.64317
3.6474
3.65158
3.65569
3.65973
3.66369
3.66757
3.67134
3.67502
3.67858
3.68203
3.68535
3.68853
3.69161
3.69442
0.854799
0.797919
0.746862
0.705362
0.677885
0.670753
0.692779
0.753704
0.859331
1.00619
1.18133
1.368
1.55204
1.72458
1.88152
2.02185
2.14624
2.2561
2.35311
2.43889
2.51496
2.58264
2.64307
2.69726
2.74603
2.79009
2.83005
2.86643
2.89966
2.93013
2.95816
2.98401
3.00794
3.03016
3.05084
3.07014
3.0882
3.10515
3.12109
3.13611
3.15031
3.16375
3.1765
3.18862
3.20017
3.21119
3.22171
3.23179
3.24145
3.25073
3.25965
3.26823
3.27651
3.2845
3.29222
3.2997
3.30694
3.31396
3.32079
3.32742
3.33389
3.3402
3.34636
3.35238
3.35828
3.36407
3.36975
3.37533
3.38084
3.38626
3.39162
3.39691
3.40215
3.40734
3.41248
3.41757
3.42263
3.42766
3.43266
3.43765
3.44261
3.44756
3.4525
3.45743
3.46235
3.46727
3.47219
3.4771
3.48201
3.48692
3.49183
3.49674
3.50165
3.50655
3.51145
3.51634
3.52122
3.52609
3.53095
3.53579
3.54061
3.54541
3.55018
3.55491
3.5596
3.56425
3.56885
3.57339
3.57786
3.58227
3.5866
3.59084
3.59499
3.59904
3.60298
3.6068
3.6105
3.61407
3.6175
3.62079
3.62394
3.62685
0.857613
0.803838
0.754023
0.710069
0.674015
0.648368
0.636594
0.64348
0.674826
0.73588
0.828724
0.950234
1.09243
1.24518
1.3992
1.54782
1.68713
1.81538
1.93217
2.03791
2.13338
2.21952
2.29731
2.36768
2.43146
2.48942
2.54224
2.59051
2.63474
2.67539
2.71285
2.74747
2.77955
2.80935
2.8371
2.86301
2.88725
2.90999
2.93136
2.95149
2.97049
2.98846
3.00548
3.02164
3.03701
3.05164
3.0656
3.07894
3.0917
3.10393
3.11566
3.12693
3.13776
3.1482
3.15826
3.16797
3.17736
3.18644
3.19523
3.20376
3.21205
3.2201
3.22794
3.23557
3.24303
3.25031
3.25743
3.2644
3.27124
3.27795
3.28455
3.29104
3.29743
3.30374
3.30995
3.31609
3.32215
3.32815
3.33409
3.33997
3.3458
3.35159
3.35734
3.36305
3.36873
3.37438
3.38
3.38559
3.39116
3.39671
3.40223
3.40774
3.41322
3.41867
3.42411
3.42952
3.4349
3.44026
3.44558
3.45087
3.45612
3.46133
3.4665
3.47161
3.47667
3.48167
3.48661
3.49147
3.49625
3.50094
3.50554
3.51004
3.51443
3.5187
3.52285
3.52687
3.53074
3.53447
3.53805
3.54146
3.54473
3.54775
0.859482
0.808378
0.760626
0.716973
0.678334
0.645749
0.620512
0.604371
0.599722
0.609658
0.637654
0.686738
0.758296
0.851094
0.961178
1.08279
1.20982
1.33698
1.46042
1.57773
1.68765
1.78972
1.88396
1.9707
2.05043
2.12369
2.19105
2.25304
2.31019
2.36296
2.41178
2.45704
2.49908
2.5382
2.5747
2.60881
2.64075
2.67072
2.69889
2.72542
2.75046
2.77413
2.79654
2.81779
2.83797
2.85718
2.87547
2.89293
2.90961
2.92556
2.94084
2.9555
2.96957
2.98309
2.99611
3.00865
3.02074
3.03241
3.0437
3.05462
3.06519
3.07544
3.0854
3.09507
3.10448
3.11364
3.12258
3.1313
3.13982
3.14815
3.15632
3.16431
3.17216
3.17987
3.18745
3.1949
3.20223
3.20945
3.21657
3.22359
3.23053
3.23738
3.24415
3.25085
3.25749
3.26406
3.27057
3.27703
3.28343
3.28979
3.29609
3.30234
3.30855
3.31471
3.32083
3.32689
3.33291
3.33888
3.34479
3.35065
3.35645
3.36218
3.36786
3.37346
3.37898
3.38443
3.38979
3.39506
3.40023
3.40529
3.41023
3.41506
3.41976
3.42432
3.42874
3.433
3.43711
3.44104
3.44481
3.44839
3.45181
3.45499
0.860565
0.811411
0.765711
0.723439
0.684828
0.650242
0.620147
0.595142
0.57603
0.563904
0.56022
0.566795
0.585676
0.618805
0.66751
0.731993
0.81102
0.902008
1.00149
1.10577
1.21146
1.31586
1.41705
1.51381
1.60547
1.69173
1.77257
1.84814
1.91867
1.98447
2.04585
2.10313
2.15665
2.20668
2.25353
2.29744
2.33867
2.37743
2.41392
2.44832
2.48081
2.51154
2.54064
2.56823
2.59444
2.61936
2.6431
2.66572
2.68733
2.70797
2.72773
2.74665
2.7648
2.78222
2.79897
2.81507
2.83059
2.84554
2.85996
2.8739
2.88737
2.9004
2.91303
2.92528
2.93716
2.94871
2.95993
2.97086
2.98151
2.99189
3.00203
3.01194
3.02163
3.03111
3.04041
3.04952
3.05846
3.06723
3.07586
3.08433
3.09266
3.10086
3.10894
3.1169
3.12475
3.1325
3.14015
3.14771
3.15518
3.16256
3.16985
3.17707
3.1842
3.19126
3.19824
3.20515
3.21197
3.21872
3.22538
3.23197
3.23847
3.24488
3.2512
3.25742
3.26355
3.26956
3.27547
3.28126
3.28692
3.29246
3.29785
3.3031
3.3082
3.31313
3.3179
3.32249
3.32689
3.33111
3.33512
3.33893
3.34257
3.34596
0.861099
0.813133
0.76901
0.728261
0.690673
0.656203
0.624916
0.596953
0.57254
0.551996
0.535764
0.524447
0.518835
0.519919
0.528854
0.546863
0.575059
0.614217
0.664541
0.725514
0.795886
0.873821
0.957145
1.04364
1.13129
1.21842
1.30375
1.3864
1.4658
1.54163
1.61374
1.68211
1.74682
1.80798
1.86575
1.92031
1.97185
2.02055
2.06661
2.11019
2.15146
2.19058
2.2277
2.26296
2.29649
2.3284
2.3588
2.3878
2.41549
2.44196
2.46727
2.49152
2.51476
2.53706
2.55847
2.57906
2.59886
2.61793
2.63631
2.65404
2.67116
2.68771
2.70371
2.7192
2.73421
2.74876
2.76289
2.77661
2.78995
2.80293
2.81557
2.8279
2.83992
2.85166
2.86312
2.87434
2.88531
2.89606
2.90658
2.9169
2.92702
2.93695
2.94669
2.95626
2.96567
2.97492
2.98403
2.99299
3.00182
3.01051
3.01908
3.02753
3.03585
3.04406
3.05215
3.06013
3.06799
3.07574
3.08337
3.09089
3.09828
3.10556
3.11271
3.11974
3.12663
3.13338
3.13999
3.14645
3.15276
3.1589
3.16487
3.17067
3.17629
3.18171
3.18693
3.19195
3.19675
3.20133
3.20569
3.20981
3.21373
3.2174
0.861317
0.813942
0.770775
0.731184
0.694718
0.661081
0.630095
0.601662
0.575754
0.552397
0.531673
0.513721
0.498751
0.487049
0.478999
0.475087
0.475905
0.482135
0.494503
0.513718
0.540366
0.574817
0.617121
0.666952
0.72361
0.786067
0.853079
0.923307
0.99544
1.06829
1.14087
1.21238
1.28223
1.35001
1.41546
1.47842
1.53881
1.59663
1.65191
1.7047
1.75508
1.80316
1.84903
1.89281
1.93461
1.97452
2.01266
2.04913
2.08401
2.11741
2.1494
2.18006
2.20948
2.23772
2.26485
2.29094
2.31603
2.34019
2.36348
2.38593
2.40759
2.42851
2.44873
2.46828
2.4872
2.50553
2.5233
2.54053
2.55726
2.57352
2.58932
2.60469
2.61966
2.63425
2.64847
2.66235
2.67589
2.68913
2.70207
2.71472
2.72711
2.73923
2.75111
2.76274
2.77414
2.78531
2.79628
2.80704
2.81761
2.82799
2.83819
2.84822
2.85807
2.86775
2.87727
2.88662
2.89582
2.90485
2.91373
2.92244
2.931
2.93939
2.94761
2.95566
2.96354
2.97124
2.97876
2.98609
2.99323
3.00016
3.00689
3.0134
3.01968
3.02574
3.03156
3.03714
3.04247
3.04754
3.05234
3.05688
3.06119
3.06524
0.861389
0.814244
0.77153
0.732597
0.696917
0.664079
0.633769
0.605753
0.579862
0.555979
0.53403
0.513979
0.495828
0.479611
0.4654
0.453309
0.443493
0.436161
0.431574
0.430052
0.431968
0.437737
0.4478
0.462586
0.482476
0.507758
0.538578
0.574904
0.616512
0.66298
0.713718
0.768009
0.825062
0.884071
0.944261
1.00493
1.06548
1.12542
1.18436
1.242
1.29816
1.35267
1.40547
1.4565
1.50576
1.55325
1.599
1.64305
1.68544
1.72623
1.76548
1.80324
1.8396
1.87459
1.90829
1.94076
1.97206
2.00223
2.03134
2.05944
2.08657
2.11278
2.13811
2.16262
2.18633
2.20929
2.23154
2.25312
2.27405
2.29436
2.31409
2.33327
2.35192
2.37007
2.38774
2.40496
2.42174
2.4381
2.45408
2.46967
2.48491
2.4998
2.51436
2.52861
2.54254
2.55617
2.56951
2.58258
2.59537
2.6079
2.62019
2.63223
2.64403
2.65561
2.66695
2.67808
2.68898
2.69967
2.71014
2.72039
2.73043
2.74025
2.74985
2.75923
2.76838
2.7773
2.78599
2.79444
2.80264
2.81059
2.81829
2.82572
2.83288
2.83976
2.84636
2.85268
2.85869
2.8644
2.86981
2.8749
2.87972
2.88427
0.861406
0.814329
0.771776
0.733121
0.697834
0.665476
0.635686
0.608168
0.582682
0.559037
0.53708
0.516692
0.497782
0.480288
0.464168
0.449403
0.435996
0.423969
0.413369
0.404262
0.396745
0.390937
0.38699
0.385084
0.385432
0.38827
0.393857
0.402461
0.414344
0.429748
0.448872
0.471851
0.49874
0.5295
0.563988
0.601962
0.643089
0.686962
0.733123
0.78109
0.830376
0.880517
0.931085
0.981703
1.03205
1.08185
1.13091
1.17906
1.22617
1.27217
1.317
1.36063
1.40303
1.4442
1.48415
1.5229
1.56045
1.59685
1.63211
1.66628
1.69938
1.73145
1.76252
1.79264
1.82185
1.85017
1.87765
1.90432
1.93021
1.95535
1.97978
2.00353
2.02663
2.04909
2.07096
2.09225
2.113
2.13321
2.15292
2.17215
2.19091
2.20923
2.22712
2.2446
2.26168
2.27839
2.29471
2.31068
2.32628
2.34154
2.35646
2.37106
2.38534
2.39931
2.41297
2.42634
2.43942
2.45221
2.4647
2.47692
2.48884
2.50048
2.51184
2.5229
2.53368
2.54415
2.55433
2.56421
2.57378
2.58304
2.59197
2.60058
2.60887
2.61681
2.62442
2.63167
2.63858
2.64513
2.65132
2.65715
2.66267
2.66788
0.861407
0.814342
0.77183
0.73326
0.698113
0.665954
0.636417
0.609191
0.584014
0.560665
0.538959
0.518737
0.499869
0.482247
0.46578
0.450397
0.43604
0.422666
0.410246
0.398762
0.388209
0.378592
0.36993
0.362255
0.355609
0.350053
0.345657
0.342512
0.340722
0.340409
0.341709
0.344772
0.349758
0.356833
0.366159
0.377891
0.392165
0.409093
0.428748
0.451161
0.476315
0.504139
0.534509
0.567254
0.602155
0.638961
0.677393
0.71716
0.757968
0.799529
0.841572
0.883846
0.92613
0.96823
1.00998
1.05126
1.09194
1.13195
1.17123
1.20972
1.24741
1.28425
1.32026
1.35542
1.38973
1.4232
1.45583
1.48765
1.51866
1.54888
1.57833
1.60703
1.635
1.66226
1.68883
1.71474
1.74
1.76465
1.78869
1.81216
1.83506
1.85742
1.87927
1.9006
1.92145
1.94182
1.96173
1.98119
2.00022
2.01882
2.03698
2.05473
2.07206
2.08899
2.10553
2.12168
2.13745
2.15284
2.16786
2.18251
2.19679
2.2107
2.22424
2.23741
2.25021
2.26264
2.27468
2.28635
2.29763
2.30852
2.31901
2.32911
2.33881
2.3481
2.35698
2.36544
2.3735
2.38113
2.38834
2.39514
2.40157
2.40765
0.861405
0.814337
0.771831
0.733277
0.698164
0.666062
0.636607
0.60949
0.584448
0.561253
0.53971
0.519653
0.500935
0.483431
0.467033
0.451647
0.437194
0.423603
0.410816
0.398785
0.387468
0.376832
0.366852
0.357508
0.348789
0.340687
0.333204
0.326348
0.32013
0.314572
0.309702
0.305553
0.30217
0.299604
0.297914
0.29717
0.297449
0.298836
0.301424
0.305311
0.3106
0.317392
0.325789
0.335884
0.347763
0.361497
0.377139
0.394721
0.414252
0.435713
0.459059
0.484214
0.511081
0.539536
0.569435
0.600618
0.632914
0.666145
0.700133
0.734702
0.769683
0.804917
0.840259
0.87558
0.910763
0.945711
0.980338
1.01458
1.04837
1.08168
1.11447
1.14671
1.17839
1.2095
1.24003
1.26997
1.29933
1.32811
1.3563
1.38393
1.41099
1.43748
1.46342
1.48881
1.51367
1.53799
1.56179
1.58508
1.60786
1.63015
1.65195
1.67326
1.6941
1.71445
1.73431
1.75369
1.77261
1.79105
1.80904
1.82656
1.84362
1.86022
1.87637
1.89205
1.90727
1.92202
1.93631
1.95012
1.96347
1.97634
1.98874
2.00065
2.01209
2.02305
2.03353
2.04352
2.05303
2.06206
2.07062
2.0787
2.08635
2.09363
0.861402
0.814329
0.77182
0.733266
0.698157
0.666065
0.636627
0.609537
0.584532
0.561385
0.539902
0.519913
0.50127
0.483846
0.467525
0.45221
0.437813
0.424257
0.411474
0.399403
0.387993
0.377196
0.366972
0.357284
0.348103
0.339402
0.331157
0.323351
0.315968
0.308997
0.302429
0.296259
0.290486
0.285112
0.280141
0.275581
0.271445
0.267749
0.264512
0.261758
0.259514
0.257813
0.256693
0.256195
0.256365
0.257255
0.25892
0.261419
0.264813
0.269166
0.274543
0.281006
0.288618
0.297436
0.307513
0.318892
0.331609
0.34569
0.361146
0.377976
0.396166
0.415686
0.436492
0.458528
0.481723
0.505994
0.531252
0.557396
0.584322
0.611923
0.640089
0.668712
0.697687
0.726913
0.756296
0.785747
0.815186
0.844541
0.873748
0.90275
0.9315
0.959956
0.988084
1.01586
1.04325
1.07024
1.09682
1.12297
1.14869
1.17396
1.19878
1.22315
1.24705
1.27049
1.29346
1.31595
1.33794
1.35941
1.38038
1.40083
1.42077
1.44019
1.45908
1.47744
1.49528
1.51258
1.52936
1.54559
1.56129
1.57646
1.59109
1.60518
1.61874
1.63177
1.64427
1.65625
1.6677
1.67864
1.68907
1.699
1.70847
1.71752
0.8614
0.814321
0.77181
0.733253
0.698143
0.66605
0.636614
0.609527
0.584528
0.561391
0.53992
0.519948
0.501326
0.483926
0.467634
0.45235
0.437986
0.424462
0.411709
0.399665
0.388273
0.377484
0.367254
0.35754
0.348309
0.339526
0.331164
0.323195
0.315596
0.308347
0.301429
0.294824
0.288519
0.282502
0.27676
0.271286
0.266072
0.261112
0.256403
0.251941
0.247725
0.243758
0.24004
0.236576
0.233372
0.230436
0.227778
0.225408
0.223341
0.221593
0.220182
0.219128
0.218456
0.21819
0.218358
0.218993
0.220126
0.221793
0.22403
0.226877
0.230374
0.234559
0.239474
0.245158
0.251648
0.25898
0.267187
0.276298
0.286336
0.29732
0.309263
0.32217
0.336041
0.350867
0.366631
0.383308
0.400868
0.419272
0.438474
0.458422
0.47906
0.500326
0.522156
0.544482
0.567235
0.590346
0.613745
0.637364
0.661137
0.684999
0.708891
0.732756
0.75654
0.780195
0.803677
0.826944
0.84997
0.872717
0.895148
0.917229
0.938936
0.960251
0.981156
1.00164
1.02169
1.04129
1.06045
1.07915
1.09738
1.11515
1.13245
1.14929
1.16565
1.18153
1.19694
1.21189
1.22635
1.24035
1.25388
1.26694
1.27956
1.29175
0.861399
0.814317
0.771804
0.733245
0.698133
0.666039
0.636602
0.609515
0.584516
0.561379
0.53991
0.51994
0.501322
0.483926
0.46764
0.452363
0.438006
0.424492
0.411749
0.399716
0.388335
0.377557
0.367336
0.357631
0.348405
0.339625
0.331258
0.323279
0.315662
0.308383
0.301421
0.294758
0.288376
0.282259
0.276392
0.270762
0.265357
0.260167
0.25518
0.250389
0.245786
0.241362
0.237113
0.233033
0.229117
0.225362
0.221765
0.218323
0.215035
0.211901
0.208922
0.206097
0.20343
0.200924
0.198581
0.196407
0.194407
0.192589
0.19096
0.18953
0.188308
0.187306
0.186537
0.186015
0.185755
0.185775
0.186092
0.186727
0.187701
0.189036
0.190756
0.192886
0.195451
0.198479
0.201996
0.206029
0.210606
0.215753
0.221497
0.227862
0.234872
0.242548
0.250908
0.25997
0.269745
0.280243
0.291469
0.303424
0.316104
0.329501
0.343603
0.358391
0.373845
0.389936
0.406634
0.423905