/*--------------------------------*- C++ -*----------------------------------*\
  =========                 |
  \\      /  F ield         | OpenFOAM: The Open Source CFD Toolbox
   \\    /   O peration     | Website:  https://openfoam.org
    \\  /    A nd           | Version:  8
     \\/     M anipulation  |
\*---------------------------------------------------------------------------*/
FoamFile
{
    version     2.0;
    format      ascii;
    class       volScalarField;
    location    "700";
    object      nut;
}
// * * * * * * * * * * * * * * * * * * * * * * * * * * * * * * * * * * * * * //

dimensions      [0 2 -1 0 0 0 0];

internalField   nonuniform List<scalar> 
7320
(
0.000286299
0.000273847
0.000266049
0.000260783
0.000256941
0.000253973
0.00025158
0.000249592
0.000247905
0.000246449
0.000245176
0.000244051
0.000243048
0.000242148
0.000241334
0.000240596
0.000239922
0.000239306
0.000238739
0.000238217
0.000237735
0.000237288
0.000236874
0.000236489
0.000236131
0.000235797
0.000235485
0.000235194
0.000234922
0.000234667
0.000234429
0.000234206
0.000233997
0.000233801
0.000233617
0.000233445
0.000233283
0.000233132
0.000232991
0.000232858
0.000232734
0.000232618
0.00023251
0.000232409
0.000232314
0.000232226
0.000232145
0.000232069
0.000231999
0.000231934
0.000231874
0.000231819
0.000231769
0.000231723
0.000231682
0.000231644
0.000231611
0.000231581
0.000231555
0.000231532
0.000231513
0.000231498
0.000231485
0.000231476
0.000231469
0.000231466
0.000231465
0.000231467
0.000231472
0.000231479
0.000231489
0.000231501
0.000231516
0.000231533
0.000231552
0.000231573
0.000231597
0.000231622
0.00023165
0.000231679
0.00023171
0.000231743
0.000231778
0.000231814
0.000231852
0.000231892
0.000231933
0.000231975
0.000232019
0.000232064
0.000232111
0.000232159
0.000232208
0.000232258
0.000232309
0.000232361
0.000232414
0.000232468
0.000232523
0.000232578
0.000232635
0.000232692
0.000232749
0.000232807
0.000232865
0.000232924
0.000232983
0.000233043
0.000233102
0.000233162
0.000233221
0.00023328
0.000233339
0.000233398
0.000233456
0.000233514
0.000233571
0.000233628
0.000233683
0.000233738
0.00023379
0.000233843
0.000562815
0.000740638
0.000767571
0.000767651
0.000763096
0.000757975
0.000753148
0.000748779
0.000744861
0.00074135
0.000738193
0.000735345
0.000732764
0.000730416
0.000728271
0.000726307
0.000724501
0.000722838
0.000721301
0.000719879
0.00071856
0.000717334
0.000716194
0.000715131
0.00071414
0.000713215
0.00071235
0.000711541
0.000710785
0.000710076
0.000709412
0.000708791
0.000708208
0.000707662
0.000707151
0.000706672
0.000706224
0.000705804
0.000705412
0.000705045
0.000704703
0.000704383
0.000704085
0.000703808
0.00070355
0.00070331
0.000703088
0.000702882
0.000702692
0.000702517
0.000702356
0.000702209
0.000702074
0.000701952
0.000701841
0.000701741
0.000701653
0.000701574
0.000701506
0.000701448
0.000701399
0.00070136
0.00070133
0.000701309
0.000701297
0.000701293
0.000701298
0.000701311
0.000701333
0.000701362
0.0007014
0.000701446
0.0007015
0.000701561
0.000701631
0.000701707
0.000701792
0.000701883
0.000701982
0.000702088
0.000702201
0.00070232
0.000702446
0.000702578
0.000702717
0.000702862
0.000703013
0.00070317
0.000703332
0.0007035
0.000703673
0.000703852
0.000704035
0.000704224
0.000704417
0.000704614
0.000704816
0.000705021
0.000705231
0.000705444
0.00070566
0.00070588
0.000706102
0.000706327
0.000706554
0.000706784
0.000707015
0.000707248
0.000707481
0.000707716
0.000707951
0.000708186
0.00070842
0.000708654
0.000708887
0.000709118
0.000709347
0.000709574
0.000709798
0.000710018
0.000710235
0.000710436
0.00076108
0.00115457
0.00127125
0.00130573
0.00131552
0.00131688
0.00131508
0.00131204
0.00130855
0.00130497
0.00130147
0.00129811
0.00129493
0.00129193
0.00128913
0.0012865
0.00128405
0.00128176
0.00127961
0.00127761
0.00127574
0.00127398
0.00127234
0.0012708
0.00126936
0.00126801
0.00126674
0.00126555
0.00126444
0.0012634
0.00126242
0.0012615
0.00126064
0.00125984
0.00125908
0.00125838
0.00125772
0.0012571
0.00125653
0.00125599
0.0012555
0.00125503
0.0012546
0.00125421
0.00125384
0.0012535
0.00125319
0.0012529
0.00125263
0.00125239
0.00125217
0.00125197
0.00125179
0.00125163
0.00125148
0.00125135
0.00125124
0.00125114
0.00125106
0.001251
0.00125094
0.00125091
0.00125089
0.00125088
0.00125089
0.00125091
0.00125095
0.00125101
0.00125107
0.00125116
0.00125125
0.00125137
0.00125149
0.00125164
0.00125179
0.00125197
0.00125215
0.00125236
0.00125257
0.0012528
0.00125305
0.00125331
0.00125358
0.00125386
0.00125416
0.00125448
0.0012548
0.00125514
0.00125549
0.00125585
0.00125622
0.0012566
0.001257
0.0012574
0.00125782
0.00125824
0.00125867
0.00125912
0.00125957
0.00126003
0.00126049
0.00126096
0.00126144
0.00126193
0.00126241
0.00126291
0.0012634
0.0012639
0.00126441
0.00126491
0.00126541
0.00126592
0.00126642
0.00126692
0.00126742
0.00126791
0.0012684
0.00126888
0.00126936
0.00126982
0.00127029
0.0012707
0.00094219
0.00154866
0.00180331
0.00190635
0.0019512
0.00197187
0.00198147
0.00198555
0.00198668
0.00198617
0.00198472
0.00198276
0.00198051
0.00197813
0.00197571
0.00197331
0.00197095
0.00196867
0.00196648
0.00196438
0.00196238
0.00196047
0.00195867
0.00195695
0.00195534
0.00195381
0.00195237
0.00195101
0.00194973
0.00194852
0.00194739
0.00194633
0.00194534
0.00194441
0.00194354
0.00194273
0.00194197
0.00194127
0.00194061
0.00194001
0.00193945
0.00193894
0.00193846
0.00193803
0.00193763
0.00193727
0.00193695
0.00193665
0.00193638
0.00193615
0.00193593
0.00193575
0.00193558
0.00193544
0.00193532
0.00193522
0.00193513
0.00193507
0.00193503
0.00193501
0.00193501
0.00193503
0.00193507
0.00193513
0.00193521
0.00193531
0.00193544
0.00193558
0.00193575
0.00193594
0.00193616
0.0019364
0.00193666
0.00193695
0.00193726
0.0019376
0.00193796
0.00193834
0.00193875
0.00193918
0.00193964
0.00194012
0.00194063
0.00194116
0.00194171
0.00194228
0.00194288
0.00194349
0.00194413
0.00194479
0.00194547
0.00194617
0.00194688
0.00194762
0.00194837
0.00194914
0.00194992
0.00195072
0.00195154
0.00195237
0.00195321
0.00195406
0.00195492
0.00195579
0.00195667
0.00195756
0.00195845
0.00195935
0.00196025
0.00196115
0.00196205
0.00196295
0.00196385
0.00196474
0.00196562
0.0019665
0.00196736
0.00196821
0.00196905
0.00196987
0.00197069
0.0019714
0.00110978
0.00189233
0.00232606
0.0025368
0.00264438
0.00270313
0.00273713
0.00275765
0.00277031
0.00277817
0.00278296
0.00278574
0.00278718
0.00278769
0.00278758
0.00278703
0.00278618
0.00278514
0.00278397
0.00278273
0.00278144
0.00278014
0.00277885
0.00277758
0.00277634
0.00277515
0.002774
0.0027729
0.00277185
0.00277086
0.00276992
0.00276903
0.0027682
0.00276743
0.0027667
0.00276603
0.00276542
0.00276485
0.00276433
0.00276386
0.00276344
0.00276306
0.00276272
0.00276242
0.00276217
0.00276194
0.00276176
0.0027616
0.00276147
0.00276137
0.0027613
0.00276125
0.00276123
0.00276122
0.00276124
0.00276128
0.00276134
0.00276142
0.00276152
0.00276164
0.00276178
0.00276195
0.00276215
0.00276236
0.00276261
0.00276288
0.00276318
0.00276351
0.00276387
0.00276426
0.00276468
0.00276514
0.00276563
0.00276616
0.00276672
0.00276732
0.00276795
0.00276862
0.00276933
0.00277007
0.00277085
0.00277167
0.00277252
0.0027734
0.00277433
0.00277528
0.00277627
0.00277729
0.00277835
0.00277944
0.00278055
0.0027817
0.00278288
0.00278408
0.00278531
0.00278657
0.00278785
0.00278915
0.00279048
0.00279183
0.00279319
0.00279457
0.00279597
0.00279738
0.00279881
0.00280024
0.00280168
0.00280312
0.00280457
0.00280602
0.00280746
0.0028089
0.00281034
0.00281176
0.00281317
0.00281456
0.00281593
0.00281728
0.00281861
0.0028199
0.00282118
0.00282229
0.00129926
0.00216764
0.00280717
0.00316585
0.00336954
0.00349116
0.00356775
0.00361825
0.00365279
0.00367709
0.00369457
0.00370734
0.00371679
0.00372385
0.00372913
0.0037331
0.00373607
0.00373829
0.00373993
0.00374111
0.00374196
0.00374253
0.0037429
0.00374312
0.00374321
0.00374322
0.00374316
0.00374305
0.00374292
0.00374277
0.00374261
0.00374245
0.0037423
0.00374217
0.00374205
0.00374196
0.00374189
0.00374184
0.00374183
0.00374184
0.00374188
0.00374196
0.00374206
0.00374219
0.00374235
0.00374254
0.00374275
0.00374298
0.00374323
0.0037435
0.00374379
0.0037441
0.00374442
0.00374475
0.0037451
0.00374546
0.00374584
0.00374623
0.00374664
0.00374707
0.00374752
0.00374799
0.00374849
0.00374901
0.00374957
0.00375015
0.00375077
0.00375142
0.00375211
0.00375284
0.00375361
0.00375442
0.00375528
0.00375618
0.00375713
0.00375813
0.00375918
0.00376027
0.00376142
0.00376262
0.00376386
0.00376516
0.00376651
0.00376791
0.00376935
0.00377085
0.00377239
0.00377398
0.00377562
0.0037773
0.00377902
0.00378079
0.0037826
0.00378445
0.00378633
0.00378825
0.00379021
0.0037922
0.00379422
0.00379627
0.00379834
0.00380044
0.00380256
0.00380469
0.00380685
0.00380901
0.00381118
0.00381336
0.00381554
0.00381771
0.00381988
0.00382204
0.00382419
0.00382631
0.00382841
0.00383049
0.00383253
0.00383453
0.0038365
0.00383841
0.0038403
0.00384192
0.00158937
0.00236976
0.00321596
0.00375923
0.00409609
0.00431112
0.00445413
0.00455312
0.00462407
0.00467641
0.00471597
0.00474649
0.00477044
0.00478951
0.00480489
0.00481744
0.00482777
0.00483636
0.00484356
0.00484964
0.00485482
0.00485926
0.00486309
0.00486643
0.00486936
0.00487194
0.00487424
0.0048763
0.00487817
0.00487987
0.00488143
0.00488289
0.00488425
0.00488553
0.00488675
0.00488792
0.00488905
0.00489014
0.00489122
0.00489227
0.00489332
0.00489435
0.00489538
0.0048964
0.00489743
0.00489844
0.00489946
0.00490048
0.00490149
0.00490249
0.00490349
0.00490449
0.00490548
0.00490647
0.00490745
0.00490843
0.00490941
0.00491038
0.00491137
0.00491236
0.00491336
0.00491438
0.00491541
0.00491647
0.00491755
0.00491867
0.00491982
0.00492101
0.00492223
0.0049235
0.00492481
0.00492618
0.0049276
0.00492908
0.00493061
0.00493221
0.00493387
0.00493559
0.00493737
0.00493923
0.00494114
0.00494312
0.00494517
0.00494728
0.00494946
0.0049517
0.00495401
0.00495638
0.00495881
0.0049613
0.00496385
0.00496646
0.00496912
0.00497184
0.00497461
0.00497742
0.00498028
0.00498319
0.00498613
0.00498912
0.00499214
0.00499518
0.00499826
0.00500135
0.00500447
0.0050076
0.00501074
0.00501388
0.00501702
0.00502015
0.00502327
0.00502638
0.00502945
0.0050325
0.00503551
0.00503847
0.00504139
0.00504425
0.00504704
0.00504975
0.00505243
0.00505473
0.00212976
0.0025187
0.00352583
0.00427893
0.00478634
0.00512981
0.00536872
0.00554022
0.00566706
0.00576335
0.00583815
0.00589739
0.00594512
0.00598413
0.00601645
0.00604352
0.00606643
0.00608601
0.00610287
0.00611753
0.00613035
0.00614164
0.00615166
0.00616061
0.00616864
0.00617589
0.00618248
0.0061885
0.00619402
0.00619912
0.00620385
0.00620826
0.00621239
0.00621628
0.00621996
0.00622345
0.00622678
0.00622997
0.00623303
0.00623598
0.00623884
0.00624162
0.00624431
0.00624694
0.00624951
0.00625201
0.00625446
0.00625686
0.0062592
0.0062615
0.00626375
0.00626595
0.00626811
0.00627022
0.0062723
0.00627434
0.00627635
0.00627832
0.00628028
0.00628222
0.00628415
0.00628607
0.006288
0.00628993
0.00629188
0.00629386
0.00629585
0.00629788
0.00629995
0.00630206
0.00630422
0.00630643
0.0063087
0.00631104
0.00631344
0.00631591
0.00631846
0.00632108
0.00632378
0.00632656
0.00632942
0.00633236
0.00633539
0.00633849
0.00634168
0.00634495
0.0063483
0.00635174
0.00635525
0.00635884
0.0063625
0.00636624
0.00637004
0.00637392
0.00637786
0.00638187
0.00638593
0.00639005
0.00639422
0.00639844
0.0064027
0.006407
0.00641134
0.0064157
0.00642008
0.00642447
0.00642888
0.00643328
0.00643768
0.00644207
0.00644643
0.00645076
0.00645506
0.00645931
0.0064635
0.00646762
0.00647167
0.00647563
0.0064795
0.00648326
0.00648696
0.00649013
0.0031541
0.00268382
0.00372393
0.00468584
0.00539542
0.00590413
0.0062731
0.00654666
0.00675434
0.00691556
0.00704326
0.00714624
0.00723059
0.00730064
0.00735953
0.00740958
0.00745254
0.00748974
0.00752221
0.00755076
0.00757604
0.00759856
0.00761875
0.00763694
0.00765342
0.00766843
0.00768216
0.00769477
0.00770641
0.0077172
0.00772724
0.00773662
0.0077454
0.00775367
0.00776148
0.00776887
0.00777589
0.00778259
0.00778899
0.00779512
0.00780101
0.00780668
0.00781216
0.00781745
0.00782257
0.00782753
0.00783235
0.00783703
0.00784157
0.00784598
0.00785027
0.00785445
0.00785851
0.00786247
0.00786632
0.00787008
0.00787375
0.00787735
0.00788087
0.00788434
0.00788775
0.00789112
0.00789446
0.00789778
0.00790109
0.0079044
0.00790771
0.00791105
0.0079144
0.00791779
0.00792122
0.0079247
0.00792824
0.00793184
0.00793551
0.00793926
0.00794309
0.007947
0.007951
0.0079551
0.00795928
0.00796357
0.00796795
0.00797243
0.007977
0.00798168
0.00798646
0.00799133
0.0079963
0.00800137
0.00800652
0.00801177
0.00801711
0.00802253
0.00802804
0.00803362
0.00803927
0.008045
0.00805078
0.00805663
0.00806252
0.00806846
0.00807444
0.00808046
0.00808649
0.00809254
0.00809859
0.00810465
0.00811068
0.0081167
0.00812267
0.0081286
0.00813448
0.00814028
0.008146
0.00815163
0.00815714
0.00816254
0.00816781
0.00817291
0.00817792
0.00818223
0.00493181
0.00302612
0.0038337
0.00494834
0.00587406
0.00658116
0.00711649
0.00752622
0.00784508
0.00809766
0.00830115
0.00846767
0.00860586
0.00872199
0.00882068
0.0089054
0.00897879
0.0090429
0.00909931
0.00914929
0.00919386
0.00923384
0.00926988
0.00930255
0.00933229
0.00935949
0.00938448
0.00940752
0.00942884
0.00944865
0.00946711
0.00948437
0.00950056
0.00951579
0.00953016
0.00954376
0.00955666
0.00956893
0.00958063
0.00959181
0.00960251
0.00961278
0.00962266
0.00963216
0.00964133
0.00965018
0.00965872
0.00966699
0.00967499
0.00968273
0.00969023
0.0096975
0.00970454
0.00971138
0.00971802
0.00972447
0.00973074
0.00973685
0.00974282
0.00974865
0.00975436
0.00975997
0.00976549
0.00977094
0.00977633
0.00978168
0.009787
0.0097923
0.00979759
0.00980289
0.00980821
0.00981357
0.00981896
0.00982442
0.00982993
0.00983552
0.00984119
0.00984694
0.00985279
0.00985874
0.00986478
0.00987094
0.0098772
0.00988357
0.00989006
0.00989665
0.00990337
0.0099102
0.00991714
0.00992419
0.00993135
0.00993862
0.009946
0.00995347
0.00996104
0.00996871
0.00997646
0.00998429
0.0099922
0.0100002
0.0100082
0.0100163
0.0100244
0.0100326
0.0100408
0.010049
0.0100572
0.0100653
0.0100735
0.0100816
0.0100897
0.0100977
0.0101056
0.0101134
0.0101211
0.0101287
0.0101361
0.0101433
0.0101504
0.0101572
0.0101639
0.0101697
0.00765447
0.00384129
0.0039599
0.0050637
0.00617752
0.00710148
0.0078361
0.00841791
0.00888249
0.00925803
0.00956562
0.00982082
0.0100351
0.0102171
0.0103732
0.0105082
0.0106262
0.0107298
0.0108217
0.0109035
0.0109768
0.0110429
0.0111028
0.0111573
0.011207
0.0112527
0.0112948
0.0113337
0.0113697
0.0114033
0.0114346
0.0114639
0.0114915
0.0115173
0.0115418
0.0115649
0.0115868
0.0116076
0.0116275
0.0116464
0.0116645
0.0116818
0.0116984
0.0117143
0.0117297
0.0117445
0.0117587
0.0117725
0.0117857
0.0117985
0.0118109
0.0118229
0.0118345
0.0118457
0.0118566
0.0118671
0.0118774
0.0118873
0.011897
0.0119064
0.0119156
0.0119246
0.0119334
0.011942
0.0119505
0.0119589
0.0119672
0.0119755
0.0119836
0.0119918
0.0119999
0.012008
0.0120161
0.0120242
0.0120324
0.0120406
0.0120489
0.0120573
0.0120657
0.0120743
0.0120829
0.0120917
0.0121006
0.0121095
0.0121187
0.0121279
0.0121372
0.0121467
0.0121563
0.012166
0.0121759
0.0121858
0.0121959
0.0122061
0.0122164
0.0122269
0.0122374
0.012248
0.0122587
0.0122694
0.0122802
0.0122911
0.012302
0.012313
0.012324
0.012335
0.0123459
0.0123569
0.0123678
0.0123786
0.0123893
0.0124
0.0124105
0.0124209
0.0124311
0.0124412
0.012451
0.0124606
0.01247
0.0124791
0.0124879
0.0124956
0.0113266
0.00551803
0.00435849
0.00510578
0.00628855
0.00740978
0.00836168
0.0091471
0.00979278
0.0103264
0.0107711
0.0111453
0.0114634
0.0117362
0.0119723
0.0121782
0.0123592
0.0125193
0.0126619
0.0127896
0.0129046
0.0130086
0.0131032
0.0131896
0.0132687
0.0133415
0.0134088
0.0134711
0.0135289
0.0135829
0.0136333
0.0136805
0.0137249
0.0137666
0.0138061
0.0138434
0.0138787
0.0139123
0.0139442
0.0139747
0.0140038
0.0140316
0.0140583
0.0140839
0.0141085
0.0141321
0.0141548
0.0141768
0.0141979
0.0142183
0.0142379
0.0142569
0.0142753
0.014293
0.0143102
0.0143268
0.014343
0.0143586
0.0143738
0.0143885
0.0144029
0.0144169
0.0144306
0.014444
0.0144571
0.01447
0.0144827
0.0144953
0.0145076
0.0145199
0.014532
0.0145441
0.0145562
0.0145682
0.0145802
0.0145922
0.0146042
0.0146163
0.0146284
0.0146406
0.0146529
0.0146653
0.0146777
0.0146903
0.014703
0.0147158
0.0147288
0.0147418
0.014755
0.0147683
0.0147818
0.0147954
0.0148091
0.0148229
0.0148368
0.0148508
0.014865
0.0148792
0.0148936
0.014908
0.0149224
0.0149369
0.0149515
0.0149661
0.0149806
0.0149952
0.0150098
0.0150242
0.0150387
0.015053
0.0150672
0.0150812
0.0150951
0.0151088
0.0151223
0.0151355
0.0151484
0.0151611
0.0151734
0.0151853
0.0151969
0.015207
0.0157248
0.0083437
0.00547916
0.00531275
0.00627167
0.00748282
0.00862975
0.00963244
0.0104877
0.0112134
0.0118305
0.0123582
0.0128125
0.0132064
0.0135503
0.0138528
0.0141205
0.0143588
0.0145721
0.0147641
0.0149377
0.0150955
0.0152394
0.0153712
0.0154923
0.0156041
0.0157075
0.0158035
0.0158929
0.0159763
0.0160543
0.0161275
0.0161964
0.0162613
0.0163225
0.0163805
0.0164355
0.0164877
0.0165373
0.0165847
0.0166299
0.0166731
0.0167145
0.0167541
0.0167922
0.0168288
0.016864
0.0168978
0.0169305
0.0169619
0.0169922
0.0170215
0.0170498
0.0170771
0.0171035
0.017129
0.0171538
0.0171777
0.017201
0.0172235
0.0172455
0.0172668
0.0172876
0.017308
0.0173278
0.0173473
0.0173664
0.0173852
0.0174037
0.0174219
0.0174399
0.0174577
0.0174754
0.0174929
0.0175103
0.0175277
0.017545
0.0175623
0.0175796
0.017597
0.0176143
0.0176317
0.0176492
0.0176667
0.0176843
0.0177021
0.0177199
0.0177378
0.0177559
0.0177741
0.0177923
0.0178107
0.0178293
0.0178479
0.0178666
0.0178855
0.0179044
0.0179234
0.0179425
0.0179617
0.0179809
0.0180001
0.0180194
0.0180387
0.0180579
0.0180771
0.0180963
0.0181153
0.0181343
0.0181531
0.0181717
0.0181901
0.0182083
0.0182262
0.0182438
0.018261
0.0182779
0.0182944
0.0183104
0.0183259
0.018341
0.0183542
0.0204365
0.0122987
0.00781877
0.0061763
0.00638132
0.00739745
0.00862145
0.00980679
0.0108762
0.0118169
0.0126375
0.0133529
0.0139782
0.0145273
0.0150118
0.0154416
0.0158248
0.0161683
0.0164775
0.0167573
0.0170115
0.0172433
0.0174556
0.0176506
0.0178304
0.0179968
0.018151
0.0182946
0.0184284
0.0185535
0.0186708
0.018781
0.0188847
0.0189825
0.019075
0.0191625
0.0192455
0.0193244
0.0193995
0.0194711
0.0195394
0.0196047
0.0196672
0.0197271
0.0197846
0.0198398
0.0198929
0.019944
0.0199932
0.0200406
0.0200862
0.0201303
0.0201729
0.020214
0.0202537
0.0202921
0.0203293
0.0203652
0.0204001
0.020434
0.0204668
0.0204988
0.0205299
0.0205602
0.0205898
0.0206187
0.020647
0.0206748
0.0207021
0.0207288
0.0207552
0.0207812
0.0208069
0.0208323
0.0208575
0.0208824
0.0209072
0.0209319
0.0209564
0.0209809
0.0210053
0.0210297
0.021054
0.0210784
0.0211028
0.0211273
0.0211518
0.0211763
0.021201
0.0212257
0.0212505
0.0212754
0.0213003
0.0213254
0.0213505
0.0213757
0.0214009
0.0214263
0.0214516
0.021477
0.0215024
0.0215279
0.0215533
0.0215786
0.0216039
0.0216291
0.0216542
0.0216792
0.0217039
0.0217285
0.0217527
0.0217767
0.0218004
0.0218237
0.0218465
0.0218689
0.0218908
0.0219122
0.0219329
0.021953
0.0219725
0.0219897
0.024966
0.017029
0.011559
0.0083344
0.00718515
0.00746836
0.008455
0.00967289
0.0108973
0.0120408
0.0130773
0.0140053
0.014833
0.0155712
0.0162309
0.0168222
0.0173542
0.0178345
0.01827
0.0186661
0.0190279
0.0193593
0.0196641
0.0199451
0.020205
0.0204461
0.0206704
0.0208795
0.0210749
0.021258
0.0214298
0.0215915
0.0217439
0.0218879
0.0220241
0.0221531
0.0222756
0.0223921
0.022503
0.0226087
0.0227097
0.0228063
0.0228987
0.0229873
0.0230723
0.0231539
0.0232324
0.0233079
0.0233805
0.0234506
0.0235181
0.0235832
0.0236461
0.0237068
0.0237655
0.0238222
0.0238771
0.0239302
0.0239817
0.0240316
0.0240801
0.0241272
0.024173
0.0242175
0.024261
0.0243034
0.0243448
0.0243853
0.0244251
0.024464
0.0245023
0.0245399
0.0245769
0.0246134
0.0246495
0.0246851
0.0247204
0.0247554
0.02479
0.0248245
0.0248587
0.0248928
0.0249267
0.0249605
0.0249942
0.0250279
0.0250615
0.0250951
0.0251287
0.0251622
0.0251958
0.0252294
0.025263
0.0252966
0.0253302
0.0253639
0.0253975
0.0254312
0.0254648
0.0254984
0.025532
0.0255655
0.0255989
0.0256322
0.0256654
0.0256983
0.0257311
0.0257637
0.0257959
0.0258278
0.0258594
0.0258905
0.0259212
0.0259514
0.025981
0.0260099
0.0260382
0.0260657
0.0260925
0.0261184
0.0261435
0.0261657
0.0288721
0.0219727
0.0163572
0.0121026
0.00944208
0.00839318
0.00856599
0.00943681
0.0106072
0.0118514
0.0130626
0.0141965
0.0152393
0.0161903
0.0170549
0.0178406
0.0185555
0.0192071
0.0198026
0.0203481
0.0208492
0.0213109
0.0217373
0.0221322
0.0224988
0.02284
0.0231583
0.023456
0.0237348
0.0239967
0.024243
0.0244751
0.0246943
0.0249016
0.025098
0.0252844
0.0254614
0.0256299
0.0257905
0.0259437
0.0260901
0.0262302
0.0263643
0.0264928
0.0266162
0.0267348
0.0268487
0.0269584
0.027064
0.0271658
0.0272639
0.0273586
0.02745
0.0275382
0.0276236
0.0277061
0.0277859
0.0278632
0.0279381
0.0280107
0.0280811
0.0281496
0.0282161
0.0282808
0.0283438
0.0284052
0.0284651
0.0285237
0.0285809
0.028637
0.028692
0.0287459
0.0287989
0.028851
0.0289024
0.028953
0.0290029
0.0290522
0.029101
0.0291493
0.0291972
0.0292446
0.0292917
0.0293385
0.0293851
0.0294314
0.0294774
0.0295233
0.029569
0.0296146
0.02966
0.0297054
0.0297506
0.0297957
0.0298407
0.0298856
0.0299305
0.0299752
0.0300197
0.0300642
0.0301085
0.0301526
0.0301965
0.0302402
0.0302836
0.0303267
0.0303695
0.0304119
0.0304538
0.0304953
0.0305363
0.0305766
0.0306163
0.0306553
0.0306935
0.0307308
0.0307673
0.0308027
0.0308372
0.0308704
0.0309027
0.0309313
0.0318859
0.0265354
0.0215162
0.0170871
0.0134893
0.0110289
0.00983786
0.0097379
0.0103766
0.011418
0.0126294
0.0138773
0.0150935
0.0162465
0.0173241
0.0183239
0.0192482
0.0201018
0.0208901
0.0216189
0.0222936
0.0229193
0.0235006
0.0240417
0.0245463
0.025018
0.0254596
0.0258739
0.0262632
0.0266297
0.0269754
0.0273019
0.0276108
0.0279035
0.0281812
0.0284452
0.0286963
0.0289356
0.0291639
0.029382
0.0295905
0.0297901
0.0299814
0.030165
0.0303412
0.0305106
0.0306735
0.0308303
0.0309814
0.0311271
0.0312675
0.0314032
0.0315341
0.0316607
0.031783
0.0319013
0.0320159
0.0321268
0.0322342
0.0323385
0.0324396
0.0325378
0.0326332
0.0327259
0.0328162
0.0329042
0.03299
0.0330737
0.0331556
0.0332356
0.0333139
0.0333906
0.0334658
0.0335397
0.0336122
0.0336836
0.0337539
0.0338232
0.0338916
0.033959
0.0340257
0.0340917
0.0341569
0.0342216
0.0342857
0.0343492
0.0344123
0.034475
0.0345372
0.0345991
0.0346606
0.0347218
0.0347827
0.0348433
0.0349035
0.0349635
0.0350233
0.0350827
0.0351418
0.0352006
0.0352591
0.0353172
0.035375
0.0354323
0.0354892
0.0355455
0.0356014
0.0356566
0.0357112
0.0357651
0.0358182
0.0358704
0.0359218
0.0359722
0.0360214
0.0360696
0.0361165
0.0361622
0.0362064
0.0362491
0.0362905
0.0363275
0.0339568
0.0302574
0.0262964
0.0224018
0.0187493
0.0155657
0.0131348
0.01166
0.0111401
0.0113925
0.0121663
0.0132379
0.014448
0.0156984
0.0169334
0.0181236
0.0192548
0.0203216
0.0213231
0.0222613
0.0231394
0.0239613
0.0247308
0.0254521
0.0261288
0.0267645
0.0273626
0.027926
0.0284574
0.0289594
0.0294343
0.0298842
0.0303109
0.0307161
0.0311015
0.0314684
0.0318181
0.0321519
0.0324708
0.0327758
0.0330678
0.0333477
0.0336162
0.033874
0.0341218
0.0343601
0.0345895
0.0348105
0.0350235
0.035229
0.0354274
0.0356189
0.035804
0.035983
0.0361561
0.0363236
0.0364858
0.0366429
0.0367952
0.036943
0.0370863
0.0372256
0.0373609
0.0374924
0.0376205
0.0377451
0.0378667
0.0379852
0.0381009
0.038214
0.0383246
0.0384328
0.0385388
0.0386427
0.0387446
0.0388447
0.0389431
0.0390399
0.0391352
0.0392291
0.0393216
0.039413
0.0395031
0.0395922
0.0396804
0.0397675
0.0398538
0.0399393
0.040024
0.040108
0.0401913
0.040274
0.040356
0.0404374
0.0405182
0.0405984
0.0406781
0.0407572
0.0408357
0.0409137
0.040991
0.0410677
0.0411437
0.041219
0.0412936
0.0413674
0.0414404
0.0415125
0.0415836
0.0416536
0.0417226
0.0417903
0.0418568
0.041922
0.0419856
0.0420477
0.0421082
0.042167
0.0422239
0.0422788
0.042332
0.0423799
0.0352156
0.0329264
0.0301548
0.0271692
0.0241079
0.0210828
0.0182539
0.0158401
0.0140585
0.0130304
0.012737
0.0130508
0.0138009
0.0148263
0.0160022
0.0172434
0.018496
0.0197278
0.0209204
0.0220639
0.0231539
0.024189
0.0251702
0.026099
0.026978
0.0278099
0.0285976
0.0293438
0.0300513
0.0307226
0.0313603
0.0319665
0.0325433
0.0330929
0.0336169
0.0341171
0.034595
0.035052
0.0354895
0.0359087
0.0363107
0.0366966
0.0370673
0.0374237
0.0377666
0.0380968
0.038415
0.0387218
0.0390179
0.0393037
0.0395798
0.0398467
0.0401048
0.0403545
0.0405962
0.0408302
0.041057
0.0412769
0.0414901
0.041697
0.0418979
0.0420931
0.0422828
0.0424672
0.0426468
0.0428216
0.042992
0.0431581
0.0433203
0.0434786
0.0436334
0.0437847
0.0439328
0.0440779
0.0442201
0.0443594
0.0444963
0.0446307
0.0447629
0.0448928
0.0450208
0.0451468
0.0452709
0.0453934
0.0455142
0.0456336
0.0457514
0.0458679
0.0459831
0.0460971
0.0462098
0.0463214
0.0464319
0.0465414
0.0466498
0.0467572
0.0468636
0.0469691
0.0470735
0.0471769
0.0472793
0.0473807
0.0474809
0.0475801
0.0476781
0.047775
0.0478705
0.0479647
0.0480575
0.0481488
0.0482385
0.0483265
0.0484128
0.0484971
0.0485795
0.0486598
0.0487379
0.0488137
0.0488871
0.0489579
0.0490263
0.0490884
0.0358864
0.034593
0.0328633
0.0308401
0.0286213
0.0262674
0.0238358
0.0214144
0.0191386
0.0171788
0.0156958
0.0147878
0.0144645
0.0146593
0.0152639
0.0161609
0.0172464
0.01844
0.0196844
0.0209414
0.0221859
0.0234025
0.0245816
0.025718
0.0268092
0.0278544
0.0288542
0.0298096
0.0307222
0.0315939
0.0324266
0.0332223
0.0339831
0.0347109
0.0354074
0.0360745
0.0367138
0.037327
0.0379155
0.0384807
0.039024
0.0395465
0.0400494
0.0405337
0.0410005
0.0414507
0.041885
0.0423045
0.0427097
0.0431014
0.0434802
0.0438468
0.0442016
0.0445453
0.0448782
0.045201
0.045514
0.0458177
0.0461124
0.0463987
0.0466767
0.046947
0.0472098
0.0474656
0.0477145
0.047957
0.0481933
0.0484238
0.0486487
0.0488682
0.0490828
0.0492925
0.0494977
0.0496986
0.0498953
0.050088
0.050277
0.0504624
0.0506445
0.0508235
0.0509993
0.0511723
0.0513426
0.0515102
0.0516754
0.0518382
0.0519988
0.0521572
0.0523135
0.0524679
0.0526203
0.052771
0.0529199
0.053067
0.0532125
0.0533563
0.0534985
0.0536391
0.0537782
0.0539156
0.0540514
0.0541856
0.0543181
0.0544489
0.0545779
0.0547052
0.0548305
0.0549539
0.0550753
0.0551945
0.0553115
0.0554261
0.0555383
0.0556479
0.0557547
0.0558588
0.0559599
0.056058
0.0561528
0.0562442
0.0563325
0.0564134
0.0361963
0.0354884
0.0345011
0.0332718
0.0318469
0.0302605
0.0285351
0.0266917
0.024764
0.0228124
0.0209309
0.0192398
0.0178631
0.0168966
0.0163857
0.0163216
0.0166534
0.0173069
0.0182017
0.0192644
0.020434
0.0216643
0.0229216
0.0241827
0.0254314
0.0266568
0.0278519
0.0290123
0.0301354
0.0312203
0.0322666
0.0332747
0.0342455
0.03518
0.0360795
0.0369453
0.0377788
0.0385815
0.0393547
0.0400999
0.0408183
0.0415112
0.0421798
0.0428253
0.0434489
0.0440515
0.0446341
0.0451976
0.045743
0.0462711
0.0467826
0.0472782
0.0477587
0.0482247
0.0486767
0.0491155
0.0495414
0.0499551
0.0503571
0.0507478
0.0511277
0.0514973
0.051857
0.0522071
0.0525482
0.0528806
0.0532047
0.0535208
0.0538294
0.0541307
0.0544251
0.0547129
0.0549944
0.0552699
0.0555396
0.0558039
0.0560629
0.0563168
0.0565659
0.0568105
0.0570508
0.0572868
0.057519
0.0577473
0.057972
0.0581932
0.058411
0.0586256
0.0588372
0.0590458
0.0592515
0.0594544
0.0596546
0.0598522
0.0600472
0.0602397
0.0604297
0.0606172
0.0608023
0.060985
0.0611652
0.061343
0.0615183
0.061691
0.0618612
0.0620286
0.0621934
0.0623553
0.0625143
0.0626703
0.0628232
0.0629727
0.0631189
0.0632616
0.0634006
0.0635358
0.0636671
0.0637942
0.0639172
0.0640357
0.0641501
0.0642558
0.0363185
0.0358964
0.035342
0.0346443
0.0338099
0.0328502
0.0317745
0.0305881
0.0292942
0.0278982
0.0264145
0.0248739
0.0233287
0.0218531
0.0205352
0.0194615
0.0187
0.018288
0.0182293
0.0184992
0.0190539
0.0198402
0.020804
0.0218958
0.0230737
0.0243048
0.0255638
0.0268322
0.0280965
0.0293469
0.0305766
0.0317807
0.0329559
0.0341003
0.0352127
0.0362927
0.0373403
0.0383559
0.0393401
0.0402935
0.0412171
0.0421117
0.0429784
0.0438181
0.0446319
0.0454207
0.0461855
0.0469272
0.0476468
0.0483451
0.0490229
0.049681
0.0503201
0.0509411
0.0515446
0.0521313
0.0527017
0.0532566
0.0537965
0.0543219
0.0548335
0.0553317
0.055817
0.05629
0.0567511
0.0572009
0.0576396
0.058068
0.0584862
0.0588948
0.0592942
0.0596847
0.0600668
0.0604407
0.0608069
0.0611656
0.0615171
0.0618618
0.0621998
0.0625314
0.062857
0.0631767
0.0634909
0.0637998
0.0641035
0.0644023
0.0646963
0.0649856
0.0652705
0.0655512
0.0658276
0.0661
0.0663684
0.0666329
0.0668937
0.0671508
0.0674042
0.067654
0.0679001
0.0681427
0.0683818
0.0686172
0.0688489
0.069077
0.0693014
0.069522
0.0697386
0.0699513
0.0701598
0.0703641
0.0705641
0.0707596
0.0709504
0.0711365
0.0713176
0.0714936
0.0716643
0.0718297
0.0719895
0.0721435
0.0722921
0.0724306
0.0363591
0.0360515
0.0357024
0.0352937
0.0348163
0.0342669
0.0336458
0.0329534
0.032189
0.0313505
0.0304344
0.0294384
0.0283636
0.0272185
0.0260225
0.0248094
0.0236274
0.0225355
0.0215963
0.0208663
0.020387
0.0201807
0.0202495
0.0205783
0.0211397
0.021899
0.0228189
0.0238634
0.0249997
0.0262001
0.0274421
0.0287078
0.0299836
0.0312592
0.0325266
0.0337799
0.0350148
0.0362278
0.0374167
0.0385799
0.0397164
0.0408257
0.0419077
0.0429624
0.0439901
0.0449912
0.0459662
0.0469157
0.0478403
0.0487406
0.0496172
0.0504709
0.0513024
0.0521123
0.0529014
0.0536702
0.0544194
0.0551496
0.0558615
0.0565556
0.0572325
0.0578928
0.058537
0.0591657
0.0597794
0.0603787
0.060964
0.0615359
0.0620949
0.0626415
0.0631761
0.0636992
0.0642112
0.0647125
0.0652036
0.0656848
0.0661565
0.0666191
0.0670729
0.0675182
0.0679553
0.0683844
0.0688059
0.0692201
0.0696273
0.0700277
0.0704214
0.0708088
0.07119
0.0715652
0.0719345
0.0722981
0.0726561
0.0730087
0.0733559
0.0736978
0.0740344
0.074366
0.0746924
0.0750136
0.0753298
0.0756409
0.0759468
0.0762474
0.0765429
0.0768329
0.0771175
0.0773966
0.0776699
0.0779374
0.078199
0.0784545
0.0787036
0.0789463
0.0791825
0.0794118
0.0796342
0.0798495
0.0800575
0.080258
0.0804516
0.0806334
0.0363702
0.0360998
0.0358287
0.035546
0.0352425
0.0349115
0.0345487
0.0341513