/*--------------------------------*- C++ -*----------------------------------*\
  =========                 |
  \\      /  F ield         | OpenFOAM: The Open Source CFD Toolbox
   \\    /   O peration     | Website:  https://openfoam.org
    \\  /    A nd           | Version:  8
     \\/     M anipulation  |
\*---------------------------------------------------------------------------*/
FoamFile
{
    version     2.0;
    format      ascii;
    class       volScalarField;
    location    "700";
    object      p;
}
// * * * * * * * * * * * * * * * * * * * * * * * * * * * * * * * * * * * * * //

dimensions      [0 2 -2 0 0 0 0];

internalField   nonuniform List<scalar> 
7320
(
159.782
153.925
152.015
150.231
148.522
146.826
145.162
143.538
141.946
140.38
138.836
137.312
135.807
134.318
132.844
131.384
129.936
128.501
127.076
125.662
124.258
122.862
121.476
120.097
118.726
117.363
116.006
114.656
113.313
111.976
110.644
109.319
107.998
106.683
105.373
104.068
102.767
101.471
100.179
98.8917
97.6083
96.3287
95.053
93.781
92.5126
91.2477
89.9862
88.728
87.473
86.2211
84.9723
83.7265
82.4836
81.2436
80.0063
78.7717
77.5398
76.3104
75.0836
73.8592
72.6373
71.4177
70.2005
68.9855
67.7727
66.562
65.3535
64.147
62.9425
61.7399
60.5393
59.3406
58.1436
56.9484
55.755
54.5632
53.3731
52.1845
50.9976
49.812
48.628
47.4453
46.264
45.084
43.9053
42.7277
41.5513
40.3761
39.2018
38.0286
36.8563
35.6849
34.5143
33.3445
32.1753
31.0068
29.8389
28.6715
27.5045
26.3378
25.1714
24.0052
22.8391
21.6731
20.507
19.3408
18.1744
17.0077
15.8406
14.6731
13.505
12.3362
11.1668
9.99657
8.82546
7.65339
6.48028
5.30609
4.13064
2.95442
1.77537
0.60979
158.984
153.912
152.016
150.231
148.522
146.826
145.162
143.538
141.946
140.38
138.836
137.312
135.807
134.318
132.844
131.384
129.936
128.501
127.076
125.662
124.258
122.862
121.476
120.097
118.726
117.363
116.006
114.656
113.313
111.976
110.644
109.319
107.998
106.683
105.373
104.068
102.767
101.471
100.179
98.8917
97.6083
96.3287
95.053
93.781
92.5126
91.2477
89.9862
88.728
87.473
86.2211
84.9723
83.7265
82.4836
81.2436
80.0063
78.7717
77.5398
76.3104
75.0836
73.8592
72.6373
71.4177
70.2005
68.9855
67.7727
66.562
65.3535
64.147
62.9425
61.7399
60.5393
59.3406
58.1436
56.9484
55.755
54.5632
53.3731
52.1845
50.9976
49.812
48.628
47.4453
46.264
45.084
43.9053
42.7277
41.5513
40.376
39.2018
38.0286
36.8563
35.6849
34.5143
33.3445
32.1753
31.0068
29.8389
28.6714
27.5045
26.3378
25.1714
24.0052
22.8391
21.6731
20.507
19.3408
18.1744
17.0077
15.8406
14.6731
13.505
12.3362
11.1668
9.99657
8.82546
7.65338
6.48028
5.30608
4.13064
2.95441
1.77537
0.609788
158.779
153.918
152.017
150.232
148.522
146.827
145.163
143.538
141.946
140.38
138.836
137.312
135.807
134.318
132.844
131.384
129.937
128.501
127.076
125.662
124.258
122.862
121.476
120.097
118.726
117.363
116.006
114.656
113.313
111.976
110.644
109.319
107.998
106.683
105.373
104.068
102.767
101.471
100.179
98.8918
97.6083
96.3287
95.053
93.781
92.5126
91.2477
89.9862
88.728
87.473
86.2211
84.9724
83.7265
82.4836
81.2436
80.0063
78.7717
77.5398
76.3104
75.0836
73.8593
72.6373
71.4177
70.2005
68.9855
67.7727
66.562
65.3535
64.147
62.9425
61.7399
60.5393
59.3405
58.1436
56.9484
55.755
54.5632
53.3731
52.1845
50.9975
49.812
48.628
47.4453
46.264
45.084
43.9053
42.7277
41.5513
40.376
39.2018
38.0286
36.8563
35.6849
34.5143
33.3444
32.1753
31.0068
29.8389
28.6714
27.5044
26.3378
25.1714
24.0052
22.8391
21.6731
20.507
19.3408
18.1744
17.0077
15.8406
14.6731
13.505
12.3362
11.1668
9.99656
8.82545
7.65338
6.48027
5.30608
4.13063
2.95441
1.77536
0.609785
158.765
153.925
152.019
150.233
148.523
146.827
145.163
143.539
141.947
140.38
138.836
137.313
135.807
134.318
132.844
131.384
129.937
128.501
127.077
125.662
124.258
122.862
121.476
120.097
118.726
117.363
116.006
114.656
113.313
111.976
110.644
109.319
107.998
106.683
105.373
104.068
102.767
101.471
100.179
98.8918
97.6083
96.3288
95.053
93.781
92.5126
91.2477
89.9862
88.728
87.473
86.2212
84.9724
83.7265
82.4836
81.2436
80.0063
78.7717
77.5398
76.3104
75.0836
73.8593
72.6373
71.4177
70.2005
68.9855
67.7727
66.562
65.3535
64.147
62.9425
61.7399
60.5393
59.3405
58.1436
56.9484
55.755
54.5632
53.3731
52.1845
50.9975
49.812
48.628
47.4453
46.264
45.084
43.9052
42.7277
41.5513
40.376
39.2018
38.0286
36.8563
35.6849
34.5143
33.3444
32.1753
31.0068
29.8389
28.6714
27.5044
26.3378
25.1714
24.0052
22.8391
21.6731
20.507
19.3408
18.1744
17.0077
15.8406
14.673
13.505
12.3362
11.1668
9.99655
8.82544
7.65337
6.48027
5.30607
4.13063
2.9544
1.77536
0.609782
158.737
153.929
152.021
150.234
148.524
146.828
145.164
143.539
141.947
140.381
138.837
137.313
135.807
134.318
132.844
131.384
129.937
128.501
127.077
125.662
124.258
122.862
121.476
120.097
118.726
117.363
116.006
114.657
113.313
111.976
110.644
109.319
107.998
106.683
105.373
104.068
102.767
101.471
100.179
98.8918
97.6083
96.3288
95.0531
93.7811
92.5126
91.2477
89.9862
88.728
87.473
86.2212
84.9724
83.7266
82.4837
81.2436
80.0063
78.7717
77.5398
76.3104
75.0836
73.8593
72.6373
71.4177
70.2005
68.9855
67.7727
66.562
65.3535
64.147
62.9425
61.7399
60.5393
59.3405
58.1436
56.9484
55.755
54.5632
53.3731
52.1845
50.9975
49.812
48.628
47.4453
46.264
45.084
43.9052
42.7277
41.5513
40.376
39.2018
38.0286
36.8563
35.6849
34.5143
33.3444
32.1753
31.0068
29.8389
28.6714
27.5044
26.3377
25.1714
24.0052
22.8391
21.6731
20.507
19.3408
18.1744
17.0077
15.8406
14.673
13.505
12.3362
11.1668
9.99654
8.82544
7.65336
6.48026
5.30606
4.13062
2.95439
1.77535
0.609777
158.696
153.933
152.023
150.235
148.525
146.829
145.164
143.54
141.947
140.381
138.837
137.313
135.808
134.319
132.845
131.384
129.937
128.501
127.077
125.663
124.258
122.863
121.476
120.097
118.726
117.363
116.006
114.657
113.313
111.976
110.645
109.319
107.998
106.683
105.373
104.068
102.767
101.471
100.179
98.8918
97.6084
96.3288
95.0531
93.7811
92.5127
91.2477
89.9862
88.728
87.473
86.2212
84.9724
83.7266
82.4837
81.2436
80.0063
78.7717
77.5398
76.3104
75.0836
73.8593
72.6373
71.4177
70.2005
68.9855
67.7727
66.562
65.3535
64.147
62.9425
61.7399
60.5393
59.3405
58.1436
56.9484
55.755
54.5632
53.3731
52.1845
50.9975
49.812
48.628
47.4453
46.264
45.084
43.9052
42.7277
41.5513
40.376
39.2018
38.0286
36.8563
35.6849
34.5143
33.3444
32.1753
31.0068
29.8389
28.6714
27.5044
26.3377
25.1714
24.0052
22.8391
21.6731
20.507
19.3408
18.1744
17.0077
15.8406
14.673
13.5049
12.3362
11.1668
9.99653
8.82543
7.65335
6.48025
5.30605
4.13061
2.95438
1.77534
0.609771
158.66
153.938
152.026
150.237
148.526
146.83
145.165
143.54
141.948
140.381
138.837
137.313
135.808
134.319
132.845
131.385
129.937
128.502
127.077
125.663
124.258
122.863
121.476
120.097
118.726
117.363
116.006
114.657
113.313
111.976
110.645
109.319
107.998
106.683
105.373
104.068
102.767
101.471
100.179
98.8919
97.6084
96.3288
95.0531
93.7811
92.5127
91.2478
89.9863
88.728
87.4731
86.2212
84.9724
83.7266
82.4837
81.2436
80.0063
78.7717
77.5398
76.3105
75.0836
73.8593
72.6373
71.4178
70.2005
68.9855
67.7727
66.562
65.3535
64.147
62.9425
61.7399
60.5393
59.3405
58.1436
56.9484
55.755
54.5632
53.3731
52.1845
50.9975
49.812
48.6279
47.4453
46.264
45.084
43.9052
42.7277
41.5513
40.376
39.2018
38.0286
36.8563
35.6848
34.5143
33.3444
32.1753
31.0068
29.8388
28.6714
27.5044
26.3377
25.1713
24.0051
22.8391
21.673
20.507
19.3408
18.1744
17.0076
15.8406
14.673
13.5049
12.3362
11.1668
9.99652
8.82541
7.65334
6.48024
5.30604
4.1306
2.95437
1.77533
0.609763
158.633
153.944
152.028
150.239
148.528
146.831
145.166
143.541
141.949
140.382
138.838
137.314
135.808
134.319
132.845
131.385
129.937
128.502
127.077
125.663
124.258
122.863
121.476
120.097
118.727
117.363
116.007
114.657
113.313
111.976
110.645
109.319
107.999
106.683
105.373
104.068
102.767
101.471
100.179
98.8919
97.6084
96.3289
95.0532
93.7812
92.5127
91.2478
89.9863
88.7281
87.4731
86.2212
84.9724
83.7266
82.4837
81.2436
80.0063
78.7718
77.5398
76.3105
75.0836
73.8593
72.6373
71.4178
70.2005
68.9855
67.7727
66.562
65.3535
64.147
62.9425
61.7399
60.5393
59.3405
58.1436
56.9484
55.755
54.5632
53.3731
52.1845
50.9975
49.812
48.6279
47.4453
46.264
45.084
43.9052
42.7277
41.5513
40.376
39.2018
38.0285
36.8563
35.6848
34.5142
33.3444
32.1753
31.0068
29.8388
28.6714
27.5044
26.3377
25.1713
24.0051
22.8391
21.673
20.507
19.3408
18.1744
17.0076
15.8405
14.673
13.5049
12.3362
11.1667
9.99651
8.8254
7.65333
6.48022
5.30602
4.13058
2.95436
1.77531
0.609753
158.611
153.95
152.031
150.242
148.53
146.832
145.167
143.542
141.95
140.383
138.838
137.314
135.809
134.32
132.846
131.385
129.938
128.502
127.077
125.663
124.259
122.863
121.476
120.098
118.727
117.363
116.007
114.657
113.314
111.976
110.645
109.319
107.999
106.684
105.373
104.068
102.767
101.471
100.18
98.892
97.6085
96.329
95.0532
93.7812
92.5128
91.2479
89.9863
88.7281
87.4731
86.2213
84.9725
83.7266
82.4837
81.2437
80.0064
78.7718
77.5398
76.3105
75.0837
73.8593
72.6374
71.4178
70.2005
68.9855
67.7727
66.562
65.3535
64.147
62.9425
61.7399
60.5393
59.3405
58.1436
56.9484
55.755
54.5632
53.3731
52.1845
50.9975
49.812
48.6279
47.4453
46.264
45.084
43.9052
42.7277
41.5513
40.376
39.2018
38.0285
36.8563
35.6848
34.5142
33.3444
32.1753
31.0068
29.8388
28.6714
27.5044
26.3377
25.1713
24.0051
22.8391
21.673
20.5069
19.3407
18.1743
17.0076
15.8405
14.673
13.5049
12.3362
11.1667
9.99649
8.82538
7.65331
6.4802
5.30601
4.13056
2.95434
1.77529
0.60974
158.591
153.957
152.033
150.244
148.532
146.834
145.169
143.543
141.951
140.384
138.839
137.315
135.809
134.32
132.846
131.386
129.938
128.502
127.078
125.663
124.259
122.863
121.477
120.098
118.727
117.363
116.007
114.657
113.314
111.976
110.645
109.319
107.999
106.684
105.374
104.068
102.768
101.471
100.18
98.8921
97.6086
96.329
95.0533
93.7813
92.5128
91.2479
89.9864
88.7282
87.4732
86.2213
84.9725
83.7267
82.4838
81.2437
80.0064
78.7718
77.5399
76.3105
75.0837
73.8593
72.6374
71.4178
70.2005
68.9855
67.7727
66.562
65.3535
64.147
62.9425
61.7399
60.5393
59.3405
58.1436
56.9484
55.755
54.5632
53.3731
52.1845
50.9975
49.812
48.6279
47.4453
46.264
45.0839
43.9052
42.7277
41.5513
40.376
39.2018
38.0285
36.8562
35.6848
34.5142
33.3444
32.1753
31.0067
29.8388
28.6714
27.5044
26.3377
25.1713
24.0051
22.839
21.673
20.5069
19.3407
18.1743
17.0076
15.8405
14.673
13.5049
12.3361
11.1667
9.99647
8.82536
7.65329
6.48018
5.30598
4.13054
2.95432
1.77527
0.609722
158.57
153.965
152.035
150.247
148.534
146.836
145.17
143.545
141.952
140.385
138.84
137.316
135.81
134.321
132.847
131.386
129.939
128.503
127.078
125.664
124.259
122.864
121.477
120.098
118.727
117.364
116.007
114.657
113.314
111.977
110.645
109.319
107.999
106.684
105.374
104.068
102.768
101.472
100.18
98.8922
97.6087
96.3291
95.0534
93.7813
92.5129
91.248
89.9865
88.7282
87.4732
86.2214
84.9726
83.7267
82.4838
81.2437
80.0064
78.7718
77.5399
76.3105
75.0837
73.8593
72.6374
71.4178
70.2005
68.9855
67.7727
66.562
65.3535
64.147
62.9425
61.7399
60.5393
59.3405
58.1436
56.9484
55.755
54.5632
53.3731
52.1845
50.9975
49.812
48.6279
47.4453
46.264
45.0839
43.9052
42.7276
41.5513
40.376
39.2017
38.0285
36.8562
35.6848
34.5142
33.3444
32.1752
31.0067
29.8388
28.6713
27.5043
26.3377
25.1713
24.0051
22.839
21.673
20.5069
19.3407
18.1743
17.0076
15.8405
14.6729
13.5048
12.3361
11.1667
9.99644
8.82533
7.65326
6.48015
5.30596
4.13052
2.95429
1.77525
0.609698
158.547
153.974
152.037
150.249
148.537
146.838
145.172
143.546
141.953
140.386
138.841
137.317
135.811
134.322
132.847
131.387
129.939
128.503
127.079
125.664
124.26
122.864
121.477
120.099
118.728
117.364
116.007
114.658
113.314
111.977
110.645
109.32
107.999
106.684
105.374
104.069
102.768
101.472
100.18
98.8923
97.6088
96.3292
95.0535
93.7815
92.513
91.2481
89.9865
88.7283
87.4733
86.2214
84.9726
83.7268
82.4839
81.2438
80.0065
78.7719
77.5399
76.3106
75.0838
73.8594
72.6374
71.4178
70.2006
68.9855
67.7727
66.5621
65.3535
64.147
62.9425
61.74
60.5393
59.3406
58.1436
56.9484
55.755
54.5632
53.3731
52.1845
50.9975
49.812
48.6279
47.4452
46.264
45.0839
43.9052
42.7276
41.5513
40.376
39.2017
38.0285
36.8562
35.6848
34.5142
33.3443
32.1752
31.0067
29.8388
28.6713
27.5043
26.3376
25.1712
24.005
22.839
21.6729
20.5069
19.3407
18.1743
17.0075
15.8405
14.6729
13.5048
12.3361
11.1666
9.99641
8.8253
7.65323
6.48012
5.30593
4.13049
2.95426
1.77522
0.609666
158.521
153.985
152.039
150.251
148.539
146.84
145.174
143.548
141.955
140.387
138.843
137.318
135.812
134.323
132.848
131.388
129.94
128.504
127.079
125.665
124.26
122.865
121.478
120.099
118.728
117.364
116.008
114.658
113.314
111.977
110.646
109.32
107.999
106.684
105.374
104.069
102.768
101.472
100.18
98.8925
97.609
96.3294
95.0536
93.7816
92.5131
91.2482
89.9867
88.7284
87.4734
86.2215
84.9727
83.7269
82.484
81.2439
80.0066
78.772
77.54
76.3106
75.0838
73.8594
72.6375
71.4179
70.2006
68.9856
67.7728
66.5621
65.3535
64.147
62.9425
61.74
60.5394
59.3406
58.1436
56.9484
55.755
54.5632
53.3731
52.1845
50.9975
49.812
48.6279
47.4452
46.2639
45.0839
43.9052
42.7276
41.5512
40.3759
39.2017
38.0285
36.8562
35.6848
34.5142
33.3443
32.1752
31.0067
29.8387
28.6713
27.5043
26.3376
25.1712
24.005
22.839
21.6729
20.5068
19.3406
18.1742
17.0075
15.8404
14.6729
13.5048
12.3361
11.1666
9.99638
8.82527
7.65319
6.48009
5.30589
4.13045
2.95423
1.77518
0.609624
158.491
153.996
152.041
150.252
148.541
146.843
145.176
143.55
141.957
140.389
138.844
137.32
135.813
134.324
132.849
131.389
129.941
128.505
127.08
125.666
124.261
122.865
121.478
120.1
118.728
117.365
116.008
114.658
113.315
111.977
110.646
109.32
108
106.685
105.374
104.069
102.768
101.472
100.18
98.8927
97.6092
96.3296
95.0538
93.7818
92.5133
91.2484
89.9868
88.7286
87.4735
86.2217
84.9728
83.727
82.4841
81.244
80.0067
78.772
77.5401
76.3107
75.0839
73.8595
72.6375
71.4179
70.2007
68.9856
67.7728
66.5621
65.3536
64.1471
62.9426
61.74
60.5394
59.3406
58.1436
56.9485
55.755
54.5632
53.3731
52.1845
50.9975
49.812
48.6279
47.4452
46.2639
45.0839
43.9052
42.7276
41.5512
40.3759
39.2017
38.0285
36.8562
35.6847
34.5141
33.3443
32.1752
31.0067
29.8387
28.6713
27.5043
26.3376
25.1712
24.005
22.8389
21.6729
20.5068
19.3406
18.1742
17.0075
15.8404
14.6728
13.5048
12.336
11.1666
9.99634
8.82523
7.65315
6.48005
5.30585
4.13041
2.95418
1.77514
0.609566
158.455
154.01
152.042
150.254
148.542
146.844
145.178
143.552
141.959
140.391
138.846
137.321
135.815
134.325
132.851
131.39
129.942
128.506
127.081
125.666
124.262
122.866
121.479
120.1
118.729
117.365
116.009
114.659
113.315
111.978
110.646
109.321
108
106.685
105.375
104.069
102.769
101.472
100.181
98.893
97.6094
96.3298
95.054
93.782
92.5135
91.2486
89.987
88.7287
87.4737
86.2218
84.973
83.7271
82.4842
81.2441
80.0068
78.7722
77.5402
76.3108
75.084
73.8596
72.6376
71.418
70.2007
68.9857
67.7729
66.5622
65.3536
64.1471
62.9426
61.74
60.5394
59.3406
58.1437
56.9485
55.755
54.5632
53.3731
52.1845
50.9975
49.812
48.6279
47.4453
46.264
45.0839
43.9052
42.7276
41.5512
40.3759
39.2017
38.0285
36.8562
35.6847
34.5141
33.3443
32.1752
31.0066
29.8387
28.6713
27.5042
26.3376
25.1712
24.005
22.8389
21.6729
20.5068
19.3406
18.1742
17.0074
15.8404
14.6728
13.5047
12.336
11.1665
9.9963
8.82518
7.65311
6.48
5.30581
4.13036
2.95413
1.77509
0.609486
158.414
154.026
152.043
150.255
148.543
146.846
145.18
143.554
141.961
140.393
138.848
137.323
135.817
134.327
132.852
131.391
129.943
128.507
127.082
125.668
124.263
122.867
121.48
120.101
118.73
117.366
116.009
114.659
113.316
111.979
110.647
109.321
108.001
106.685
105.375
104.07
102.769
101.473
100.181
98.8933
97.6097
96.3301
95.0543
93.7823
92.5138
91.2488
89.9872
88.729
87.4739
86.222
84.9732
83.7273
82.4844
81.2443
80.0069
78.7723
77.5403
76.311
75.0841
73.8597
72.6377
71.4181
70.2008
68.9858
67.773
66.5623
65.3537
64.1472
62.9427
61.7401
60.5395
59.3407
58.1437
56.9485
55.7551
54.5633
53.3731
52.1846
50.9976
49.812
48.6279
47.4453
46.264
45.0839
43.9052
42.7276
41.5512
40.3759
39.2017
38.0284
36.8562
35.6847
34.5141
33.3443
32.1751
31.0066
29.8387
28.6712
27.5042
26.3375
25.1711
24.0049
22.8389
21.6728
20.5067
19.3405
18.1741
17.0074
15.8403
14.6728
13.5047
12.3359
11.1665
9.99625
8.82514
7.65306
6.47995
5.30575
4.13031
2.95408
1.77504
0.609377
158.366
154.045
152.044
150.256
148.544
146.846
145.181
143.555
141.962
140.395
138.85
137.325
135.818
134.328
132.854
131.393
129.945
128.508
127.083
125.669
124.264
122.868
121.481
120.102
118.731
117.367
116.01
114.66
113.317
111.979
110.648
109.322
108.001
106.686
105.376
104.07
102.77
101.473
100.181
98.8937
97.6102
96.3305
95.0547
93.7826
92.5141
91.2491
89.9876
88.7293
87.4742
86.2223
84.9734
83.7276
82.4846
81.2445
80.0072
78.7725
77.5405
76.3111
75.0843
73.8599
72.6379
71.4183
70.201
68.9859
67.7731
66.5624
65.3538
64.1473
62.9428
61.7402
60.5396
59.3408
58.1438
56.9486
55.7552
54.5634
53.3732
52.1846
50.9976
49.8121
48.628
47.4453
46.264
45.084
43.9052
42.7276
41.5513
40.3759
39.2017
38.0285
36.8562
35.6847
34.5141
33.3443
32.1751
31.0066
29.8387
28.6712
27.5042
26.3375
25.1711
24.0049
22.8388
21.6728
20.5067
19.3405
18.1741
17.0074
15.8403
14.6727
13.5046
12.3359
11.1664
9.9962
8.82509
7.65301
6.4799
5.3057
4.13025
2.95402
1.77498
0.609225
158.311
154.068
152.045
150.257
148.545
146.847
145.182
143.556
141.963
140.396
138.851
137.327
135.82
134.33
132.855
131.394
129.946
128.51
127.085
125.67
124.265
122.869
121.482
120.103
118.732
117.368
116.011
114.661
113.318
111.98
110.648
109.322
108.002
106.687
105.376
104.071
102.77
101.474
100.182
98.8943
97.6107
96.331
95.0552
93.7831
92.5146
91.2496
89.9879
88.7297
87.4746
86.2226
84.9738
83.7279
82.4849
81.2448
80.0074
78.7728
77.5408
76.3114
75.0845
73.8601
72.6381
71.4185
70.2012
68.9861
67.7733
66.5626
65.354
64.1474
62.9429
61.7403
60.5397
59.3409
58.1439
56.9487
55.7553
54.5634
53.3733
52.1847
50.9977
49.8121
48.6281
47.4454
46.2641
45.084
43.9053
42.7277
41.5513
40.376
39.2017
38.0285
36.8562
35.6847
34.5141
33.3443
32.1751
31.0066
29.8387
28.6712
27.5042
26.3375
25.1711
24.0049
22.8388
21.6728
20.5067
19.3405
18.1741
17.0073
15.8402
14.6727
13.5046
12.3358
11.1664
9.99616
8.82504
7.65296
6.47985
5.30565
4.1302
2.95396
1.77493
0.609014
158.247
154.094
152.046
150.258
148.546
146.848
145.182
143.557
141.964
140.397
138.852
137.328
135.822
134.332
132.857
131.396
129.948
128.512
127.087
125.672
124.267
122.871
121.483
120.104
118.733
117.369
116.012
114.662
113.319
111.981
110.649
109.323
108.003
106.688
105.377
104.072
102.771
101.475
100.183
98.895
97.6113
96.3316
95.0558
93.7837
92.5151
91.2501
89.9885
88.7301
87.4751
86.2231
84.9742
83.7283
82.4853
81.2452
80.0078
78.7731
77.5411
76.3117
75.0848
73.8604
72.6384
71.4188
70.2014
68.9864
67.7735
66.5628
65.3542
64.1476
62.9431
61.7405
60.5399
59.3411
58.1441
56.9489
55.7554
54.5636
53.3734
52.1848
50.9978
49.8122
48.6282
47.4455
46.2641
45.0841
43.9053
42.7278
41.5514
40.376
39.2018
38.0285
36.8562
35.6848
34.5142
33.3443
32.1752
31.0066
29.8387
28.6712
27.5042
26.3375
25.1711
24.0049
22.8388
21.6728
20.5067
19.3405
18.1741
17.0073
15.8402
14.6727
13.5046
12.3358
11.1664
9.99612
8.825
7.65291
6.4798
5.30559
4.13014
2.95389
1.77487
0.608721
158.173
154.125
152.048
150.259
148.547
146.849
145.183
143.557
141.964
140.397
138.853
137.328
135.822
134.333
132.858
131.398
129.95
128.513
127.088
125.673
124.268
122.872
121.485
120.106
118.735
117.371
116.014
114.664
113.32
111.982
110.651
109.325
108.004
106.689
105.378
104.073
102.772
101.476
100.184
98.8958
97.6121
96.3324
95.0565
93.7844
92.5158
91.2508
89.9891
88.7308
87.4756
86.2237
84.9748
83.7288
82.4858
81.2457
80.0083
78.7736
77.5416
76.3121
75.0852
73.8608
72.6388
71.4191
70.2018
68.9867
67.7738
66.5631
65.3545
64.1479
62.9434
61.7408
60.5401
59.3413
58.1443
56.9491
55.7556
54.5638
53.3736
52.185
50.998
49.8124
48.6283
47.4456
46.2643
45.0842
43.9055
42.7279
41.5515
40.3762
39.2019
38.0286
36.8563
35.6849
34.5143
33.3444
32.1752
31.0067
29.8388
28.6713
27.5043
26.3376
25.1712
24.0049
22.8389
21.6728
20.5067
19.3405
18.1741
17.0073
15.8402
14.6727
13.5045
12.3358
11.1663
9.99609
8.82497
7.65288
6.47976
5.30555
4.1301
2.95383
1.77482
0.60831
158.089
154.16
152.05
150.261
148.548
146.85
145.183
143.558
141.965
140.398
138.853
137.329
135.823
134.333
132.859
131.398
129.951
128.515
127.09
125.675
124.27
122.874
121.487
120.108
118.736
117.372
116.015
114.665
113.321
111.984
110.652
109.326
108.005
106.69
105.379
104.074
102.773
101.477
100.185
98.8968
97.6131
96.3334
95.0575
93.7853
92.5167
91.2516
89.9899
88.7315
87.4764
86.2244
84.9755
83.7295
82.4865
81.2463
80.0089
78.7742
77.5421
76.3127
75.0858
73.8613
72.6393
71.4196
70.2022
68.9871
67.7743
66.5635
65.3549
64.1483
62.9438
61.7412
60.5405
59.3416
58.1446
56.9494
55.7559
54.5641
53.3739
52.1853
50.9982
49.8127
48.6286
47.4458
46.2645
45.0844
43.9057
42.7281
41.5517
40.3763
39.2021
38.0288
36.8565
35.685
34.5144
33.3445
32.1754
31.0068
29.8389
28.6714
27.5044
26.3376
25.1712
24.005
22.8389
21.6729
20.5068
19.3405
18.1741
17.0074
15.8402
14.6727
13.5046
12.3358
11.1664
9.99609
8.82496
7.65287
6.47975
5.30553
4.13007
2.95379
1.77478
0.607737
157.994
154.199
152.052
150.263
148.55
146.851
145.184
143.558
141.965
140.398
138.853
137.329
135.823
134.334
132.859
131.399
129.951
128.515
127.09
125.676
124.271
122.875
121.488
120.109
118.738
117.374
116.017
114.667
113.323
111.985
110.653
109.327
108.007
106.691
105.381
104.075
102.774
101.478
100.186
98.898
97.6143
96.3345
95.0586
93.7863
92.5177
91.2526
89.9909
88.7325
87.4773
86.2253
84.9764
83.7304
82.4873
81.2471
80.0097
78.7749
77.5429
76.3134
75.0865
73.862
72.6399
71.4202
70.2029
68.9877
67.7748
66.5641
65.3554
64.1488
62.9443
61.7416
60.5409
59.3421
58.1451
56.9498
55.7563
54.5645
53.3743
52.1857
50.9986
49.813
48.6289
47.4462
46.2648
45.0847
43.9059
42.7284
41.5519
40.3766
39.2023
38.029
36.8567
35.6852
34.5146
33.3447
32.1756
31.007
29.839
28.6716
27.5045
26.3378
25.1714
24.0051
22.839
21.673
20.5069
19.3406
18.1742
17.0074
15.8403
14.6727
13.5046
12.3359
11.1664
9.99613
8.825
7.6529
6.47976
5.30554
4.13007
2.95376
1.77477
0.606939
157.888
154.243
152.054
150.265
148.553
146.853
145.186
143.559
141.966
140.399
138.854
137.329
135.823
134.334
132.859
131.399
129.951
128.515
127.09
125.676
124.271
122.876
121.489
120.11
118.739
117.375
116.018
114.668
113.324
111.987
110.655
109.329
108.008
106.693
105.382
104.077
102.776
101.479
100.187
98.8994
97.6156
96.3358
95.0599
93.7876
92.519
91.2538
89.9921
88.7337
87.4785
86.2264
84.9774
83.7314
82.4883
81.2481
80.0106
78.7759
77.5438
76.3143
75.0873
73.8628
72.6407
71.421
70.2036
68.9885
67.7756
66.5648
65.3561
64.1495
62.9449
61.7423
60.5416
59.3427
58.1457
56.9504
55.7569
54.565
53.3748
52.1862
50.9991
49.8135
48.6294
47.4466
46.2653
45.0852
43.9064
42.7288
41.5523
40.377
39.2027
38.0294
36.857
35.6856
34.5149
33.345
32.1759
31.0073
29.8393
28.6718
27.5048
26.338
25.1716
24.0054
22.8393
21.6732
20.5071
19.3408
18.1744
17.0076
15.8405
14.6729
13.5048
12.336
11.1665
9.99624
8.82509
7.65298
6.47984
5.30561
4.13013
2.95378
1.77479
0.605836
157.77
154.291
152.058
150.267
148.555
146.855
145.187
143.561
141.967
140.399
138.855
137.33
135.824
134.334
132.86
131.399
129.951
128.515
127.091
125.676
124.271
122.876
121.489
120.11
118.739
117.375
116.019
114.669
113.325
111.988
110.656
109.33
108.01
106.694
105.384
104.078
102.777
101.481
100.189
98.9009
97.6171
96.3373
95.0613
93.789
92.5204
91.2552
89.9934
88.735
87.4798
86.2277
84.9787
83.7327
82.4896
81.2493
80.0118
78.777
77.5449
76.3154
75.0884
73.8639
72.6418
71.422
70.2046
68.9895
67.7765
66.5657
65.357
64.1504
62.9458
61.7431
60.5424
59.3435
58.1464
56.9512
55.7576
54.5657
53.3755
52.1868
50.9998
49.8141
48.63
47.4472
46.2659
45.0858
43.9069
42.7293
41.5529
40.3775
39.2032
38.0299
36.8575
35.686
34.5154
33.3455
32.1763
31.0077
29.8397
28.6722
27.5051
26.3384
25.172
24.0057
22.8396
21.6735
20.5074
19.3411
18.1746
17.0079
15.8407
14.6731
13.505
12.3362
11.1667
9.99643
8.82527
7.65315
6.48
5.30575
4.13026
2.95386
1.77487
0.604323
157.643
154.341
152.062
150.269
148.558
146.857
145.189
143.562
141.968
140.4
138.855
137.331
135.824
134.335
132.86
131.4
129.952
128.516
127.091
125.676
124.272
122.876
121.489
120.11
118.739
117.375
116.019
114.669
113.325
111.988
110.656
109.331
108.01
106.695
105.385
104.079
102.778
101.482
100.19
98.9023
97.6186
96.3388
95.0628
93.7906
92.5219
91.2567
89.9949
88.7365
87.4812
86.2292
84.9801
83.7341
82.491
81.2507
80.0132
78.7784
77.5462
76.3167
75.0897
73.8651
72.643
71.4233
70.2058
68.9906
67.7777
66.5668
65.3581
64.1515
62.9468
61.7442
60.5434
59.3445
58.1474
56.9521
55.7586
54.5667
53.3764
52.1877
51.0006
49.815
48.6308
47.4481
46.2667
45.0865
43.9077
42.7301
41.5536
40.3782
39.2039
38.0306
36.8582
35.6867
34.516
33.3461
32.1769
31.0083
29.8403
28.6728
27.5057
26.3389
25.1725
24.0062
22.8401
21.674
20.5078
19.3415
18.1751
17.0083
15.8411
14.6735
13.5054
12.3366
11.1671
9.99675
8.82558
7.65344
6.48027
5.30601
4.1305
2.95404
1.77503
0.602277
157.51
154.392
152.067
150.27
148.561
146.859
145.19
143.563
141.97
140.402
138.856
137.332
135.825
134.336
132.861
131.4
129.952
128.516
127.091
125.677
124.272
122.876
121.489
120.11
118.739
117.376
116.019
114.669
113.325
111.988
110.656
109.331
108.01
106.695
105.385
104.079
102.779
101.482
100.19
98.9028
97.6192
96.3396
95.0638
93.7916
92.5231
91.258
89.9963
88.7379
87.4827
86.2307
84.9817
83.7356
82.4925
81.2522
80.0147
78.7799
77.5478
76.3182
75.0912
73.8666
72.6445
71.4247
70.2072
68.992
67.779
66.5682
65.3595
64.1528
62.9481
61.7454
60.5447
59.3457
58.1487
56.9533
55.7598
54.5678
53.3776
52.1889
51.0017
49.8161
48.6319
47.4491
46.2677
45.0876
43.9087
42.731
41.5546
40.3792
39.2048
38.0315
36.8591
35.6876
34.5169
33.3469
32.1777
31.0091
29.8411
28.6736
27.5065
26.3397
25.1732
24.0069
22.8408
21.6746
20.5085
19.3422
18.1757
17.0089
15.8417
14.6741
13.5059
12.3371
11.1676
9.99724
8.82604
7.65389
6.4807
5.30641
4.13089
2.95434
1.77528
0.599562
157.376
154.441
152.073
150.271
148.565
146.862
145.192
143.565
141.971
140.403
138.857
137.333
135.826
134.336
132.862
131.401
129.953
128.517
127.092
125.677
124.272
122.877
121.49
120.111
118.74
117.376
116.019
114.669
113.326
111.988
110.657
109.331
108.01
106.695
105.385
104.079
102.779
101.482
100.191
98.9029
97.6193
96.3397
95.0639
93.7918
92.5233
91.2583
89.9967
88.7384
87.4834
86.2314
84.9826
83.7366
82.4936
81.2535
80.016
78.7813
77.5492
76.3197
75.0927
73.8682
72.6461
71.4263
70.2089
68.9936
67.7806
66.5698
65.361
64.1543
62.9497
61.7469
60.5461
59.3472
58.1501
56.9548
55.7612
54.5692
53.3789
52.1902
51.0031
49.8174
48.6332
47.4504
46.269
45.0888
43.91
42.7323
41.5558
40.3804
39.206
38.0327
36.8603
35.6887
34.518
33.3481
32.1788
31.0102
29.8421
28.6746
27.5075
26.3407
25.1742
24.0079
22.8417
21.6755
20.5094
19.343
18.1765
17.0097
15.8425
14.6749
13.5067
12.3378
11.1683
9.99793
8.82671
7.65453
6.48131
5.307
4.13145
2.95481
1.77565
0.596063
157.248
154.486
152.08
150.271
148.568
146.864
145.194
143.566
141.972
140.404
138.859
137.334
135.827
134.337
132.862
131.402
129.954
128.517
127.092
125.678
124.273
122.877
121.49
120.111
118.74
117.376
116.02
114.669
113.326
111.988
110.657
109.331
108.01
106.695
105.385
104.08
102.779
101.483
100.191
98.903
97.6194
96.3397
95.0639
93.7918
92.5233
91.2583
89.9967
88.7385
87.4834
86.2315
84.9826
83.7367
82.4938
81.2536
80.0163
78.7816
77.5496
76.3202
75.0934
73.8689
72.6469
71.4273
70.2099
68.9948
67.7819
66.5712
65.3625
64.1559
62.9513
61.7486
60.5478
59.3489
58.1518
56.9565
55.7629
54.5709
53.3806
52.1919
51.0047
49.8191
48.6348
47.452
46.2705
45.0904
43.9115
42.7338
41.5572
40.3818
39.2074
38.0341
36.8616
35.6901
34.5194
33.3494
32.1801
31.0115
29.8434
28.6759
27.5087
26.3419
25.1754
24.0091
22.8429
21.6767
20.5105
19.3442
18.1776
17.0108
15.8436
14.6759
13.5077
12.3388
11.1692
9.99885
8.8276
7.6554
6.48216
5.30781
4.13224
2.95549
1.77616
0.591766
157.14
154.523
152.087
150.271
148.571
146.867
145.196
143.568
141.973
140.405
138.859
137.334
135.828
134.338
132.863
131.402
129.954
128.518
127.093
125.678
124.273
122.878
121.49
120.111
118.74
117.377
116.02
114.67
113.326
111.989
110.657
109.331
108.011
106.695
105.385
104.08
102.779
101.483
100.191
98.9031
97.6195
96.3399
95.0641
93.792
92.5235
91.2584
89.9968
88.7386
87.4835
86.2316
84.9827
83.7368
82.4938
81.2537
80.0163
78.7817
77.5497
76.3203
75.0934
73.869
72.647
71.4273
70.21
68.9949
67.7821
66.5714
65.3628
64.1562
62.9517
61.7491
60.5484
59.3496
58.1526
56.9574
55.7639
54.5721
53.3819
52.1932
51.0062
49.8206
48.6364
47.4536
46.2722
45.0921
43.9132
42.7356
41.5591
40.3836
39.2093
38.0359
36.8634
35.6919
34.5211
33.3511
32.1818
31.0132
29.8451
28.6775
27.5103
26.3435
25.1769
24.0106
22.8443
21.6781
20.5119
19.3455
18.179
17.0121
15.8448
14.6771
13.5089
12.34
11.1704
9.99998
8.82871
7.65647
6.48321
5.30884
4.13323
2.95638
1.77683
0.586995
157.072
154.545
152.092
150.271
148.573
146.868
145.197
143.569
141.974
140.406
138.86
137.335
135.828
134.338
132.863
131.403
129.954
128.518
127.093
125.679
124.274
122.878
121.491
120.112
118.741
117.377
116.02
114.67
113.326
111.989
110.657
109.331
108.011
106.696
105.385
104.08
102.779
101.483
100.191
98.9033
97.6197
96.34
95.0642
93.7921
92.5236
91.2586
89.997
88.7387
87.4836
86.2317
84.9828
83.7369
82.4939
81.2538
80.0164
78.7817
77.5497
76.3203
75.0934
73.869
72.647
71.4274
70.2101
68.995
67.7821
66.5714
65.3628
64.1563
62.9517
61.7491
60.5484
59.3496
58.1526
56.9574
55.7639
54.5721
53.3819
52.1933
51.0063
49.8207
48.6366
47.4539
46.2725
45.0925
43.9137
42.7361
41.5596
40.3843
39.21
38.0367
36.8643
35.6928
34.5222
33.3522
32.183
31.0144
29.8464
28.6788
27.5117
26.3449
25.1784
24.012
22.8458
21.6796
20.5134
19.347
18.1805
17.0136
15.8463
14.6786
13.5103
12.3414
11.1718
10.0014
8.83009
7.65783
6.48454
5.31014
4.1345
2.95756
1.7778
0.58328
157.072
154.545
152.092
150.271
148.573
146.868
145.197
143.569
141.974
140.406
138.86
137.335
135.828
134.338
132.863
131.403
129.954
128.518
127.093
125.679
124.274
122.878
121.491
120.112
118.741
117.377
116.02
114.67
113.326
111.989
110.657
109.331
108.011
106.696
105.385
104.08
102.779
101.483
100.191
98.9033
97.6197
96.34
95.0642
93.7921
92.5236
91.2586
89.997
88.7387
87.4836
86.2317
84.9828
83.7369