/*--------------------------------*- C++ -*----------------------------------*\
  =========                 |
  \\      /  F ield         | OpenFOAM: The Open Source CFD Toolbox
   \\    /   O peration     | Website:  https://openfoam.org
    \\  /    A nd           | Version:  8
     \\/     M anipulation  |
\*---------------------------------------------------------------------------*/
FoamFile
{
    version     2.0;
    format      ascii;
    class       surfaceScalarField;
    location    "700";
    object      phi;
}
// * * * * * * * * * * * * * * * * * * * * * * * * * * * * * * * * * * * * * //

dimensions      [0 3 -1 0 0 0 0];

internalField   nonuniform List<scalar> 
14458
(
0.00222126
0.00139905
0.00205682
0.000164437
0.00198942
6.74049e-05
0.00194726
4.21622e-05
0.00191671
3.05481e-05
0.00189296
2.37488e-05
0.00187368
1.92773e-05
0.00185758
1.61013e-05
0.00184386
1.37265e-05
0.00183197
1.18879e-05
0.00182154
1.04253e-05
0.00181231
9.23514e-06
0.00180406
8.24871e-06
0.00179664
7.41863e-06
0.00178993
6.71124e-06
0.00178383
6.10153e-06
0.00177826
5.57107e-06
0.00177315
5.10566e-06
0.00176846
4.69463e-06
0.00176413
4.32866e-06
0.00176013
4.00117e-06
0.00175643
3.70654e-06
0.00175299
3.44042e-06
0.00174979
3.19861e-06
0.00174681
2.97822e-06
0.00174403
2.77657e-06
0.00174144
2.59202e-06
0.00173902
2.42158e-06
0.00173676
2.26423e-06
0.00173464
2.11852e-06
0.00173266
1.98366e-06
0.0017308
1.85783e-06
0.00172906
1.74056e-06
0.00172743
1.63097e-06
0.0017259
1.52925e-06
0.00172447
1.43305e-06
0.00172312
1.34275e-06
0.00172187
1.25777e-06
0.00172069
1.17835e-06
0.00171959
1.1028e-06
0.00171856
1.03149e-06
0.00171759
9.63993e-07
0.00171669
9.01393e-07
0.00171585
8.40767e-07
0.00171507
7.83304e-07
0.00171434
7.28621e-07
0.00171366
6.77601e-07
0.00171304
6.28005e-07
0.00171246
5.80807e-07
0.00171192
5.35637e-07
0.00171143
4.94388e-07
0.00171098
4.52958e-07
0.00171056
4.13367e-07
0.00171019
3.75217e-07
0.00170985
3.40054e-07
0.00170954
3.04678e-07
0.00170927
2.7076e-07
0.00170904
2.37878e-07
0.00170883
2.08874e-07
0.00170865
1.78072e-07
0.0017085
1.48493e-07
0.00170838
1.19651e-07
0.00170829
9.38138e-08
0.00170822
6.66638e-08
0.00170818
4.06271e-08
0.00170817
1.51572e-08
0.00170818
-5.93892e-09
0.00170821
-3.00318e-08
0.00170826
-5.30452e-08
0.00170833
-7.56638e-08
0.00170843
-9.48502e-08
0.00170855
-1.16242e-07
0.00170868
-1.36579e-07
0.00170884
-1.56583e-07
0.00170901
-1.71461e-07
0.0017092
-1.90424e-07
0.00170941
-2.08339e-07
0.00170964
-2.26073e-07
0.00170988
-2.39946e-07
0.00171013
-2.567e-07
0.00171041
-2.72396e-07
0.00171069
-2.87934e-07
0.00171099
-2.97764e-07
0.0017113
-3.12477e-07
0.00171163
-3.2613e-07
0.00171197
-3.39763e-07
0.00171232
-3.4918e-07
0.00171268
-3.61985e-07
0.00171305
-3.73712e-07
0.00171343
-3.85395e-07
0.00171383
-3.90996e-07
0.00171423
-4.01935e-07
0.00171464
-4.11779e-07
0.00171506
-4.2167e-07
0.00171549
-4.27283e-07
0.00171592
-4.36317e-07
0.00171637
-4.44214e-07
0.00171682
-4.52059e-07
0.00171727
-4.54087e-07
0.00171773
-4.61012e-07
0.0017182
-4.66772e-07
0.00171867
-4.72478e-07
0.00171914
-4.74182e-07
0.00171962
-4.78736e-07
0.0017201
-4.82082e-07
0.00172058
-4.85176e-07
0.00172107
-4.83478e-07
0.00172155
-4.85215e-07
0.00172203
-4.85738e-07
0.00172252
-4.85902e-07
0.001723
-4.8312e-07
0.00172348
-4.81681e-07
0.00172396
-4.7906e-07
0.00172443
-4.75862e-07
0.0017249
-4.703e-07
0.00172536
-4.65333e-07
0.00172582
-4.59298e-07
0.00172627
-4.52361e-07
0.00172671
-4.44648e-07
0.00172714
-4.29223e-07
0.00172756
-4.1858e-07
-2.21045e-07
0.00311152
0.00259572
0.00288393
0.000392019
0.00278399
0.000167352
0.00272314
0.000103006
0.0026798
7.38919e-05
0.0026464
5.71462e-05
0.00261943
4.62493e-05
0.00259697
3.8558e-05
0.00257787
3.28293e-05
0.00256135
2.84056e-05
0.00254689
2.48933e-05
0.00253408
2.20395e-05
0.00252265
1.96769e-05
0.00251238
1.76906e-05
0.00250309
1.59991e-05
0.00249465
1.45421e-05
0.00248695
1.32752e-05
0.00247989
1.21641e-05
0.0024734
1.1183e-05
0.00246742
1.031e-05
0.00246189
9.52897e-06
0.00245677
8.82653e-06
0.00245202
8.19206e-06
0.00244761
7.61583e-06
0.00244349
7.09073e-06
0.00243966
6.61041e-06
0.00243608
6.17044e-06
0.00243274
5.76461e-06
0.00242961
5.38997e-06
0.00242669
5.04312e-06
0.00242395
4.72185e-06
0.00242139
4.42244e-06
0.00241899
4.14339e-06
0.00241673
3.88269e-06
0.00241462
3.64006e-06
0.00241265
3.41131e-06
0.00241079
3.19657e-06
0.00240906
2.99454e-06
0.00240743
2.80524e-06
0.00240591
2.6257e-06
0.00240448
2.45621e-06
0.00240315
2.29584e-06
0.00240191
2.14607e-06
0.00240075
2.00206e-06
0.00239966
1.8655e-06
0.00239866
1.73563e-06
0.00239772
1.61364e-06
0.00239685
1.49586e-06
0.00239605
1.38369e-06
0.00239531
1.27643e-06
0.00239463
1.17692e-06
0.002394
1.07858e-06
0.00239343
9.84503e-07
0.00239291
8.94007e-07
0.00239244
8.09389e-07
0.00239202
7.25557e-07
0.00239165
6.45067e-07
0.00239132
5.67245e-07
0.00239103
4.96441e-07
0.00239079
4.23675e-07
0.00239058
3.53688e-07
0.00239042
2.85712e-07
0.00239029
2.23212e-07
0.0023902
1.59387e-07
0.00239014
9.80273e-08
0.00239011
3.8305e-08
0.00239012
-1.39194e-08
0.00239016
-7.02479e-08
0.00239024
-1.24228e-07
0.00239034
-1.76927e-07
0.00239047
-2.23679e-07
0.00239062
-2.73336e-07
0.00239081
-3.20784e-07
0.00239102
-3.67094e-07
0.00239125
-4.04857e-07
0.00239151
-4.48582e-07
0.00239179
-4.9015e-07
0.0023921
-5.30889e-07
0.00239242
-5.65133e-07
0.00239277
-6.03464e-07
0.00239314
-6.3969e-07
0.00239352
-6.7515e-07
0.00239393
-7.01249e-07
0.00239435
-7.34672e-07
0.00239479
-7.66007e-07
0.00239524
-7.96844e-07
0.00239572
-8.20712e-07
0.0023962
-8.4954e-07
0.00239671
-8.76299e-07
0.00239722
-9.02531e-07
0.00239775
-9.1886e-07
0.00239829
-9.43272e-07
0.00239885
-9.65576e-07
0.00239941
-9.87516e-07
0.00239999
-1.0024e-06
0.00240057
-1.0223e-06
0.00240117
-1.04002e-06
0.00240177
-1.05722e-06
0.00240238
-1.0649e-06
0.002403
-1.07991e-06
0.00240363
-1.09267e-06
0.00240426
-1.10487e-06
0.00240489
-1.11037e-06
0.00240553
-1.1199e-06
0.00240618
-1.12706e-06
0.00240682
-1.13331e-06
0.00240747
-1.13153e-06
0.00240812
-1.13466e-06
0.00240877
-1.13535e-06
0.00240942
-1.13491e-06
0.00241006
-1.12928e-06
0.00241071
-1.1252e-06
0.00241134
-1.11872e-06
0.00241198
-1.11072e-06
0.0024126
-1.09835e-06
0.00241322
-1.08637e-06
0.00241384
-1.07223e-06
0.00241444
-1.05581e-06
0.00241503
-1.03771e-06
0.0024156
-1.00067e-06
0.00241616
-9.81857e-07
-5.13725e-07
0.00403426
0.00368821
0.00373892
0.000687361
0.00360103
0.000305244
0.00351841
0.000185629
0.00346051
0.000131792
0.00341635
0.000101302
0.00338092
8.16804e-05
0.00335155
6.79328e-05
0.00332663
5.77426e-05
0.00330514
4.99e-05
0.00328634
4.36887e-05
0.00326973
3.86517e-05
0.00325492
3.44879e-05
0.00324162
3.09916e-05
0.0032296
2.8017e-05
0.00321869
2.54571e-05
0.00320873
2.32327e-05
0.00319961
2.12831e-05
0.00319123
1.95622e-05
0.00318351
1.80319e-05
0.00317637
1.66635e-05
0.00316977
1.54331e-05
0.00316364
1.4322e-05
0.00315794
1.33134e-05
0.00315264
1.23945e-05
0.00314769
1.15542e-05
0.00314308
1.07842e-05
0.00313877
1.00745e-05
0.00313474
9.41954e-06
0.00313097
8.81327e-06
0.00312744
8.2515e-06
0.00312414
7.72833e-06
0.00312104
7.2408e-06
0.00311814
6.78544e-06
0.00311542
6.36102e-06
0.00311287
5.96159e-06
0.00311048
5.58665e-06
0.00310824
5.23398e-06
0.00310614
4.90308e-06
0.00310418
4.58974e-06
0.00310234
4.29395e-06
0.00310062
4.01414e-06
0.00309901
3.75175e-06
0.00309752
3.50051e-06
0.00309612
3.26223e-06
0.00309482
3.03566e-06
0.00309361
2.82202e-06
0.00309249
2.61655e-06
0.00309145
2.42079e-06
0.0030905
2.23368e-06
0.00308962
2.0585e-06
0.00308881
1.88697e-06
0.00308807
1.72285e-06
0.0030874
1.56508e-06
0.00308679
1.4164e-06
0.00308625
1.27037e-06
0.00308576
1.13013e-06
0.00308533
9.94707e-07
0.00308496
8.69365e-07
0.00308464
7.42934e-07
0.00308438
6.21313e-07
0.00308416
5.0341e-07
0.00308399
3.93467e-07
0.00308386
2.82989e-07
0.00308379
1.76736e-07
0.00308375
7.35577e-08
0.00308376
-1.94217e-08
0.0030838
-1.16538e-07
0.00308389
-2.09665e-07
0.00308401
-3.00292e-07
0.00308417
-3.8268e-07
0.00308437
-4.67844e-07
0.00308459
-5.49336e-07
0.00308486
-6.28612e-07
0.00308515
-6.96602e-07
0.00308547
-7.71239e-07
0.00308582
-8.42344e-07
0.0030862
-9.11726e-07
0.00308661
-9.72395e-07
0.00308704
-1.03749e-06
0.0030875
-1.09921e-06
0.00308799
-1.15935e-06
0.00308849
-1.20737e-06
0.00308902
-1.26388e-06
0.00308957
-1.31706e-06
0.00309015
-1.36908e-06
0.00309074
-1.41193e-06
0.00309135
-1.46041e-06
0.00309198
-1.50565e-06
0.00309262
-1.54971e-06
0.00309329
-1.58108e-06
0.00309397
-1.62193e-06
0.00309466
-1.65948e-06
0.00309537
-1.69608e-06
0.00309609
-1.72345e-06
0.00309682
-1.7565e-06
0.00309757
-1.78619e-06
0.00309832
-1.8147e-06
0.00309909
-1.83096e-06
0.00309987
-1.85569e-06
0.00310065
-1.87691e-06
0.00310144
-1.89689e-06
0.00310224
-1.90795e-06
0.00310304
-1.92337e-06
0.00310385
-1.93509e-06
0.00310466
-1.94503e-06
0.00310547
-1.94438e-06
0.00310629
-1.94902e-06
0.0031071
-1.94979e-06
0.00310791
-1.94844e-06
0.00310872
-1.93988e-06
0.00310953
-1.93241e-06
0.00311033
-1.92106e-06
0.00311113
-1.90706e-06
0.00311191
-1.88688e-06
0.00311269
-1.86623e-06
0.00311346
-1.84199e-06
0.00311422
-1.8139e-06
0.00311496
-1.78319e-06
0.00311568
-1.71879e-06
0.00311639
-1.6895e-06
-8.78958e-07
0.00509521
0.00469385
0.00472975
0.00105283
0.00454516
0.00048983
0.00443475
0.000296044
0.00435841
0.000208123
0.00430083
0.000158889
0.00425496
0.000127547
0.00421713
0.000105763
0.00418516
8.97085e-05
0.00415766
7.74026e-05
0.00413366
6.76862e-05
0.00411249
5.98255e-05
0.00409364
5.334e-05
0.00407673
4.79025e-05
0.00406146
4.32821e-05
0.00404761
3.93103e-05
0.00403498
3.58621e-05
0.00402342
3.28424e-05
0.00401281
3.01785e-05
0.00400303
2.78113e-05
0.00399399
2.56955e-05
0.00398563
2.37942e-05
0.00397788
2.20777e-05
0.00397067
2.05203e-05
0.00396396
1.91019e-05
0.00395771
1.78053e-05
0.00395188
1.66172e-05
0.00394643
1.55228e-05
0.00394134
1.45129e-05
0.00393657
1.35785e-05
0.00393211
1.27125e-05
0.00392793
1.19064e-05
0.00392402
1.11554e-05
0.00392035
1.04542e-05
0.00391691
9.80005e-06
0.00391369
9.18512e-06
0.00391067
8.60797e-06
0.00390784
8.06519e-06
0.00390519
7.55555e-06
0.0039027
7.07343e-06
0.00390038
6.61832e-06
0.0038982
6.18787e-06
0.00389617
5.78335e-06
0.00389428
5.39687e-06
0.00389251
5.03029e-06
0.00389086
4.68176e-06
0.00388933
4.35246e-06
0.00388791
4.0364e-06
0.0038866
3.73522e-06
0.00388538
3.44739e-06
0.00388427
3.17664e-06
0.00388324
2.91287e-06
0.0038823
2.66045e-06
0.00388145
2.41793e-06
0.00388068
2.18844e-06
0.00387999
1.96415e-06
0.00387937
1.74873e-06
0.00387882
1.54091e-06
0.00387834
1.34685e-06
0.00387793
1.1531e-06
0.00387759
9.66725e-07
0.00387731
7.86307e-07
0.00387708
6.16817e-07
0.00387692
4.48054e-07
0.00387681
2.85704e-07
0.00387675
1.28334e-07
0.00387675
-1.57303e-08
0.0038768
-1.6363e-07
0.00387689
-3.05527e-07
0.00387704
-4.43289e-07
0.00387723
-5.70171e-07
0.00387746
-6.99358e-07
0.00387773
-8.23112e-07
0.00387804
-9.43222e-07
0.0038784
-1.04898e-06
0.00387879
-1.16183e-06
0.00387922
-1.26951e-06
0.00387968
-1.37428e-06
0.00388017
-1.46786e-06
0.0038807
-1.56597e-06
0.00388126
-1.65922e-06
0.00388185
-1.74981e-06
0.00388247
-1.82527e-06
0.00388312
-1.9102e-06
0.00388379
-1.9904e-06
0.00388449
-2.06852e-06
0.00388521
-2.13509e-06
0.00388596
-2.20777e-06
0.00388673
-2.27589e-06
0.00388752
-2.34196e-06
0.00388833
-2.39232e-06
0.00388916
-2.45341e-06
0.00389001
-2.50989e-06
0.00389088
-2.56462e-06
0.00389177
-2.60775e-06
0.00389267
-2.65706e-06
0.00389358
-2.70168e-06
0.00389451
-2.74428e-06
0.00389545
-2.77163e-06
0.0038964
-2.80847e-06
0.00389737
-2.84038e-06
0.00389834
-2.87013e-06
0.00389932
-2.88857e-06
0.00390031
-2.91145e-06
0.0039013
-2.92913e-06
0.0039023
-2.94395e-06
0.0039033
-2.94532e-06
0.0039043
-2.95215e-06
0.00390531
-2.95348e-06
0.00390631
-2.95144e-06
0.00390731
-2.9399e-06
0.0039083
-2.92871e-06
0.00390929
-2.91197e-06
0.00391028
-2.89115e-06
0.00391125
-2.86193e-06
0.00391222
-2.83123e-06
0.00391317
-2.79535e-06
0.00391411
-2.75356e-06
0.00391503
-2.70796e-06
0.00391592
-2.61019e-06
0.0039168
-2.57242e-06
-1.33614e-06
0.00634387
0.00561001
0.00590982
0.00148688
0.00566913
0.000730516
0.00552327
0.000441905
0.00542325
0.000308149
0.0053485
0.000233634
0.00528942
0.000186629
0.00524096
0.000154221
0.00520019
0.000130483
0.00516522
0.000112372
0.00513478
9.81219e-05
0.00510798
8.66261e-05
0.00508416
7.71629e-05
0.00506282
6.92434e-05
0.00504358
6.25245e-05
0.00502613
5.67562e-05
0.00501024
5.17539e-05
0.0049957
4.73776e-05
0.00498236
4.35198e-05
0.00497008
4.00944e-05
0.00495874
3.70349e-05
0.00494825
3.42871e-05
0.00493852
3.18077e-05
0.00492948
2.95592e-05
0.00492107
2.75123e-05
0.00491323
2.56419e-05
0.00490592
2.39283e-05
0.00489909
2.23507e-05
0.00489271
2.08954e-05
0.00488674
1.95491e-05
0.00488115
1.83016e-05
0.00487592
1.7141e-05
0.00487101
1.606e-05
0.00486642
1.50507e-05
0.00486211
1.41089e-05
0.00485807
1.32242e-05
0.00485428
1.23941e-05
0.00485074
1.16136e-05
0.00484741
1.08803e-05
0.0048443
1.01872e-05
0.00484138
9.53299e-06
0.00483866
8.91428e-06
0.00483611
8.33193e-06
0.00483373
7.77652e-06
0.00483151
7.24968e-06
0.00482944
6.74883e-06
0.00482752
6.2749e-06
0.00482574
5.82075e-06
0.00482408
5.38795e-06
0.00482256
4.97442e-06
0.00482115
4.58404e-06
0.00481986
4.20522e-06
0.00481868
3.84271e-06
0.0048176
3.49457e-06
0.00481662
3.16416e-06
0.00481575
2.84245e-06
0.00481496
2.53355e-06
0.00481427
2.23575e-06
0.00481366
1.95583e-06
0.00481313
1.67857e-06
0.00481269
1.41192e-06
0.00481232
1.15406e-06
0.00481203
9.1053e-07
0.0048118
6.69702e-07
0.00481165
4.38069e-07
0.00481157
2.13797e-07
0.00481154
6.09611e-09
0.00481159
-2.04401e-07
0.00481169
-4.06391e-07
0.00481185
-6.02204e-07
0.00481206
-7.84274e-07
0.00481233
-9.67574e-07
0.00481265
-1.14323e-06
0.00481302
-1.31351e-06
0.00481344
-1.46644e-06
0.0048139
-1.62615e-06
0.00481441
-1.77868e-06
0.00481496
-1.92684e-06
0.00481556
-2.06131e-06
0.00481619
-2.19988e-06
0.00481686
-2.33176e-06
0.00481757
-2.45968e-06
0.00481832
-2.5697e-06
0.0048191
-2.68945e-06
0.00481991
-2.80276e-06
0.00482075
-2.91292e-06
0.00482163
-3.0092e-06
0.00482253
-3.11155e-06
0.00482346
-3.20776e-06
0.00482442
-3.30091e-06
0.0048254
-3.37564e-06
0.00482641
-3.46165e-06
0.00482744
-3.54143e-06
0.0048285
-3.61854e-06
0.00482957
-3.68178e-06
0.00483066
-3.75121e-06
0.00483178
-3.81436e-06
0.00483291
-3.8745e-06
0.00483405
-3.91672e-06
0.00483521
-3.9687e-06
0.00483639
-4.01406e-06
0.00483757
-4.05621e-06
0.00483877
-4.08467e-06
0.00483997
-4.11718e-06
0.00484119
-4.14268e-06
0.0048424
-4.16405e-06
0.00484363
-4.16926e-06
0.00484486
-4.17943e-06
0.00484608
-4.18214e-06
0.00484731
-4.18001e-06
0.00484854
-4.16597e-06
0.00484976
-4.15108e-06
0.00485098
-4.1286e-06
0.00485218
-4.10037e-06
0.00485338
-4.06147e-06
0.00485457
-4.01947e-06
0.00485574
-3.97031e-06
0.0048569
-3.91285e-06
0.00485804
-3.8503e-06
0.00485915
-3.71266e-06
0.00486024
-3.66409e-06
-1.90002e-06
0.00782498
0.00642447
0.00732969
0.00198217
0.00702383
0.00103637
0.00683327
0.00063246
0.00670272
0.000438697
0.00660586
0.000330498
0.00652983
0.00026266
0.00646783
0.000216225
0.00641588
0.000182424
0.00637149
0.000156762
0.00633297
0.000136649
0.00629912
0.000120474
0.00626909
0.000107194
0.00624223
9.61042e-05
0.00621804
8.67121e-05
0.00619614
7.86613e-05
0.0061762
7.16889e-05
0.00615798
6.55958e-05
0.00614127
6.02299e-05
0.0061259
5.54698e-05
0.00611171
5.12215e-05
0.00609859
4.74088e-05
0.00608643
4.39704e-05
0.00607513
4.08541e-05
0.00606463
3.80188e-05
0.00605484
3.54292e-05
0.00604571
3.30573e-05
0.00603719
3.08749e-05
0.00602922
2.88624e-05
0.00602177
2.70014e-05
0.00601479
2.52773e-05
0.00600826
2.36739e-05
0.00600214
2.21808e-05
0.0059964
2.07873e-05
0.00599102
1.94867e-05
0.00598598
1.82659e-05
0.00598126
1.71205e-05
0.00597683
1.60437e-05
0.00597267
1.5032e-05
0.00596879
1.40762e-05
0.00596514
1.31741e-05
0.00596174
1.23212e-05
0.00595855
1.15175e-05
0.00595558
1.0752e-05
0.0059528
1.00258e-05
0.00595021
9.33554e-06
0.00594781
8.68178e-06
0.00594557
8.05599e-06
0.0059435
7.45962e-06
0.00594159
6.88992e-06
0.00593982
6.35094e-06
0.0059382
5.8293e-06
0.00593671
5.33016e-06
0.00593535
4.85103e-06
0.00593412
4.39549e-06
0.00593301
3.95312e-06
0.00593202
3.52845e-06
0.00593113
3.1193e-06
0.00593035
2.73319e-06
0.00592968
2.35277e-06
0.00592911
1.987e-06
0.00592863
1.63359e-06
0.00592824
1.29871e-06
0.00592794
9.69104e-07
0.00592773
6.52114e-07
0.00592759
3.45487e-07
0.00592754
5.94906e-08
0.00592756
-2.27949e-07
0.00592766
-5.03912e-07
0.00592783
-7.711e-07
0.00592807
-1.02107e-06
0.00592837
-1.27083e-06
0.00592874
-1.51029e-06
0.00592917
-1.7422e-06
0.00592965
-1.95312e-06
0.0059302
-2.17035e-06
0.0059308
-2.37802e-06
0.00593145
-2.5795e-06
0.00593215
-2.76429e-06
0.00593291
-2.95255e-06
0.00593371
-3.13197e-06
0.00593455
-3.30585e-06
0.00593544
-3.45848e-06
0.00593637
-3.62109e-06
0.00593734
-3.77526e-06
0.00593836
-3.92493e-06
0.00593941
-4.05799e-06
0.00594049
-4.197e-06
0.00594161
-4.32802e-06
0.00594276
-4.45474e-06
0.00594395
-4.55981e-06
0.00594516
-4.67675e-06
0.00594641
-4.78563e-06
0.00594768
-4.89068e-06
0.00594898
-4.9792e-06
0.0059503
-5.07385e-06
0.00595164
-5.16038e-06
0.00595301
-5.24271e-06
0.0059544
-5.30391e-06
0.00595581
-5.37518e-06
0.00595723
-5.4379e-06
0.00595867
-5.4961e-06
0.00596012
-5.53782e-06
0.00596159
-5.58307e-06
0.00596306
-5.61923e-06
0.00596455
-5.64972e-06
0.00596604
-5.66078e-06
0.00596754
-5.67621e-06
0.00596904
-5.68192e-06
0.00597054
-5.68097e-06
0.00597204
-5.66526e-06
0.00597353
-5.64722e-06
0.00597502
-5.61925e-06
0.0059765
-5.58345e-06
0.00597798
-5.53415e-06
0.00597943
-5.47992e-06
0.00598088
-5.41628e-06
0.00598231
-5.34133e-06
0.00598372
-5.25963e-06
0.00598508
-5.07502e-06
0.00598643
-5.0179e-06
-2.60146e-06
0.00958315
0.0071223
0.00904307
0.00252225
0.0086654
0.00141405
0.00841974
0.000878121
0.00825013
0.000608299
0.00812471
0.000455923
0.00802681
0.000360557
0.0079474
0.000295639
0.00788117
0.000248652
0.00782478
0.000213154
0.00777598
0.000185445
0.00773322
0.000163238
0.00769536
0.000145057
0.00766155
0.000129911
0.00763115
0.000117109
0.00760366
0.000106156
0.00757866
9.66833e-05
0.00755584
8.84165e-05
0.00753493
8.11446e-05
0.0075157
7.47005e-05
0.00749797
6.89546e-05
0.00748157
6.38019e-05
0.00746638
5.91585e-05
0.00745229
5.49531e-05
0.00743917
5.11292e-05
0.00742697
4.76386e-05
0.00741558
4.44427e-05
0.00740495
4.15039e-05
0.00739502
3.87952e-05
0.00738573
3.62913e-05
0.00737703
3.39721e-05
0.00736889
3.18165e-05
0.00736126
2.98098e-05
0.00735411
2.79375e-05
0.00734741
2.619e-05
0.00734113
2.45507e-05
0.00733523
2.3013e-05
0.00732971
2.15679e-05
0.00732453
2.02098e-05
0.00731968
1.89276e-05
0.00731514
1.77176e-05
0.00731088
1.65737e-05
0.00730691
1.54951e-05
0.00730319
1.44686e-05
0.00729972
1.34951e-05
0.00729649
1.25698e-05
0.00729348
1.16929e-05
0.00729068
1.08543e-05
0.00728808
1.00552e-05
0.00728568
9.29199e-06
0.00728346
8.56869e-06
0.00728142
7.87025e-06
0.00727955
7.20209e-06
0.00727784
6.56098e-06
0.00727629
5.9506e-06
0.00727488
5.35921e-06
0.00727362
4.79167e-06
0.00727249
4.24519e-06
0.0072715
3.72777e-06
0.00727063
3.22028e-06
0.00726988
2.7325e-06
0.00726926
2.26154e-06
0.00726874
1.81407e-06
0.00726833
1.37537e-06
0.00726803
9.5356e-07
0.00726783
5.45808e-07
0.00726773
1.63241e-07
0.00726772
-2.18537e-07
0.0072678
-5.85266e-07
0.00726797
-9.40049e-07
0.00726822
-1.27367e-06
0.00726856
-1.60493e-06
0.00726897
-1.92261e-06
0.00726946
-2.2301e-06
0.00727002
-2.51282e-06
0.00727065
-2.80057e-06
0.00727135
-3.07583e-06
0.00727211
-3.34274e-06
0.00727293
-3.58972e-06
0.00727382
-3.83896e-06
0.00727477
-4.07676e-06
0.00727577
-4.30713e-06
0.00727682
-4.51294e-06
0.00727793
-4.72825e-06
0.00727909
-4.93271e-06
0.00728029
-5.13109e-06
0.00728154
-5.31003e-06
0.00728284
-5.49429e-06
0.00728418
-5.66834e-06
0.00728556
-5.83663e-06
0.00728698
-5.98021e-06
0.00728844
-6.13553e-06
0.00728994
-6.2806e-06
0.00729147
-6.4205e-06
0.00729303
-6.54117e-06
0.00729462
-6.66739e-06
0.00729624
-6.78333e-06
0.00729789
-6.89367e-06
0.00729957
-6.97982e-06
0.00730127
-7.07564e-06
0.00730299
-7.16063e-06
0.00730474
-7.23957e-06
0.0073065
-7.29914e-06
0.00730828
-7.36118e-06
0.00731007
-7.41168e-06
0.00731187
-7.45468e-06
0.00731369
-7.47501e-06
0.00731551
-7.49837e-06
0.00731733
-7.50931e-06
0.00731916
-7.51148e-06
0.00732099
-7.49577e-06
0.00732282
-7.47568e-06
0.00732465
-7.44281e-06
0.00732646
-7.3997e-06
0.00732827
-7.34004e-06
0.00733006
-7.27291e-06
0.00733184
-7.19354e-06
0.00733359
-7.09936e-06
0.00733533
-6.99662e-06
0.00733701
-6.75716e-06
0.00733868
-6.68888e-06
-3.46513e-06
0.0116649
0.00769175
0.0111083
0.00307885
0.0106583
0.00186413
0.0103471
0.00118928
0.0101283
0.000827099
0.00996616
0.000618059
0.00984002
0.000486701
0.00973813
0.000397523
0.00965352
0.000333269
0.00958173
0.000284942
0.0095198
0.000247371
0.00946568
0.000217366
0.00941786
0.000192875
0.00937524
0.000172525
0.00933699
0.000155364
0.00930244
0.000140709
0.00927106
0.000128057
0.00924245
0.000117032
0.00921625
0.000107346
0.00919217
9.87732e-05
0.00916999
9.11373e-05
0.0091495
8.42962e-05
0.00913052
7.81364e-05
0.00911291
7.25622e-05
0.00909654
6.74972e-05
0.0090813
6.28767e-05
0.0090671
5.86485e-05
0.00905384
5.47629e-05
0.00904145
5.11834e-05
0.00902987
4.78761e-05
0.00901903
4.48139e-05
0.00900887
4.19692e-05
0.00899936
3.93219e-05
0.00899045
3.68528e-05
0.00898209
3.45484e-05
0.00897425
3.23881e-05
0.0089669
3.03623e-05
0.00896001
2.84589e-05
0.00895355
2.66703e-05
0.0089475
2.49823e-05
0.00894182
2.33897e-05
0.00893651
2.18844e-05
0.00893154
2.04645e-05
0.0089269
1.91143e-05
0.00892256
1.78339e-05
0.00891851
1.66171e-05
0.00891474
1.54634e-05
0.00891124
1.43611e-05
0.00890798
1.33108e-05
0.00890496
1.2308e-05
0.00890218
1.13565e-05
0.00889961
1.04394e-05
0.00889725
9.5622e-06
0.00889509
8.7209e-06
0.00889312
7.91926e-06
0.00889133
7.14391e-06
0.00888973
6.40008e-06
0.00888829
5.68426e-06
0.00888701
5.00504e-06
0.00888589
4.34107e-06
0.00888492
3.70307e-06
0.00888409
3.08745e-06
0.00888341
2.50149e-06
0.00888285
1.92868e-06
0.00888243
1.37801e-06
0.00888213
8.45985e-07
0.00888195
3.44885e-07
0.00888188
-1.52672e-07
0.00888193
-6.30943e-07
0.00888208
-1.09339e-06
0.00888234
-1.52984e-06
0.00888269
-1.96122e-06
0.00888315
-2.37508e-06
0.00888369
-2.77552e-06
0.00888432
-3.14646e-06
0.00888505
-3.52092e-06
0.00888585
-3.87939e-06
0.00888673
-4.22683e-06
0.00888769
-4.55041e-06
0.00888873
-4.87477e-06
0.00888984
-5.18459e-06
0.00889101
-5.48469e-06
0.00889226
-5.75612e-06
0.00889357
-6.03654e-06
0.00889494
-6.30327e-06
0.00889637
-6.56199e-06
0.00889786
-6.79784e-06
0.0088994
-7.03824e-06
0.008901
-7.26585e-06
0.00890264
-7.48595e-06
0.00890434
-7.6775e-06
0.00890609
-7.88076e-06
0.00890788
-8.07122e-06
0.00890971
-8.25487e-06
0.00891159
-8.41603e-06
0.0089135
-8.5821e-06
0.00891545
-8.73536e-06
0.00891744
-8.88134e-06
0.00891946
-8.99935e-06
0.00892151
-9.12669e-06
0.00892359
-9.24052e-06
0.0089257
-9.34647e-06
0.00892783
-9.42959e-06
0.00892998
-9.51395e-06
0.00893215
-9.58389e-06
0.00893434
-9.64417e-06
0.00893654
-9.67775e-06
0.00893876
-9.71295e-06
0.00894098
-9.73254e-06
0.00894321
-9.74077e-06
0.00894544
-9.72738e-06
0.00894767
-9.70722e-06
0.0089499
-9.67093e-06
0.00895212
-9.62144e-06
0.00895433
-9.55156e-06
0.00895653
-9.47137e-06
0.00895871
-9.37568e-06
0.00896087
-9.26082e-06
0.00896301
-9.13499e-06
0.00896508
-8.83219e-06
0.00896715
-8.75504e-06
-4.53646e-06
0.0141222
0.00812849
0.0135876
0.00361341
0.013076
0.0023758
0.0126916
0.00157368
0.0124125
0.00110616
0.0122038
0.000826793
0.0120413
0.000649183
0.0119104
0.000528425
0.0118021
0.000441627
0.0117104
0.000376572
0.0116316
0.000326177
0.0115629
0.000286067
0.0115024
0.000253428
0.0114485
0.000226381
0.0114002
0.000203627
0.0113567
0.000184236
0.0113172
0.000167527
0.0112813
0.000152991
0.0112484
0.000140239
0.0112182
0.000128967
0.0111904
0.000118939
0.0111647
0.000109965
0.011141
0.000101892
0.0111189
9.45933e-05
0.0110985
8.79667e-05
0.0110794
8.19261e-05
0.0110617
7.64018e-05
0.0110451
7.13288e-05
0.0110296
6.6658e-05
0.0110152
6.23449e-05
0.0110016
5.83532e-05
0.0109889
5.4647e-05
0.0109771
5.11996e-05
0.0109659
4.79856e-05
0.0109555
4.49865e-05
0.0109457
4.21766e-05
0.0109365
3.95426e-05
0.0109279
3.70685e-05
0.0109198
3.47438e-05
0.0109123
3.2551e-05
0.0109052
3.04827e-05
0.0108985
2.85281e-05
0.0108923
2.66838e-05
0.0108865
2.49316e-05
0.0108811
2.32701e-05
0.010876
2.16917e-05
0.0108713
2.01946e-05
0.0108669
1.87652e-05
0.0108628
1.74037e-05
0.010859
1.6104e-05
0.0108555
1.48698e-05
0.0108522
1.36821e-05
0.0108492
1.25464e-05
0.0108465
1.14576e-05
0.010844
1.04195e-05
0.0108417
9.41708e-06
0.0108397
8.45575e-06
0.0108378
7.53108e-06
0.0108362
6.65203e-06
0.0108347
5.79532e-06
0.0108334
4.97238e-06
0.0108324
4.17872e-06
0.0108314
3.42212e-06
0.0108307
2.68441e-06
0.0108301
1.97533e-06
0.0108296
1.29055e-06
0.0108293
6.43285e-07
0.0108292
3.64131e-09
0.0108292
-6.11598e-07
0.0108293
-1.20643e-06
0.0108295
-1.76967e-06
0.0108299
-2.32415e-06
0.0108304
-2.85626e-06
0.010831
-3.37101e-06
0.0108317
-3.85116e-06
0.0108325
-4.33225e-06
0.0108334
-4.79312e-06
0.0108344
-5.23972e-06
0.0108355
-5.6581e-06
0.0108367
-6.07501e-06
0.010838
-6.47363e-06
0.0108394
-6.85978e-06
0.0108408
-7.21305e-06
0.0108424
-7.57388e-06
0.010844
-7.91762e-06
0.0108457
-8.25104e-06
0.0108474
-8.55793e-06
0.0108493
-8.86797e-06
0.0108512
-9.1621e-06
0.0108531
-9.44665e-06
0.0108551
-9.69887e-06
0.0108572
-9.96191e-06
0.0108594
-1.02091e-05
0.0108615
-1.04476e-05
0.0108638
-1.06602e-05
0.0108661
-1.08764e-05
0.0108684
-1.10768e-05
0.0108708
-1.1268e-05
0.0108732
-1.14274e-05
0.0108757
-1.1595e-05
0.0108782
-1.17459e-05
0.0108808
-1.18868e-05
0.0108833
-1.20012e-05
0.0108859
-1.2115e-05
0.0108886
-1.22109e-05
0.0108912
-1.22946e-05
0.0108939
-1.23474e-05
0.0108966
-1.23996e-05
0.0108993
-1.24324e-05
0.010902
-1.24507e-05
0.0109047
-1.24433e-05
0.0109074
-1.2426e-05
0.0109101
-1.23885e-05
0.0109128
-1.23343e-05
0.0109155
-1.22554e-05
0.0109182
-1.21626e-05
0.0109209
-1.20501e-05
0.0109236
-1.19134e-05
0.0109262
-1.1763e-05
0.0109287
-1.13874e-05
0.0109313
-1.12983e-05
-5.85263e-06
0.0170157
0.00843801
0.0165448
0.00408431
0.0160001
0.0029205
0.0155424
0.00203134
0.0151931
0.00145547
0.0149266
0.00109326
0.0147179
0.000857874
0.0145497
0.000696632
0.0144107
0.000580627
0.0142935
0.000493827
0.0141929
0.000426764
0.0141054
0.000373542
0.0140285
0.000330356
0.0139602
0.000294665
0.0138991
0.000264711
0.0138441
0.00023924
0.0137943
0.000217335
0.013749
0.000198313
0.0137076
0.000181652
0.0136696
0.000166947
0.0136347
0.000153881
0.0136024
0.000142202
0.0135726
0.000131708
0.013545
0.000122229
0.0135193
0.000113631
0.0134954
0.0001058
0.0134732
9.86441e-05
0.0134524
9.20775e-05
0.0134331
8.60356e-05
0.013415
8.04598e-05
0.013398
7.53023e-05
0.0133821
7.05164e-05
0.0133673
6.60671e-05
0.0133533
6.1921e-05
0.0133403
5.80533e-05
0.013328
5.44316e-05
0.0133165
5.1038e-05
0.0133057
4.78517e-05
0.0132956
4.48583e-05
0.0132861
4.20363e-05
0.0132772
3.93751e-05
0.0132689
3.68611e-05
0.0132611
3.44886e-05
0.0132538
3.2236e-05
0.013247
3.01007e-05
0.0132406
2.80727e-05
0.0132346
2.61489e-05
0.0132291
2.43134e-05
0.0132239
2.25655e-05
0.0132191
2.08976e-05
0.0132147
1.93128e-05
0.0132106
1.77896e-05
0.0132068
1.63337e-05
0.0132033
1.49386e-05
0.0132001
1.36079e-05
0.0131972
1.23246e-05
0.0131946
1.10944e-05
0.0131922
9.91173e-06
0.0131901
8.78603e-06
0.0131882
7.69144e-06
0.0131865
6.64032e-06
0.013185
5.62713e-06
0.0131838
4.66017e-06
0.0131828
3.71925e-06
0.0131819
2.81496e-06
0.0131813
1.94197e-06
0.0131808
1.11469e-06
0.0131805
3.0028e-07
0.0131804
-4.83485e-07
0.0131804
-1.24154e-06
0.0131806
-1.96106e-06
0.013181
-2.66731e-06
0.0131814
-3.34531e-06
0.0131821
-4.00111e-06
0.0131828
-4.61588e-06
0.0131837
-5.22858e-06
0.0131848
-5.81594e-06
0.0131859
-6.38506e-06
0.0131872
-6.92057e-06
0.0131885
-7.45191e-06
0.01319
-7.96048e-06
0.0131916
-8.45323e-06
0.0131933
-8.90776e-06
0.0131951
-9.36831e-06
0.013197
-9.80772e-06
0.013199
-1.0234e-05
0.0132011
-1.06292e-05
0.0132032
-1.1026e-05
0.0132055
-1.14031e-05
0.0132078
-1.17682e-05
0.0132102
-1.20961e-05
0.0132127
-1.2434e-05
0.0132152
-1.27526e-05
0.0132178
-1.306e-05
0.0132205
-1.33373e-05
0.0132232
-1.36169e-05
0.013226
-1.38772e-05
0.0132289
-1.41259e-05
0.0132318
-1.43381e-05
0.0132348
-1.45573e-05
0.0132378
-1.47562e-05
0.0132408
-1.49424e-05
0.0132439
-1.50976e-05
0.0132471
-1.52501e-05
0.0132502
-1.53808e-05
0.0132534
-1.54961e-05
0.0132566
-1.55754e-05
0.0132599
-1.56516e-05
0.0132632
-1.57039e-05
0.0132665
-1.57381e-05
0.0132698
-1.57415e-05
0.0132731
-1.57313e-05
0.0132764
-1.56962e-05
0.0132797
-1.56401e-05
0.013283
-1.55542e-05
0.0132863
-1.54498e-05
0.0132895
-1.53213e-05
0.0132928
-1.51621e-05
0.013296
-1.49857e-05
0.0132991
-1.45273e-05
0.0133023
-1.44281e-05
-7.47728e-06
0.0204181
0.00863699
0.020045
0.00445733
0.0195159
0.00344959
0.0190009
0.0025464
0.0185768
0.00187952
0.018242
0.00142811
0.0179759
0.00112395
0.0177603
0.000912209
0.017582
0.000758948
0.0174317
0.000644118
0.017303
0.000555476
0.0171913
0.000485261
0.0170932
0.000428415
0.0170063
0.000381546
0.0169288
0.000342299
0.016859
0.000308998
0.0167959
0.000280417
0.0167386
0.000255641
0.0166863
0.000233977
0.0166383
0.000214886
0.0165943
0.000197948
0.0165536
0.000182827
0.0165161
0.000169255
0.0164813
0.000157011
0.016449
0.000145916
0.016419
0.00013582
0.016391
0.000126601
0.016365
0.000118149
0.0163406
0.000110378
0.0163179
0.000103212
0.0162966
9.65871e-05
0.0162767
9.04439e-05
0.016258
8.4736e-05
0.0162405
7.94199e-05
0.0162241
7.44627e-05
0.0162087
6.98237e-05
0.0161943
6.54788e-05
0.0161807
6.14011e-05
0.016168
5.75713e-05
0.0161561
5.39625e-05
0.0161449
5.05608e-05
0.0161344
4.73482e-05
0.0161246
4.43164e-05
0.0161154
4.14398e-05
0.0161067
3.87138e-05
0.0160987
3.61255e-05
0.0160912
3.36703e-05
0.0160842
3.13294e-05
0.0160776
2.91008e-05
0.0160715
2.6975e-05
0.0160659
2.49542e-05
0.0160607
2.30146e-05
0.0160559
2.11613e-05
0.0160514
1.93861e-05
0.0160473
1.76924e-05
0.0160436
1.60612e-05
0.0160402
1.44981e-05
0.0160371
1.2996e-05
0.0160343
1.15647e-05
0.0160318
1.0176e-05
0.0160296