/*--------------------------------*- C++ -*----------------------------------*\
  =========                 |
  \\      /  F ield         | OpenFOAM: The Open Source CFD Toolbox
   \\    /   O peration     | Website:  https://openfoam.org
    \\  /    A nd           | Version:  8
     \\/     M anipulation  |
\*---------------------------------------------------------------------------*/
FoamFile
{
    version     2.0;
    format      ascii;
    class       volVectorField;
    location    "700";
    object      U;
}
// * * * * * * * * * * * * * * * * * * * * * * * * * * * * * * * * * * * * * //

dimensions      [0 1 -1 0 0 0 0];

internalField   nonuniform List<vector> 
7320
(
(22.6429 -0.848127 0)
(20.2991 -0.0156863 0)
(19.4729 0.000192385 0)
(18.9932 0.000303716 0)
(18.6577 0.000223819 0)
(18.4025 0.00017427 0)
(18.1985 0.000141581 0)
(18.0298 0.000118317 0)
(17.8872 0.000100898 0)
(17.7644 8.74011e-05 0)
(17.6573 7.66602e-05 0)
(17.5629 6.79145e-05 0)
(17.4788 6.06636e-05 0)
(17.4034 5.45605e-05 0)
(17.3353 4.93599e-05 0)
(17.2736 4.48757e-05 0)
(17.2174 4.0974e-05 0)
(17.1659 3.75504e-05 0)
(17.1186 3.45293e-05 0)
(17.0751 3.18368e-05 0)
(17.035 2.94274e-05 0)
(16.9978 2.72595e-05 0)
(16.9633 2.53032e-05 0)
(16.9313 2.35238e-05 0)
(16.9015 2.1902e-05 0)
(16.8737 2.04182e-05 0)
(16.8478 1.90632e-05 0)
(16.8236 1.78088e-05 0)
(16.801 1.66507e-05 0)
(16.7798 1.55785e-05 0)
(16.76 1.45876e-05 0)
(16.7415 1.36614e-05 0)
(16.7241 1.27983e-05 0)
(16.7078 1.1992e-05 0)
(16.6926 1.12456e-05 0)
(16.6783 1.05372e-05 0)
(16.6649 9.87269e-06 0)
(16.6523 9.24767e-06 0)
(16.6406 8.66409e-06 0)
(16.6296 8.10805e-06 0)
(16.6192 7.58357e-06 0)
(16.6096 7.08762e-06 0)
(16.6006 6.62852e-06 0)
(16.5922 6.18225e-06 0)
(16.5844 5.76001e-06 0)
(16.5771 5.35912e-06 0)
(16.5703 4.98503e-06 0)
(16.564 4.62096e-06 0)
(16.5582 4.27483e-06 0)
(16.5528 3.94421e-06 0)
(16.5478 3.64477e-06 0)
(16.5432 3.34039e-06 0)
(16.5391 3.0501e-06 0)
(16.5353 2.77096e-06 0)
(16.5318 2.51616e-06 0)
(16.5287 2.25611e-06 0)
(16.5259 2.00671e-06 0)
(16.5235 1.76461e-06 0)
(16.5213 1.56147e-06 0)
(16.5195 1.333e-06 0)
(16.5179 1.11357e-06 0)
(16.5166 8.98581e-07 0)
(16.5156 7.16611e-07 0)
(16.5148 5.12606e-07 0)
(16.5143 3.1679e-07 0)
(16.514 1.22963e-07 0)
(16.514 -9.73418e-09 0)
(16.5142 -1.93989e-07 0)
(16.5146 -3.70527e-07 0)
(16.5152 -5.47942e-07 0)
(16.516 -6.72338e-07 0)
(16.5171 -8.40981e-07 0)
(16.5183 -1.00104e-06 0)
(16.5197 -1.16364e-06 0)
(16.5213 -1.23142e-06 0)
(16.523 -1.38393e-06 0)
(16.525 -1.52915e-06 0)
(16.5271 -1.68044e-06 0)
(16.5293 -1.75459e-06 0)
(16.5317 -1.89651e-06 0)
(16.5343 -2.02835e-06 0)
(16.537 -2.167e-06 0)
(16.5398 -2.17625e-06 0)
(16.5428 -2.30261e-06 0)
(16.5459 -2.42144e-06 0)
(16.5491 -2.551e-06 0)
(16.5524 -2.58029e-06 0)
(16.5558 -2.69894e-06 0)
(16.5594 -2.80587e-06 0)
(16.563 -2.92302e-06 0)
(16.5668 -2.88397e-06 0)
(16.5706 -2.98611e-06 0)
(16.5746 -3.08021e-06 0)
(16.5786 -3.18785e-06 0)
(16.5827 -3.18375e-06 0)
(16.5869 -3.27806e-06 0)
(16.5911 -3.35884e-06 0)
(16.5954 -3.45051e-06 0)
(16.5998 -3.38446e-06 0)
(16.6042 -3.45767e-06 0)
(16.6087 -3.52123e-06 0)
(16.6132 -3.5965e-06 0)
(16.6178 -3.5669e-06 0)
(16.6224 -3.6252e-06 0)
(16.627 -3.66905e-06 0)
(16.6317 -3.7196e-06 0)
(16.6364 -3.64443e-06 0)
(16.641 -3.67398e-06 0)
(16.6457 -3.69274e-06 0)
(16.6504 -3.71577e-06 0)
(16.6551 -3.66976e-06 0)
(16.6597 -3.67344e-06 0)
(16.6643 -3.66427e-06 0)
(16.6689 -3.65365e-06 0)
(16.6735 -3.58867e-06 0)
(16.678 -3.55732e-06 0)
(16.6825 -3.51669e-06 0)
(16.6868 -3.46927e-06 0)
(16.6912 -3.41057e-06 0)
(16.6954 -3.29641e-06 0)
(16.6994 -3.2053e-06 0)
(16.7035 -1.72922e-06 0)
(26.6037 0.16714 0)
(23.9491 0.00743101 0)
(22.9106 0.00132356 0)
(22.324 0.000761375 0)
(21.922 0.000547535 0)
(21.6197 0.000424677 0)
(21.3794 0.000344315 0)
(21.1815 0.000287385 0)
(21.0145 0.00024488 0)
(20.8711 0.000212004 0)
(20.7461 0.000185871 0)
(20.636 0.000164617 0)
(20.5381 0.000147009 0)
(20.4503 0.000132197 0)
(20.3712 0.000119578 0)
(20.2994 0.000108704 0)
(20.2341 9.92451e-05 0)
(20.1743 9.09477e-05 0)
(20.1194 8.36208e-05 0)
(20.0688 7.7098e-05 0)
(20.0222 7.12617e-05 0)
(19.979 6.60117e-05 0)
(19.939 6.12701e-05 0)
(19.9018 5.6962e-05 0)
(19.8672 5.30359e-05 0)
(19.835 4.94444e-05 0)
(19.8049 4.61557e-05 0)
(19.7769 4.31201e-05 0)
(19.7506 4.03179e-05 0)
(19.7261 3.77238e-05 0)
(19.7031 3.53209e-05 0)
(19.6816 3.30808e-05 0)
(19.6615 3.09932e-05 0)
(19.6426 2.90433e-05 0)
(19.6249 2.72278e-05 0)
(19.6083 2.55157e-05 0)
(19.5927 2.39091e-05 0)
(19.5782 2.23982e-05 0)
(19.5645 2.0981e-05 0)
(19.5517 1.96376e-05 0)
(19.5398 1.83699e-05 0)
(19.5286 1.71713e-05 0)
(19.5181 1.60493e-05 0)
(19.5084 1.49718e-05 0)
(19.4993 1.39512e-05 0)
(19.4908 1.29819e-05 0)
(19.4829 1.2069e-05 0)
(19.4756 1.11894e-05 0)
(19.4688 1.03522e-05 0)
(19.4626 9.55267e-06 0)
(19.4568 8.81021e-06 0)
(19.4515 8.0757e-06 0)
(19.4466 7.37392e-06 0)
(19.4422 6.69964e-06 0)
(19.4382 6.06987e-06 0)
(19.4346 5.44362e-06 0)
(19.4314 4.8423e-06 0)
(19.4285 4.26049e-06 0)
(19.426 3.74058e-06 0)
(19.4238 3.19408e-06 0)
(19.422 2.66861e-06 0)
(19.4205 2.15678e-06 0)
(19.4193 1.69747e-06 0)
(19.4184 1.2144e-06 0)
(19.4178 7.50051e-07 0)
(19.4175 2.95014e-07 0)
(19.4174 -7.08422e-08 0)
(19.4176 -5.01883e-07 0)
(19.4181 -9.15012e-07 0)
(19.4188 -1.32361e-06 0)
(19.4197 -1.65469e-06 0)
(19.4209 -2.04164e-06 0)
(19.4223 -2.4101e-06 0)
(19.4239 -2.77654e-06 0)
(19.4257 -3.01062e-06 0)
(19.4277 -3.35618e-06 0)
(19.4299 -3.68448e-06 0)
(19.4323 -4.01617e-06 0)
(19.4348 -4.23977e-06 0)
(19.4376 -4.55191e-06 0)
(19.4405 -4.84374e-06 0)
(19.4435 -5.14005e-06 0)
(19.4467 -5.26047e-06 0)
(19.4501 -5.53607e-06 0)
(19.4536 -5.79376e-06 0)
(19.4573 -6.06156e-06 0)
(19.461 -6.19257e-06 0)
(19.4649 -6.44095e-06 0)
(19.4689 -6.66679e-06 0)
(19.4731 -6.90193e-06 0)
(19.4773 -6.92848e-06 0)
(19.4817 -7.14122e-06 0)
(19.4861 -7.33482e-06 0)
(19.4907 -7.54209e-06 0)
(19.4953 -7.59932e-06 0)
(19.5 -7.78458e-06 0)
(19.5048 -7.94459e-06 0)
(19.5097 -8.1145e-06 0)
(19.5146 -8.07602e-06 0)
(19.5196 -8.21852e-06 0)
(19.5247 -8.33932e-06 0)
(19.5298 -8.4706e-06 0)
(19.5349 -8.46183e-06 0)
(19.5401 -8.56466e-06 0)
(19.5453 -8.64073e-06 0)
(19.5506 -8.72017e-06 0)
(19.5558 -8.63329e-06 0)
(19.5611 -8.67866e-06 0)
(19.5664 -8.70095e-06 0)
(19.5717 -8.72288e-06 0)
(19.5769 -8.65031e-06 0)
(19.5821 -8.63726e-06 0)
(19.5873 -8.59995e-06 0)
(19.5925 -8.55483e-06 0)
(19.5976 -8.4325e-06 0)
(19.6027 -8.34987e-06 0)
(19.6077 -8.24792e-06 0)
(19.6126 -8.13013e-06 0)
(19.6175 -7.9905e-06 0)
(19.6223 -7.71378e-06 0)
(19.6268 -7.55422e-06 0)
(19.6314 -3.97189e-06 0)
(28.9497 0.0984766 0)
(26.1304 0.00639106 0)
(24.9213 0.00233811 0)
(24.2467 0.00142135 0)
(23.7932 0.00101462 0)
(23.4561 0.000782735 0)
(23.1903 0.000632601 0)
(22.9724 0.000526947 0)
(22.7892 0.000448395 0)
(22.6322 0.00038781 0)
(22.4957 0.000339751 0)
(22.3756 0.000300727 0)
(22.2689 0.000268437 0)
(22.1734 0.000241301 0)
(22.0873 0.0002182 0)
(22.0093 0.000198308 0)
(21.9383 0.000181014 0)
(21.8733 0.000165852 0)
(21.8137 0.000152465 0)
(21.7589 0.000140554 0)
(21.7083 0.000129901 0)
(21.6615 0.00012032 0)
(21.6181 0.000111667 0)
(21.5778 0.00010381 0)
(21.5403 9.665e-05 0)
(21.5054 9.01019e-05 0)
(21.4728 8.41022e-05 0)
(21.4424 7.85698e-05 0)
(21.414 7.34634e-05 0)
(21.3874 6.87368e-05 0)
(21.3625 6.43564e-05 0)
(21.3392 6.02763e-05 0)
(21.3174 5.64741e-05 0)
(21.2969 5.29231e-05 0)
(21.2777 4.9612e-05 0)
(21.2598 4.64954e-05 0)
(21.2429 4.35707e-05 0)
(21.2271 4.08203e-05 0)
(21.2123 3.82374e-05 0)
(21.1985 3.57929e-05 0)
(21.1855 3.34856e-05 0)
(21.1734 3.1304e-05 0)
(21.1621 2.92552e-05 0)
(21.1515 2.72948e-05 0)
(21.1416 2.54367e-05 0)
(21.1324 2.36715e-05 0)
(21.1239 2.20043e-05 0)
(21.1159 2.04027e-05 0)
(21.1086 1.88772e-05 0)
(21.1018 1.74201e-05 0)
(21.0955 1.60561e-05 0)
(21.0897 1.47184e-05 0)
(21.0845 1.34392e-05 0)
(21.0796 1.22103e-05 0)
(21.0753 1.10539e-05 0)
(21.0714 9.91419e-06 0)
(21.0679 8.81948e-06 0)
(21.0647 7.76162e-06 0)
(21.062 6.7962e-06 0)
(21.0597 5.8053e-06 0)
(21.0577 4.85231e-06 0)
(21.056 3.92643e-06 0)
(21.0547 3.07868e-06 0)
(21.0537 2.20786e-06 0)
(21.053 1.37062e-06 0)
(21.0526 5.53677e-07 0)
(21.0525 -1.39626e-07 0)
(21.0527 -9.11054e-07 0)
(21.0532 -1.65047e-06 0)
(21.0539 -2.3768e-06 0)
(21.0548 -2.9957e-06 0)
(21.056 -3.68092e-06 0)
(21.0575 -4.33437e-06 0)
(21.0592 -4.97866e-06 0)
(21.0611 -5.44686e-06 0)
(21.0632 -6.05363e-06 0)
(21.0655 -6.63033e-06 0)
(21.068 -7.20561e-06 0)
(21.0707 -7.63694e-06 0)
(21.0735 -8.17737e-06 0)
(21.0766 -8.68465e-06 0)
(21.0798 -9.19234e-06 0)
(21.0832 -9.4715e-06 0)
(21.0867 -9.94523e-06 0)
(21.0904 -1.03885e-05 0)
(21.0942 -1.08399e-05 0)
(21.0982 -1.11131e-05 0)
(21.1023 -1.15323e-05 0)
(21.1066 -1.1916e-05 0)
(21.1109 -1.2307e-05 0)
(21.1154 -1.24304e-05 0)
(21.12 -1.27871e-05 0)
(21.1246 -1.31117e-05 0)
(21.1294 -1.34493e-05 0)
(21.1343 -1.35933e-05 0)
(21.1393 -1.38958e-05 0)
(21.1443 -1.41594e-05 0)
(21.1495 -1.4431e-05 0)
(21.1547 -1.44364e-05 0)
(21.1599 -1.46666e-05 0)
(21.1653 -1.48612e-05 0)
(21.1706 -1.50642e-05 0)
(21.1761 -1.50861e-05 0)
(21.1815 -1.52441e-05 0)
(21.187 -1.53606e-05 0)
(21.1925 -1.54759e-05 0)
(21.1981 -1.53771e-05 0)
(21.2036 -1.54392e-05 0)
(21.2092 -1.54636e-05 0)
(21.2148 -1.54814e-05 0)
(21.2203 -1.5374e-05 0)
(21.2258 -1.53351e-05 0)
(21.2313 -1.52577e-05 0)
(21.2368 -1.5164e-05 0)
(21.2422 -1.49663e-05 0)
(21.2475 -1.48118e-05 0)
(21.2528 -1.46251e-05 0)
(21.258 -1.44099e-05 0)
(21.2631 -1.41619e-05 0)
(21.2682 -1.36583e-05 0)
(21.2729 -1.34079e-05 0)
(21.2779 -7.00397e-06 0)
(30.6449 0.0459572 0)
(27.8131 0.00831864 0)
(26.4561 0.00392316 0)
(25.6943 0.00237911 0)
(25.1892 0.00168082 0)
(24.8184 0.00128805 0)
(24.5284 0.00103664 0)
(24.2922 0.000861131 0)
(24.0944 0.000731346 0)
(23.9254 0.000631628 0)
(23.7788 0.000552749 0)
(23.6501 0.000488841 0)
(23.5359 0.000436053 0)
(23.4338 0.000391753 0)
(23.3419 0.000354082 0)
(23.2586 0.000321676 0)
(23.1829 0.000293527 0)
(23.1137 0.000268864 0)
(23.0503 0.000247099 0)
(22.9919 0.000227749 0)
(22.9381 0.000210449 0)
(22.8883 0.000194898 0)
(22.8421 0.000180856 0)
(22.7993 0.000168111 0)
(22.7594 0.000156502 0)
(22.7223 0.000145887 0)
(22.6877 0.00013616 0)
(22.6554 0.000127197 0)
(22.6252 0.000118926 0)
(22.597 0.000111271 0)
(22.5705 0.000104176 0)
(22.5458 9.75719e-05 0)
(22.5226 9.14181e-05 0)
(22.5009 8.56716e-05 0)
(22.4805 8.03091e-05 0)
(22.4614 7.5268e-05 0)
(22.4435 7.05372e-05 0)
(22.4268 6.60891e-05 0)
(22.411 6.1909e-05 0)
(22.3963 5.79566e-05 0)
(22.3825 5.4226e-05 0)
(22.3697 5.06986e-05 0)
(22.3576 4.73791e-05 0)
(22.3464 4.42102e-05 0)
(22.3359 4.12058e-05 0)
(22.3261 3.83512e-05 0)
(22.317 3.565e-05 0)
(22.3085 3.30601e-05 0)
(22.3007 3.05923e-05 0)
(22.2934 2.82352e-05 0)
(22.2868 2.60169e-05 0)
(22.2806 2.38541e-05 0)
(22.275 2.17851e-05 0)
(22.2699 1.9798e-05 0)
(22.2652 1.79189e-05 0)
(22.261 1.60781e-05 0)
(22.2572 1.43099e-05 0)
(22.2539 1.2603e-05 0)
(22.251 1.10239e-05 0)
(22.2484 9.42851e-06 0)
(22.2463 7.89407e-06 0)
(22.2445 6.40608e-06 0)
(22.243 5.02593e-06 0)
(22.2419 3.63016e-06 0)
(22.2411 2.28802e-06 0)
(22.2407 9.82141e-07 0)
(22.2405 -1.64121e-07 0)
(22.2406 -1.39425e-06 0)
(22.241 -2.57358e-06 0)
(22.2417 -3.72681e-06 0)
(22.2427 -4.7408e-06 0)
(22.2439 -5.82538e-06 0)
(22.2453 -6.8611e-06 0)
(22.247 -7.87673e-06 0)
(22.2489 -8.67299e-06 0)
(22.2511 -9.62751e-06 0)
(22.2534 -1.05359e-05 0)
(22.256 -1.14348e-05 0)
(22.2587 -1.21537e-05 0)
(22.2617 -1.29964e-05 0)
(22.2648 -1.37902e-05 0)
(22.2681 -1.45775e-05 0)
(22.2716 -1.50859e-05 0)
(22.2752 -1.58205e-05 0)
(22.279 -1.65098e-05 0)
(22.2829 -1.72026e-05 0)
(22.287 -1.7677e-05 0)
(22.2912 -1.83199e-05 0)
(22.2956 -1.89123e-05 0)
(22.3 -1.95076e-05 0)
(22.3046 -1.97796e-05 0)
(22.3094 -2.03238e-05 0)
(22.3142 -2.08213e-05 0)
(22.3191 -2.13286e-05 0)
(22.3241 -2.16002e-05 0)
(22.3293 -2.20548e-05 0)
(22.3345 -2.24548e-05 0)
(22.3398 -2.28586e-05 0)
(22.3451 -2.29413e-05 0)
(22.3506 -2.32845e-05 0)
(22.3561 -2.35765e-05 0)
(22.3616 -2.38721e-05 0)
(22.3672 -2.39464e-05 0)
(22.3729 -2.41749e-05 0)
(22.3785 -2.43451e-05 0)
(22.3843 -2.45067e-05 0)
(22.39 -2.44074e-05 0)
(22.3957 -2.44903e-05 0)
(22.4015 -2.45183e-05 0)
(22.4073 -2.45306e-05 0)
(22.413 -2.43853e-05 0)
(22.4187 -2.43123e-05 0)
(22.4244 -2.41834e-05 0)
(22.4301 -2.40266e-05 0)
(22.4357 -2.3737e-05 0)
(22.4413 -2.34889e-05 0)
(22.4468 -2.31929e-05 0)
(22.4522 -2.28508e-05 0)
(22.4575 -2.24633e-05 0)
(22.4628 -2.16555e-05 0)
(22.4678 -2.1308e-05 0)
(22.4729 -1.10932e-05 0)
(31.9342 0.0469922 0)
(29.2283 0.0125097 0)
(27.7543 0.00606047 0)
(26.9065 0.0036572 0)
(26.348 0.00255944 0)
(25.9421 0.00194754 0)
(25.6273 0.00155994 0)
(25.3724 0.0012916 0)
(25.1601 0.00109438 0)
(24.9793 0.000943513 0)
(24.8229 0.000824576 0)
(24.6858 0.000728467 0)
(24.5645 0.000649246 0)
(24.4562 0.000582878 0)
(24.3587 0.00052652 0)
(24.2706 0.000478098 0)
(24.1905 0.000436079 0)
(24.1174 0.000399297 0)
(24.0504 0.000366859 0)
(23.9888 0.000338042 0)
(23.9319 0.000312293 0)
(23.8794 0.00028916 0)
(23.8308 0.00026828 0)
(23.7856 0.000249339 0)
(23.7436 0.000232092 0)
(23.7045 0.000216329 0)
(23.6681 0.000201884 0)
(23.634 0.000188582 0)
(23.6022 0.00017631 0)
(23.5725 0.000164956 0)
(23.5447 0.000154432 0)
(23.5186 0.00014464 0)
(23.4942 0.000135518 0)
(23.4713 0.000127002 0)
(23.4499 0.000119052 0)
(23.4298 0.000111584 0)
(23.4109 0.000104577 0)
(23.3933 9.79893e-05 0)
(23.3767 9.17965e-05 0)
(23.3612 8.5945e-05 0)
(23.3467 8.04217e-05 0)
(23.3331 7.51996e-05 0)
(23.3204 7.02789e-05 0)
(23.3086 6.55886e-05 0)
(23.2975 6.1141e-05 0)
(23.2872 5.69148e-05 0)
(23.2775 5.2911e-05 0)
(23.2686 4.90772e-05 0)
(23.2603 4.54237e-05 0)
(23.2527 4.19341e-05 0)
(23.2456 3.86387e-05 0)
(23.2391 3.54385e-05 0)
(23.2332 3.23767e-05 0)
(23.2277 2.9437e-05 0)
(23.2228 2.66483e-05 0)
(23.2183 2.39279e-05 0)
(23.2143 2.13152e-05 0)
(23.2108 1.87951e-05 0)
(23.2076 1.64433e-05 0)
(23.2049 1.40921e-05 0)
(23.2026 1.18311e-05 0)
(23.2006 9.64149e-06 0)
(23.199 7.59388e-06 0)
(23.1978 5.54431e-06 0)
(23.1969 3.57362e-06 0)
(23.1963 1.65993e-06 0)
(23.196 -5.60768e-08 0)
(23.1961 -1.8555e-06 0)
(23.1964 -3.58093e-06 0)
(23.1971 -5.2631e-06 0)
(23.198 -6.77204e-06 0)
(23.1991 -8.35028e-06 0)
(23.2006 -9.85878e-06 0)
(23.2022 -1.1333e-05 0)
(23.2041 -1.25447e-05 0)
(23.2062 -1.39278e-05 0)
(23.2086 -1.52454e-05 0)
(23.2112 -1.65427e-05 0)
(23.2139 -1.76238e-05 0)
(23.2169 -1.88378e-05 0)
(23.22 -1.99847e-05 0)
(23.2234 -2.11158e-05 0)
(23.2269 -2.19196e-05 0)
(23.2305 -2.29743e-05 0)
(23.2344 -2.39666e-05 0)
(23.2384 -2.49558e-05 0)
(23.2425 -2.56872e-05 0)
(23.2468 -2.66043e-05 0)
(23.2512 -2.74539e-05 0)
(23.2558 -2.83003e-05 0)
(23.2605 -2.87708e-05 0)
(23.2653 -2.9545e-05 0)
(23.2702 -3.02559e-05 0)
(23.2752 -3.09719e-05 0)
(23.2804 -3.14114e-05 0)
(23.2856 -3.20529e-05 0)
(23.2909 -3.26223e-05 0)
(23.2963 -3.31897e-05 0)
(23.3018 -3.3384e-05 0)
(23.3074 -3.38672e-05 0)
(23.313 -3.42815e-05 0)
(23.3187 -3.4693e-05 0)
(23.3244 -3.48435e-05 0)
(23.3302 -3.51611e-05 0)
(23.336 -3.54012e-05 0)
(23.3419 -3.56236e-05 0)
(23.3478 -3.55392e-05 0)
(23.3537 -3.56515e-05 0)
(23.3596 -3.56895e-05 0)
(23.3655 -3.57002e-05 0)
(23.3715 -3.55201e-05 0)
(23.3774 -3.54109e-05 0)
(23.3832 -3.52259e-05 0)
(23.3891 -3.49985e-05 0)
(23.3949 -3.46083e-05 0)
(23.4006 -3.42526e-05 0)
(23.4063 -3.38308e-05 0)
(23.412 -3.33413e-05 0)
(23.4175 -3.27922e-05 0)
(23.423 -3.1616e-05 0)
(23.4281 -3.11698e-05 0)
(23.4335 -1.61961e-05 0)
(32.9266 0.0603716 0)
(30.4695 0.0174492 0)
(28.9196 0.00880609 0)
(27.99 0.00533477 0)
(27.3757 0.00370686 0)
(26.9322 0.00280127 0)
(26.5909 0.00223229 0)
(26.3162 0.00184149 0)
(26.0885 0.00155609 0)
(25.8954 0.00133883 0)
(25.7288 0.00116819 0)
(25.5832 0.00103073 0)
(25.4546 0.000917692 0)
(25.3399 0.000823185 0)
(25.2369 0.000743067 0)
(25.1439 0.000674329 0)
(25.0594 0.000614753 0)
(24.9824 0.000562656 0)
(24.9118 0.000516753 0)
(24.847 0.000476009 0)
(24.7873 0.00043963 0)
(24.7321 0.000406967 0)
(24.6809 0.000377502 0)
(24.6335 0.000350787 0)
(24.5894 0.000326474 0)
(24.5484 0.000304261 0)
(24.5101 0.000283912 0)
(24.4744 0.000265183 0)
(24.4411 0.000247909 0)
(24.4099 0.000231933 0)
(24.3807 0.000217127 0)
(24.3534 0.000203357 0)
(24.3278 0.000190533 0)
(24.3038 0.000178562 0)
(24.2813 0.000167386 0)
(24.2602 0.000156894 0)
(24.2404 0.000147051 0)
(24.2219 0.000137799 0)
(24.2045 0.0001291 0)
(24.1883 0.000120885 0)
(24.173 0.000113131 0)
(24.1588 0.0001058 0)
(24.1454 9.88866e-05 0)
(24.133 9.23041e-05 0)
(24.1213 8.60617e-05 0)
(24.1105 8.01299e-05 0)
(24.1004 7.45061e-05 0)
(24.091 6.91261e-05 0)
(24.0822 6.39991e-05 0)
(24.0742 5.91024e-05 0)
(24.0667 5.44676e-05 0)
(24.0599 4.99795e-05 0)
(24.0536 4.56857e-05 0)
(24.0478 4.15644e-05 0)
(24.0426 3.7647e-05 0)
(24.0378 3.38371e-05 0)
(24.0336 3.01791e-05 0)
(24.0298 2.66531e-05 0)
(24.0264 2.33433e-05 0)
(24.0235 2.00589e-05 0)
(24.021 1.69013e-05 0)
(24.0188 1.38467e-05 0)
(24.0171 1.09743e-05 0)
(24.0157 8.12011e-06 0)
(24.0146 5.37626e-06 0)
(24.0139 2.71554e-06 0)
(24.0136 2.94862e-07 0)
(24.0135 -2.20317e-06 0)
(24.0138 -4.59916e-06 0)
(24.0143 -6.93007e-06 0)
(24.0151 -9.05e-06 0)
(24.0162 -1.12327e-05 0)
(24.0176 -1.33203e-05 0)
(24.0192 -1.53558e-05 0)
(24.0211 -1.70839e-05 0)
(24.0232 -1.89906e-05 0)
(24.0255 -2.0809e-05 0)
(24.028 -2.25932e-05 0)
(24.0308 -2.41231e-05 0)
(24.0337 -2.57907e-05 0)
(24.0369 -2.73696e-05 0)
(24.0402 -2.89211e-05 0)
(24.0437 -3.00968e-05 0)
(24.0474 -3.15424e-05 0)
(24.0513 -3.29057e-05 0)
(24.0553 -3.42574e-05 0)
(24.0595 -3.53114e-05 0)
(24.0638 -3.65639e-05 0)
(24.0682 -3.77294e-05 0)
(24.0729 -3.8884e-05 0)
(24.0776 -3.9611e-05 0)
(24.0825 -4.06673e-05 0)
(24.0874 -4.16416e-05 0)
(24.0925 -4.26147e-05 0)
(24.0977 -4.32705e-05 0)
(24.103 -4.41425e-05 0)
(24.1085 -4.49228e-05 0)
(24.1139 -4.56939e-05 0)
(24.1195 -4.60406e-05 0)
(24.1252 -4.66985e-05 0)
(24.1309 -4.7268e-05 0)
(24.1367 -4.78265e-05 0)
(24.1426 -4.80835e-05 0)
(24.1485 -4.85156e-05 0)
(24.1545 -4.88489e-05 0)
(24.1605 -4.91529e-05 0)
(24.1665 -4.9104e-05 0)
(24.1725 -4.92605e-05 0)
(24.1786 -4.93204e-05 0)
(24.1847 -4.93388e-05 0)
(24.1908 -4.91312e-05 0)
(24.1968 -4.89885e-05 0)
(24.2029 -4.87468e-05 0)
(24.2089 -4.84454e-05 0)
(24.2149 -4.79483e-05 0)
(24.2208 -4.74743e-05 0)
(24.2267 -4.69127e-05 0)
(24.2325 -4.62571e-05 0)
(24.2383 -4.55256e-05 0)
(24.244 -4.39134e-05 0)
(24.2493 -4.33689e-05 0)
(24.2549 -2.2511e-05 0)
(33.6709 0.0694784 0)
(31.5724 0.022704 0)
(30.0008 0.0122434 0)
(28.9993 0.00751392 0)
(28.3282 0.00520148 0)
(27.8445 0.00390707 0)
(27.4742 0.00309742 0)
(27.1779 0.00254505 0)
(26.9335 0.00214415 0)
(26.727 0.0018405 0)
(26.5495 0.00160297 0)
(26.3948 0.00141226 0)
(26.2583 0.00125587 0)
(26.137 0.00112542 0)
(26.0282 0.00101503 0)
(25.93 0.000920488 0)
(25.841 0.000838661 0)
(25.7598 0.000767194 0)
(25.6856 0.00070429 0)
(25.6174 0.000648511 0)
(25.5547 0.00059875 0)
(25.4967 0.000554107 0)
(25.443 0.000513859 0)
(25.3933 0.000477393 0)
(25.347 0.000444224 0)
(25.304 0.000413937 0)
(25.2639 0.000386199 0)
(25.2265 0.000360684 0)
(25.1916 0.000337162 0)
(25.1589 0.000315415 0)
(25.1283 0.000295266 0)
(25.0997 0.000276535 0)
(25.0729 0.000259095 0)
(25.0477 0.000242821 0)
(25.0242 0.000227626 0)
(25.0021 0.000213371 0)
(24.9814 0.0002 0)
(24.962 0.000187433 0)
(24.9438 0.000175618 0)
(24.9267 0.000164464 0)
(24.9107 0.000153938 0)
(24.8958 0.000143987 0)
(24.8818 0.000134598 0)
(24.8687 0.000125666 0)
(24.8565 0.000117195 0)
(24.8451 0.000109147 0)
(24.8345 0.000101512 0)
(24.8246 9.42138e-05 0)
(24.8154 8.72594e-05 0)
(24.8069 8.06181e-05 0)
(24.7991 7.43221e-05 0)
(24.7918 6.82387e-05 0)
(24.7852 6.24196e-05 0)
(24.7791 5.68362e-05 0)
(24.7735 5.15218e-05 0)
(24.7685 4.63655e-05 0)
(24.7639 4.14164e-05 0)
(24.7599 3.66488e-05 0)
(24.7563 3.21549e-05 0)
(24.7531 2.77204e-05 0)
(24.7504 2.34586e-05 0)
(24.748 1.93393e-05 0)
(24.7461 1.54503e-05 0)
(24.7445 1.16072e-05 0)
(24.7433 7.91348e-06 0)
(24.7425 4.3354e-06 0)
(24.742 1.04604e-06 0)
(24.7418 -2.30848e-06 0)
(24.7419 -5.52761e-06 0)
(24.7423 -8.65423e-06 0)
(24.7431 -1.1527e-05 0)
(24.7441 -1.44502e-05 0)
(24.7453 -1.72476e-05 0)
(24.7469 -1.9971e-05 0)
(24.7486 -2.23385e-05 0)
(24.7507 -2.48863e-05 0)
(24.7529 -2.73183e-05 0)
(24.7554 -2.9699e-05 0)
(24.7581 -3.17841e-05 0)
(24.7611 -3.40071e-05 0)
(24.7642 -3.6116e-05 0)
(24.7675 -3.8183e-05 0)
(24.771 -3.98243e-05 0)
(24.7747 -4.17492e-05 0)
(24.7785 -4.35687e-05 0)
(24.7825 -4.53658e-05 0)
(24.7867 -4.68237e-05 0)
(24.7911 -4.84885e-05 0)
(24.7956 -5.0044e-05 0)
(24.8002 -5.15788e-05 0)
(24.805 -5.26339e-05 0)
(24.8099 -5.40386e-05 0)
(24.8149 -5.534e-05 0)
(24.82 -5.66322e-05 0)
(24.8253 -5.75648e-05 0)
(24.8307 -5.87239e-05 0)
(24.8362 -5.9769e-05 0)
(24.8417 -6.07958e-05 0)
(24.8474 -6.13465e-05 0)
(24.8531 -6.22252e-05 0)
(24.859 -6.29933e-05 0)
(24.8649 -6.37401e-05 0)
(24.8708 -6.41434e-05 0)
(24.8769 -6.47254e-05 0)
(24.8829 -6.51838e-05 0)
(24.8891 -6.55993e-05 0)
(24.8952 -6.56137e-05 0)
(24.9014 -6.58366e-05 0)
(24.9076 -6.59374e-05 0)
(24.9139 -6.59795e-05 0)
(24.9201 -6.57572e-05 0)
(24.9263 -6.55888e-05 0)
(24.9325 -6.52945e-05 0)
(24.9387 -6.49195e-05 0)
(24.9449 -6.43126e-05 0)
(24.951 -6.37119e-05 0)
(24.9571 -6.29983e-05 0)
(24.9631 -6.21588e-05 0)
(24.9691 -6.12246e-05 0)
(24.9749 -5.91015e-05 0)
(24.9805 -5.84579e-05 0)
(24.9864 -3.03217e-05 0)
(34.1947 0.0755308 0)
(32.5411 0.0282332 0)
(31.0182 0.016421 0)
(29.9639 0.010304 0)
(29.2379 0.00713879 0)
(28.712 0.00533867 0)
(28.3102 0.00421212 0)
(27.9902 0.00344702 0)
(27.7273 0.00289471 0)
(27.5061 0.00247841 0)
(27.3165 0.00215412 0)
(27.1518 0.00189465 0)
(27.0068 0.00168252 0)
(26.8782 0.00150602 0)
(26.763 0.001357 0)
(26.6593 0.00122959 0)
(26.5653 0.0011195 0)
(26.4798 0.00102348 0)
(26.4016 0.000939075 0)
(26.3299 0.000864312 0)
(26.2639 0.000797681 0)
(26.203 0.000737956 0)
(26.1466 0.000684152 0)
(26.0944 0.000635442 0)
(26.0459 0.000591164 0)
(26.0007 0.000550758 0)
(25.9587 0.00051377 0)
(25.9194 0.000479768 0)
(25.8828 0.000448435 0)
(25.8486 0.000419479 0)
(25.8165 0.000392661 0)
(25.7865 0.000367742 0)
(25.7584 0.000344548 0)
(25.7321 0.000322912 0)
(25.7074 0.000302712 0)
(25.6843 0.000283773 0)
(25.6626 0.000266012 0)
(25.6422 0.000249323 0)
(25.6232 0.000233634 0)
(25.6053 0.000218828 0)
(25.5885 0.000204859 0)
(25.5728 0.000191655 0)
(25.5581 0.000179192 0)
(25.5444 0.000167344 0)
(25.5316 0.000156109 0)
(25.5196 0.000145434 0)
(25.5084 0.000135305 0)
(25.498 0.00012563 0)
(25.4883 0.000116411 0)
(25.4794 0.000107609 0)
(25.4711 9.92557e-05 0)
(25.4634 9.11987e-05 0)
(25.4564 8.34932e-05 0)
(25.4499 7.61027e-05 0)
(25.444 6.90615e-05 0)
(25.4387 6.22432e-05 0)
(25.4338 5.57013e-05 0)
(25.4295 4.94027e-05 0)
(25.4256 4.34475e-05 0)
(25.4222 3.75971e-05 0)
(25.4192 3.19762e-05 0)
(25.4166 2.65474e-05 0)
(25.4144 2.14066e-05 0)
(25.4127 1.63486e-05 0)
(25.4113 1.14881e-05 0)
(25.4102 6.78363e-06 0)
(25.4096 2.4247e-06 0)
(25.4092 -1.97989e-06 0)
(25.4092 -6.20947e-06 0)
(25.4095 -1.03127e-05 0)
(25.4101 -1.41127e-05 0)
(25.4109 -1.79442e-05 0)
(25.4121 -2.16127e-05 0)
(25.4135 -2.51799e-05 0)
(25.4152 -2.83383e-05 0)
(25.4172 -3.16724e-05 0)
(25.4193 -3.48577e-05 0)
(25.4217 -3.79705e-05 0)
(25.4244 -4.07426e-05 0)
(25.4272 -4.36473e-05 0)
(25.4303 -4.64079e-05 0)
(25.4336 -4.9109e-05 0)
(25.437 -5.13317e-05 0)
(25.4407 -5.38464e-05 0)
(25.4445 -5.62284e-05 0)
(25.4485 -5.85747e-05 0)
(25.4527 -6.05375e-05 0)
(25.4571 -6.27114e-05 0)
(25.4616 -6.47498e-05 0)
(25.4662 -6.67557e-05 0)
(25.471 -6.82282e-05 0)
(25.4759 -7.00653e-05 0)
(25.481 -7.17747e-05 0)
(25.4862 -7.34646e-05 0)
(25.4915 -7.47508e-05 0)
(25.4969 -7.62694e-05 0)
(25.5024 -7.76483e-05 0)
(25.5081 -7.89979e-05 0)
(25.5138 -7.9818e-05 0)
(25.5196 -8.09776e-05 0)
(25.5255 -8.20011e-05 0)
(25.5315 -8.2991e-05 0)
(25.5376 -8.35924e-05 0)
(25.5437 -8.43715e-05 0)
(25.5499 -8.49986e-05 0)
(25.5561 -8.55661e-05 0)
(25.5624 -8.56815e-05 0)
(25.5687 -8.60028e-05 0)
(25.5751 -8.61723e-05 0)
(25.5814 -8.62625e-05 0)
(25.5878 -8.60456e-05 0)
(25.5942 -8.58665e-05 0)
(25.6006 -8.55296e-05 0)
(25.607 -8.50868e-05 0)
(25.6133 -8.43713e-05 0)
(25.6196 -8.36391e-05 0)
(25.6259 -8.27639e-05 0)
(25.6321 -8.17242e-05 0)
(25.6382 -8.05679e-05 0)
(25.6443 -7.78512e-05 0)
(25.6501 -7.71064e-05 0)
(25.6562 -3.99796e-05 0)
(34.5334 0.0801402 0)
(33.3602 0.0337828 0)
(31.9723 0.0212955 0)
(30.8975 0.0138032 0)
(30.1241 0.00962833 0)
(29.5557 0.00718748 0)
(29.1205 0.00564904 0)
(28.7745 0.00460539 0)
(28.4912 0.00385488 0)
(28.2535 0.00329157 0)
(28.0506 0.00285449 0)
(27.8746 0.00250602 0)
(27.7203 0.00222201 0)
(27.5835 0.00198633 0)
(27.4613 0.00178781 0)
(27.3515 0.00161844 0)
(27.2521 0.00147235 0)
(27.1617 0.00134514 0)
(27.0792 0.00123346 0)
(27.0035 0.00113467 0)
(26.934 0.00104672 0)
(26.8699 0.000967967 0)
(26.8106 0.000897087 0)
(26.7556 0.000832971 0)
(26.7047 0.000774734 0)
(26.6572 0.000721626 0)
(26.6131 0.000673039 0)
(26.5719 0.000628404 0)
(26.5334 0.000587296 0)
(26.4975 0.000549325 0)
(26.4638 0.000514172 0)
(26.4324 0.000481525 0)
(26.4029 0.000451151 0)
(26.3753 0.000422828 0)
(26.3494 0.000396391 0)
(26.3251 0.000371616 0)
(26.3023 0.000348389 0)
(26.2809 0.000326571 0)
(26.2609 0.000306062 0)
(26.2421 0.000286717 0)
(26.2245 0.000268469 0)
(26.208 0.000251223 0)
(26.1926 0.000234942 0)
(26.1781 0.000219474 0)
(26.1646 0.000204809 0)
(26.152 0.000190877 0)
(26.1402 0.000177656 0)
(26.1292 0.000165034 0)
(26.119 0.00015301 0)
(26.1096 0.000141533 0)
(26.1008 0.000130631 0)
(26.0927 0.000120133 0)
(26.0852 0.000110095 0)
(26.0783 0.000100471 0)
(26.072 9.12964e-05 0)
(26.0663 8.2427e-05 0)
(26.0611 7.39201e-05 0)
(26.0564 6.57341e-05 0)
(26.0522 5.79762e-05 0)
(26.0485 5.03823e-05 0)
(26.0452 4.30887e-05 0)
(26.0424 3.60489e-05 0)
(26.04 2.93669e-05 0)
(26.038 2.28158e-05 0)
(26.0364 1.65214e-05 0)
(26.0351 1.04331e-05 0)
(26.0342 4.75727e-06 0)
(26.0337 -9.35367e-07 0)
(26.0335 -6.40574e-06 0)
(26.0336 -1.1709e-05 0)
(26.034 -1.66514e-05 0)
(26.0347 -2.15985e-05 0)
(26.0357 -2.63375e-05 0)
(26.037 -3.09417e-05 0)
(26.0386 -3.5078e-05 0)
(26.0404 -3.93781e-05 0)
(26.0425 -4.349e-05 0)
(26.0448 -4.75031e-05 0)
(26.0474 -5.1125e-05 0)
(26.0502 -5.48687e-05 0)
(26.0532 -5.84324e-05 0)
(26.0564 -6.1915e-05 0)
(26.0598 -6.48628e-05 0)
(26.0634 -6.81048e-05 0)
(26.0672 -7.11822e-05 0)
(26.0711 -7.42072e-05 0)
(26.0753 -7.6801e-05 0)
(26.0796 -7.96051e-05 0)
(26.0841 -8.22434e-05 0)
(26.0887 -8.48343e-05 0)
(26.0935 -8.68359e-05 0)
(26.0984 -8.92115e-05 0)
(26.1035 -9.14307e-05 0)
(26.1087 -9.3618e-05 0)
(26.114 -9.53545e-05 0)
(26.1195 -9.73247e-05 0)
(26.1251 -9.91256e-05 0)
(26.1308 -0.000100883 0)
(26.1365 -0.000102056 0)
(26.1424 -0.000103574 0)
(26.1484 -0.000104927 0)
(26.1545 -0.00010623 0)
(26.1606 -0.000107098 0)
(26.1668 -0.000108136 0)
(26.1731 -0.00010899 0)
(26.1795 -0.000109763 0)
(26.1859 -0.00011003 0)
(26.1923 -0.000110494 0)
(26.1988 -0.000110772 0)
(26.2053 -0.000110945 0)
(26.2118 -0.000110763 0)
(26.2183 -0.000110597 0)
(26.2249 -0.000110236 0)
(26.2314 -0.000109738 0)
(26.2379 -0.000108921 0)
(26.2444 -0.000108058 0)
(26.2508 -0.000107016 0)
(26.2573 -0.000105762 0)
(26.2636 -0.000104366 0)
(26.2699 -0.000100965 0)
(26.2759 -0.000100117 0)
(26.2822 -5.19019e-05 0)
(34.7383 0.0835128 0)
(34.0044 0.0389143 0)
(32.8456 0.0266758 0)
(31.8006 0.0180608 0)
(30.9964 0.0127823 0)
(30.3892 0.00956166 0)
(29.9198 0.00749914 0)
(29.546 0.00609467 0)
(29.2402 0.00508591 0)
(28.9844 0.00433097 0)
(28.7664 0.00374714 0)
(28.578 0.00328319 0)
(28.413 0.00290622 0)
(28.2672 0.00259426 0)
(28.1371 0.00233213 0)
(28.0204 0.00210897 0)
(27.9149 0.00191686 0)
(27.8191 0.00174987 0)
(27.7318 0.00160349 0)
(27.6518 0.00147418 0)
(27.5783 0.00135922 0)
(27.5106 0.00125639 0)
(27.4481 0.00116393 0)
(27.3901 0.00108038 0)
(27.3364 0.00100455 0)
(27.2864 0.000935458 0)
(27.2399 0.00087229 0)
(27.1966 0.000814302 0)
(27.1561 0.00076093 0)
(27.1183 0.000711659 0)
(27.0829 0.000666069 0)
(27.0498 0.000623751 0)
(27.0188 0.000584399 0)
(26.9897 0.00054772 0)
(26.9625 0.000513493 0)
(26.9369 0.000481436 0)
(26.913 0.000451393 0)
(26.8905 0.000423182 0)
(26.8694 0.000396668 0)
(26.8496 0.000371671 0)
(26.8311 0.000348096 0)
(26.8137 0.000325823 0)
(26.7974 0.000304794 0)
(26.7822 0.000284827 0)
(26.7679 0.0002659 0)
(26.7546 0.000247923 0)
(26.7421 0.000230863 0)
(26.7305 0.000214586 0)
(26.7197 0.000199083 0)
(26.7097 0.000184289 0)
(26.7003 0.00017023 0)
(26.6917 0.000156709 0)
(26.6838 0.000143785 0)
(26.6764 0.000131399 0)
(26.6697 0.000119586 0)
(26.6635 0.000108183 0)
(26.6579 9.72501e-05 0)
(26.6529 8.67349e-05 0)
(26.6483 7.67514e-05 0)
(26.6443 6.70086e-05 0)
(26.6407 5.76539e-05 0)
(26.6375 4.86298e-05 0)
(26.6348 4.00486e-05 0)
(26.6325 3.16601e-05 0)
(26.6306 2.36013e-05 0)
(26.6291 1.58105e-05 0)
(26.628 8.5111e-06 0)
(26.6272 1.23668e-06 0)
(26.6268 -5.75844e-06 0)
(26.6267 -1.25388e-05 0)
(26.6269 -1.88904e-05 0)
(26.6275 -2.52102e-05 0)
(26.6283 -3.12672e-05 0)
(26.6295 -3.7148e-05 0)
(26.6309 -4.24942e-05 0)
(26.6325 -4.79837e-05 0)
(26.6345 -5.32376e-05 0)
(26.6367 -5.83601e-05 0)
(26.6391 -6.30344e-05 0)
(26.6418 -6.78127e-05 0)
(26.6447 -7.23682e-05 0)
(26.6478 -7.68158e-05 0)
(26.6511 -8.06678e-05 0)
(26.6546 -8.4809e-05 0)
(26.6584 -8.87477e-05 0)
(26.6623 -9.26132e-05 0)
(26.6664 -9.59956e-05 0)
(26.6706 -9.95817e-05 0)
(26.6751 -0.000102966 0)
(26.6797 -0.000106285 0)
(26.6845 -0.000108956 0)
(26.6894 -0.000112003 0)
(26.6945 -0.000114861 0)
(26.6997 -0.000117671 0)
(26.705 -0.00011998 0)
(26.7105 -0.000122518 0)
(26.7161 -0.000124853 0)
(26.7218 -0.000127128 0)
(26.7276 -0.000128759 0)
(26.7336 -0.000130735 0)
(26.7396 -0.000132511 0)
(26.7457 -0.000134219 0)
(26.7519 -0.000135439 0)
(26.7582 -0.000136818 0)
(26.7646 -0.000137974 0)
(26.771 -0.000139025 0)
(26.7775 -0.000139511 0)
(26.7841 -0.000140177 0)
(26.7907 -0.000140617 0)
(26.7973 -0.000140921 0)
(26.8039 -0.000140818 0)
(26.8106 -0.0001407 0)
(26.8173 -0.000140343 0)
(26.824 -0.000139812 0)
(26.8307 -0.00013891 0)
(26.8373 -0.000137922 0)
(26.8439 -0.000136713 0)