/*--------------------------------*- C++ -*----------------------------------*\
  =========                 |
  \\      /  F ield         | OpenFOAM: The Open Source CFD Toolbox
   \\    /   O peration     | Website:  https://openfoam.org
    \\  /    A nd           | Version:  7
     \\/     M anipulation  |
\*---------------------------------------------------------------------------*/
FoamFile
{
    version     2.0;
    format      ascii;
    class       volScalarField;
    location    "4.8";
    object      T;
}
// * * * * * * * * * * * * * * * * * * * * * * * * * * * * * * * * * * * * * //

dimensions      [0 0 0 1 0 0 0];

internalField   nonuniform List<scalar> 
32100
(
-3.29973e+142
1.30125e+142
-8.32456e+140
-6.09428e+139
1.43205e+139
-2.12069e+137
-1.72656e+137
1.57663e+136
7.1311e+134
-2.89406e+134
7.22766e+132
5.87056e+131
-3.44517e+129
-3.62503e+129
-1.1742e+129
1.4431e+142
-8.73208e+140
-6.71567e+139
1.49202e+139
-1.96867e+137
-1.78983e+137
1.60802e+136
7.52356e+134
-2.92549e+134
1.2449e+133
4.51517e+132
8.07892e+131
-2.62759e+130
-3.18002e+129
-9.49295e+128
-9.05209e+140
-7.625e+139
1.57981e+139
-1.82838e+137
-1.87763e+137
1.66079e+136
8.0772e+134
-3.01431e+134
1.47634e+133
5.77764e+132
1.68719e+132
4.83769e+131
-3.75669e+130
-2.72266e+129
-7.69921e+128
-8.90501e+139
1.74349e+139
-8.6539e+136
-2.05084e+137
1.61678e+136
1.02782e+135
-2.99975e+134
1.00208e+133
4.23267e+132
1.79558e+131
5.91211e+131
1.86196e+131
-3.55913e+130
-2.56378e+129
-5.26604e+128
1.96005e+139
3.95848e+137
-1.5286e+137
1.01301e+136
1.70867e+134
-1.53223e+134
2.21516e+133
8.22453e+131
-4.32396e+131
1.2187e+131
1.17102e+131
3.54877e+130
-2.636e+130
-2.10221e+129
-2.4316e+128
1.27172e+138
2.33184e+137
7.79754e+136
-5.6658e+135
-1.1422e+135
1.67232e+134
1.49607e+133
-3.43951e+132
-9.42545e+130
2.94538e+130
-1.12023e+130
-9.92498e+129
-1.5802e+130
-1.27142e+129
-1.94669e+127
9.30404e+137
4.60109e+137
6.20403e+136
-6.35521e+135
-8.53582e+134
1.46745e+134
1.2046e+133
-2.81435e+132
-1.02346e+131
1.91548e+130
-1.71348e+130
-1.25385e+130
-7.42083e+129
-4.48849e+128
9.17605e+127
1.13114e+138
4.16676e+137
6.11825e+136
-5.26499e+135
-9.09018e+134
1.2851e+134
1.39804e+133
-2.58052e+132
-1.35603e+131
2.79684e+130
-8.68951e+129
-5.68335e+129
-2.43276e+129
4.17999e+127
1.0627e+128
1.03235e+138
3.88416e+137
6.1898e+136
-4.4944e+135
-9.5357e+134
1.14142e+134
1.53198e+133
-2.34873e+132
-1.62952e+131
3.14099e+130
-3.06993e+129
-1.36142e+129
-3.36833e+128
1.79745e+128
7.31779e+127
9.50984e+137
3.62324e+137
6.19366e+136
-3.69041e+135
-9.8414e+134
9.84042e+133
1.64258e+133
-2.08272e+132
-1.90281e+131
3.00252e+130
-1.32199e+129
-4.06504e+128
1.80051e+128
1.35769e+128
3.52625e+127
8.77267e+137
3.37125e+137
6.17928e+136
-2.86847e+135
-1.00629e+135
8.20329e+133
1.73047e+133
-1.79689e+132
-2.13346e+131
2.70166e+130
-6.85103e+128
-3.89723e+128
1.58533e+128
6.20233e+127
1.12704e+127
8.09203e+137
3.15331e+137
6.10782e+136
-2.05051e+135
-1.01944e+135
6.53989e+133
1.7936e+133
-1.49958e+132
-2.30418e+131
2.34631e+130
-2.12127e+128
-4.16918e+128
7.09638e+127
2.02481e+127
1.47172e+126
7.55024e+137
2.96043e+137
5.77212e+136
-1.33705e+135
-1.01513e+135
4.89561e+133
1.83114e+133
-1.20104e+132
-2.40765e+131
1.96961e+130
1.85243e+128
-3.69013e+128
3.66754e+127
7.03324e+126
-3.46297e+125
7.11944e+137
2.45301e+137
4.69645e+136
-6.18089e+134
-9.06575e+134
3.37495e+133
1.80908e+133
-9.1264e+131
-2.43412e+131
1.58923e+130
5.13924e+128
-3.41335e+128
2.05756e+127
4.11554e+126
-3.92003e+125
5.26654e+137
1.80224e+137
3.8048e+136
-7.12679e+133
-7.44706e+134
1.85855e+133
1.61435e+133
-5.9634e+131
-2.38872e+131
1.2438e+130
8.49971e+128
-3.71739e+128
1.74359e+127
4.33114e+126
-3.28e+125
3.63035e+137
1.40886e+137
3.35262e+136
3.19795e+134
-6.42597e+134
5.9401e+132
1.44807e+133
-2.96635e+131
-2.38026e+131
9.09785e+129
1.23339e+129
-4.02965e+128
1.59202e+127
5.86085e+126
-2.92239e+125
2.97964e+137
1.23095e+137
3.11094e+136
6.33067e+134
-5.97927e+134
-4.43118e+132
1.38894e+133
-3.67879e+130
-2.40508e+131
5.50697e+129
1.59795e+129
-3.96148e+128
9.36972e+126
7.30957e+126
-2.45782e+125
2.63563e+137
1.1291e+137
3.00555e+136
9.39245e+134
-5.72709e+134
-1.38649e+133
1.34589e+133
2.17815e+131
-2.41025e+131
1.51633e+129
1.9139e+129
-3.68649e+128
2.60017e+125
8.1173e+126
-1.56e+125
2.35566e+137
1.0407e+137
2.89774e+136
1.24501e+135
-5.43218e+134
-2.34843e+133
1.29463e+133
4.81558e+131
-2.3802e+131
-2.81485e+129
2.16693e+129
-3.26714e+128
-9.58665e+126
8.31751e+126
-2.75104e+124
2.12028e+137
9.56764e+136
2.77703e+136
1.54851e+135
-5.07677e+134
-3.32901e+133
1.2244e+133
7.51844e+131
-2.30166e+131
-7.37732e+129
2.34267e+129
-2.79037e+128
-1.95082e+127
8.29205e+126
1.28907e+125
1.90688e+137
8.73778e+136
2.63934e+136
1.84166e+135
-4.65877e+134
-4.3079e+133
1.13031e+133
1.02321e+132
-2.16853e+131
-1.21122e+130
2.43282e+129
-2.2004e+128
-2.86782e+127
7.91976e+126
2.99142e+125
1.70053e+137
7.89559e+136
2.49303e+136
2.12276e+135
-4.174e+134
-5.26597e+133
1.00899e+133
1.29186e+132
-1.9793e+131
-1.70138e+130
2.43258e+129
-1.51869e+128
-3.56832e+127
7.07184e+126
4.52276e+125
1.50141e+137
7.0708e+136
2.34492e+136
2.38573e+135
-3.62085e+134
-6.17597e+133
8.58342e+132
1.55359e+132
-1.72842e+131
-2.21169e+130
2.33951e+129
-8.11275e+127
-4.13379e+127
6.066e+126
5.74431e+125
1.313e+137
6.28357e+136
2.19465e+136
2.62482e+135
-2.99374e+134
-6.98202e+133
6.77526e+132
1.80306e+132
-1.40458e+131
-2.73929e+130
2.14317e+129
-7.59971e+126
-4.63618e+127
5.04624e+126
6.72317e+125
1.13978e+137
5.56292e+136
2.04657e+136
2.8409e+135
-2.29491e+134
-7.65266e+133
4.65725e+132
2.0302e+132
-9.92397e+130
-3.26502e+130
1.81295e+129
7.12157e+127
-5.08986e+127
3.99772e+126
7.61194e+125
9.82529e+136
4.90911e+136
1.89721e+136
3.02871e+135
-1.52794e+134
-8.1643e+133
2.22773e+132
2.21979e+132
-4.74767e+130
-3.76962e+130
1.31069e+129
1.58694e+128
-5.5112e+127
2.86259e+126
8.61406e+125
8.43841e+136
4.3125e+136
1.74768e+136
3.18868e+135
-6.94111e+133
-8.483e+133
-5.07534e+131
2.35628e+132
1.63416e+130
-4.22376e+130
5.87232e+128
2.55018e+128
-5.79339e+127
1.4919e+126
9.67218e+125
7.25787e+136
3.78796e+136
1.60764e+136
3.33008e+135
2.04681e+133
-8.5661e+133
-3.5354e+132
2.41994e+132
9.30397e+130
-4.61339e+130
-4.01378e+128
3.51707e+128
-5.71684e+127
-1.53968e+125
1.04115e+126
6.248e+136
3.34579e+136
1.48235e+136
3.45504e+135
1.16553e+134
-8.37422e+133
-6.83241e+132
2.38932e+132
1.83247e+131
-4.85427e+130
-1.69184e+129
4.43504e+128
-5.29096e+127
-1.99218e+126
1.07988e+126
5.35042e+136
2.96362e+136
1.36584e+136
3.54945e+135
2.1779e+134
-7.85544e+133
-1.03558e+133
2.23615e+132
2.87609e+131
-4.84863e+130
-3.3097e+129
5.23585e+128
-4.47394e+127
-4.03811e+126
1.08372e+126
4.52109e+136
2.59462e+136
1.24225e+136
3.59347e+135
3.22624e+134
-6.94712e+133
-1.40357e+133
1.92292e+132
4.05889e+131
-4.504e+130
-5.30423e+129
5.71823e+128
-3.06754e+127
-6.08912e+126
1.02995e+126
3.76379e+136
2.21884e+136
1.10157e+136
3.58834e+135
4.29166e+134
-5.58583e+133
-1.77364e+133
1.40097e+132
5.35207e+131
-3.65342e+130
-7.73568e+129
5.67907e+128
-1.19477e+127
-7.96649e+126
9.43416e+125
3.12758e+136
1.87801e+136
9.68063e+135
3.53746e+135
5.34671e+134
-3.70056e+133
-2.12152e+133
6.15201e+131
6.66713e+131
-2.07702e+130
-1.06461e+130
5.09028e+128
1.14272e+127
-1.01262e+127
8.58143e+125
2.61643e+136
1.61971e+136
8.64806e+135
3.45229e+135
6.38762e+134
-1.22739e+133
-2.41432e+133
-4.71812e+131
7.83008e+131
5.08622e+129
-1.39392e+130
3.47405e+128
4.57796e+127
-1.30649e+127
7.36021e+125
2.18866e+136
1.42641e+136
7.81835e+135
3.34467e+135
7.42039e+134
1.904e+133
-2.60138e+133
-1.86392e+132
8.58471e+131
4.40481e+130
-1.72834e+130
-3.06151e+127
9.61753e+127
-1.64351e+127
4.58795e+125
1.81974e+136
1.24615e+136
6.98174e+135
3.21918e+135
8.43313e+134
5.7619e+133
-2.59768e+133
-3.52203e+132
8.60109e+131
9.82735e+130
-1.98012e+130
-7.79837e+128
1.65018e+128
-1.90857e+127
-1.82434e+125
1.50352e+136
1.07499e+136
6.16677e+135
3.08639e+135
9.41544e+134
1.03337e+134
-2.34677e+133
-5.37013e+132
7.51952e+131
1.6686e+131
-1.9828e+130
-2.1246e+129
2.44852e+128
-1.81311e+127
-1.52106e+126
1.23213e+136
9.28584e+135
5.46783e+135
2.94648e+135
1.03299e+135
1.54735e+134
-1.81291e+133
-7.27442e+132
4.96784e+131
2.44755e+131
-1.50222e+130
-4.07069e+129
2.943e+128
-8.60991e+126
-3.81834e+126
9.98622e+135
8.06306e+135
4.8762e+135
2.78491e+135
1.10555e+135
2.08138e+134
-9.50488e+132
-9.02595e+132
6.61194e+130
3.19481e+131
-3.17501e+129
-6.41912e+129
2.48915e+128
1.45022e+127
-6.98381e+126
7.97127e+135
7.03237e+135
4.38103e+135
2.60472e+135
1.1376e+135
2.59924e+134
2.63546e+132
-1.03251e+133
-5.38092e+131
3.7084e+131
1.68768e+130
-8.74004e+129
1.02843e+127
5.66984e+127
-1.0306e+127
6.21989e+135
6.09619e+135
3.94158e+135
2.3986e+135
1.12877e+135
3.06898e+134
1.79665e+133
-1.07247e+133
-1.27928e+132
3.80175e+131
4.43955e+130
-1.0372e+130
-5.85148e+128
1.19325e+128
-1.13682e+127
4.71552e+135
5.16296e+135
3.51741e+135
2.16101e+135
1.09771e+135
3.46657e+134
3.55537e+133
-1.00558e+133
-2.12191e+132
3.37566e+131
7.56116e+130
-1.0195e+130
-1.41888e+129
1.6735e+128
-6.5743e+126
3.50004e+135
4.2443e+135
3.08213e+135
1.91893e+135
1.05384e+135
3.77864e+134
5.41705e+133
-8.06047e+132
-3.02185e+132
2.37718e+131
1.02559e+131
-7.39647e+129
-2.26046e+129
1.74156e+128
4.79131e+126
2.57611e+135
3.42575e+135
2.65784e+135
1.70633e+135
1.00186e+135
4.00389e+134
7.27281e+133
-4.91278e+132
-3.62037e+132
8.71641e+130
1.23442e+131
-3.07715e+129
-3.04153e+129
1.38976e+128
2.06694e+127
1.89821e+135
2.76042e+135
2.29733e+135
1.53277e+135
9.47383e+134
4.15831e+134
9.04878e+133
-9.99821e+131
-3.89515e+132
-8.64128e+130
1.39621e+131
1.70627e+129
-3.30647e+129
7.45618e+127
6.17856e+127
1.40683e+135
2.24312e+135
2.00693e+135
1.38909e+135
8.95609e+134
4.26679e+134
1.07552e+134
3.36383e+132
-4.004e+132
-2.54289e+131
1.34324e+131
5.71761e+129
-2.87378e+129
-3.9497e+127
4.34323e+127
1.04363e+135
1.83668e+135
1.77755e+135
1.27451e+135
8.49039e+134
4.35214e+134
1.24475e+134
8.16558e+132
-3.95105e+132
-4.09401e+131
1.21357e+131
8.41261e+129
-2.34999e+129
-7.14778e+127
2.15342e+127
7.70941e+134
1.50543e+135
1.58995e+135
1.18534e+135
8.06645e+134
4.40228e+134
1.40953e+134
1.34344e+133
-3.8718e+132
-5.5396e+131
1.14631e+131
1.07272e+130
-2.08688e+129
-8.80732e+127
1.61092e+127
5.60876e+134
1.22345e+135
1.41627e+135
1.1066e+135
7.63697e+134
4.38461e+134
1.55273e+134
1.91507e+133
-3.69373e+132
-7.08155e+131
1.08682e+131
1.29984e+130
-1.99658e+129
-1.07218e+128
1.62452e+127
4.01551e+134
9.81527e+134
1.25133e+135
1.03393e+135
7.20575e+134
4.31411e+134
1.67099e+134
2.52398e+133
-3.31774e+132
-8.68251e+131
1.01487e+131
1.52752e+130
-1.95175e+129
-1.30017e+128
1.84978e+127
2.82013e+134
7.79123e+134
1.10574e+135
9.7323e+134
6.82174e+134
4.23757e+134
1.78811e+134
3.1839e+133
-2.72977e+132
-1.02808e+132
9.16292e+130
1.7316e+130
-1.85539e+129
-1.47971e+128
2.00237e+127
1.93112e+134
6.10068e+134
9.75367e+134
9.14e+134
6.49529e+134
4.16034e+134
1.91152e+134
3.93584e+133
-1.8926e+132
-1.18242e+132
7.77209e+130
1.86136e+130
-1.64526e+129
-1.49816e+128
1.84686e+127
1.29595e+134
4.66416e+134
8.40737e+134
8.49314e+134
6.20667e+134
4.08101e+134
2.02713e+134
4.78732e+133
-7.44683e+131
-1.32699e+132
6.0656e+130
1.88926e+130
-1.34328e+129
-1.32493e+128
1.62067e+127
8.51291e+133
3.48215e+134
7.05942e+134
7.85419e+134
5.9977e+134
4.00946e+134
2.13296e+134
5.72367e+133
7.76665e+131
-1.4492e+132
4.23269e+130
1.80865e+130
-9.94816e+128
-1.00378e+128
1.75185e+127
5.36977e+133
2.54863e+134
5.85964e+134
7.27648e+134
5.86573e+134
3.93805e+134
2.2246e+134
6.72771e+133
2.72229e+132
-1.53643e+132
2.47932e+130
1.602e+130
-6.19355e+128
-6.07103e+127
2.11228e+127
3.17845e+133
1.8041e+134
4.77227e+134
6.70776e+134
5.73556e+134
3.86422e+134
2.3006e+134
7.7792e+133
5.13077e+132
-1.57508e+132
1.08275e+130
1.23604e+130
-2.17343e+128
-1.62433e+127
1.8974e+127
1.70569e+133
1.21e+134
3.76517e+134
6.06719e+134
5.58702e+134
3.79816e+134
2.36623e+134
8.9146e+133
8.01654e+132
-1.50358e+132
2.19611e+129
7.0112e+129
1.89576e+128
2.28914e+127
1.63247e+127
7.97072e+132
7.55797e+133
2.8482e+134
5.35654e+134
5.40473e+134
3.73897e+134
2.40558e+134
1.00985e+134
1.1352e+133
-1.32351e+132
-1.19559e+129
1.69924e+129
5.24249e+128
6.84426e+127
1.91049e+127
3.03272e+132
4.2756e+133
2.03412e+134
4.58077e+134
5.15399e+134
3.68494e+134
2.41263e+134
1.11727e+134
1.52119e+133
-1.1063e+132
-3.63957e+129
-1.08105e+129
7.59378e+128
1.85209e+128
4.22335e+127
7.39866e+131
2.08891e+133
1.33947e+134
3.75582e+134
4.82824e+134
3.64976e+134
2.39726e+134
1.1881e+134
1.99123e+133
-1.1788e+132
-1.80685e+130
-1.5147e+129
8.02446e+128
2.65792e+128
5.61592e+127
-5.55681e+130
7.71817e+132
7.74058e+133
2.91146e+134
4.43812e+134
3.65188e+134
2.36984e+134
1.18998e+134
2.50448e+133
-1.61085e+132
-6.62584e+130
9.60523e+129
5.06379e+129
3.15151e+129
1.0488e+129
-6.84086e+130
1.29189e+132
3.48662e+133
2.06866e+134
3.98317e+134
3.70565e+134
2.35487e+134
1.11841e+134
2.86982e+133
-2.30302e+131
-2.77983e+131
-2.28507e+130
-3.67639e+130
-1.96394e+130
-5.245e+129
1.01476e+131
-2.14853e+131
7.58362e+132
1.25025e+134
3.43146e+134
3.79907e+134
2.3966e+134
1.03759e+134
3.42268e+133
4.23418e+132
-4.83504e+131
-4.58556e+130
-3.48155e+130
-5.12991e+130
-3.19188e+130
1.11162e+131
1.26979e+131
-3.52416e+132
5.09568e+133
2.72877e+134
3.87647e+134
2.52538e+134
9.42234e+133
3.80754e+133
1.1332e+133
4.32868e+132
3.79061e+132
5.24918e+132
6.69643e+132
3.99308e+132
2.27228e+130
2.32497e+131
-3.32397e+132
2.95441e+131
1.84475e+134
3.8504e+134
2.73654e+134
8.1676e+133
3.30377e+133
1.16117e+133
1.35992e+133
1.27312e+133
1.65581e+133
1.34969e+133
7.29735e+132
7.53511e+131
2.0071e+131
-5.77299e+132
-6.41868e+132
9.78667e+133
3.5922e+134
2.93662e+134
7.32949e+133
2.3386e+133
2.20905e+132
3.0612e+132
6.77562e+132
6.97115e+132
5.5462e+132
6.98434e+132
-8.46263e+133
-3.63773e+133
-1.98053e+133
5.79925e+132
9.16452e+133
2.85477e+134
2.91601e+134
7.23858e+133
1.72283e+133
-3.78216e+131
4.92178e+131
8.49645e+131
1.06787e+132
1.7647e+132
6.02877e+132
9.14642e+134
3.76949e+134
1.43288e+134
6.44235e+133
1.66786e+134
2.92149e+134
2.25712e+134
7.06308e+133
1.59697e+133
1.23052e+133
6.29368e+132
3.5015e+132
2.37164e+132
1.76656e+132
4.88314e+132
4.84397e+135
1.44614e+135
1.13385e+135
9.13044e+134
6.41036e+134
3.13978e+134
1.35244e+134
1.58862e+133
2.22606e+133
1.83675e+133
1.0164e+133
5.484e+132
3.20394e+132
1.89388e+132
4.16619e+132
-1.28636e+137
-3.18773e+136
-8.28144e+135
-2.61867e+135
-7.89268e+134
-2.50151e+134
1.70815e+133
1.45437e+134
9.60702e+133
5.0363e+133
2.36713e+133
1.10956e+133
5.46832e+132
2.73531e+132
3.63537e+132
-7.33568e+137
-2.05509e+137
-1.18538e+137
-5.76878e+136
-2.85592e+136
-1.4334e+136
-5.10374e+135
-1.00198e+135
-9.32453e+133
2.74108e+133
2.30463e+133
1.11594e+133
4.65302e+132
1.85879e+132
1.22344e+132
2.63944e+139
3.01852e+138
2.31048e+137
-5.54969e+136
-6.93229e+136
-3.68902e+136
-1.11247e+136
-2.43952e+135
-4.51686e+134
-8.09471e+133
-2.14843e+133
-1.30096e+133
-1.00663e+133
-7.47485e+132
-1.27259e+133
-1.81794e+140
8.78347e+138
6.03045e+138
1.2568e+138
1.51228e+137
-1.89118e+136
-1.18498e+136
-2.33014e+135
-2.68618e+134
1.20512e+134
1.65491e+134
1.3315e+134
8.5534e+133
4.20646e+133
1.91164e+133
-2.91947e+141
-2.84714e+140
-2.01394e+138
1.98861e+138
1.45324e+137
9.51186e+135
-1.3749e+136
-8.93681e+135
-6.22372e+135
-5.32526e+135
-4.3368e+135
-3.19315e+135
-1.99573e+135
-1.00134e+135
-4.99678e+134
3.46672e+142
-2.67501e+141
-3.2307e+140
2.68615e+139
-1.81749e+138
-4.34473e+137
-1.23681e+137
-1.18245e+137
-9.57395e+136
-7.32432e+136
-5.45016e+136
-3.82157e+136
-2.38958e+136
-1.23478e+136
-4.92419e+135
7.38802e+142
3.18789e+142
-3.25637e+141
-1.52067e+140
3.15998e+139
-2.21885e+138
-1.03838e+137
3.60395e+137
4.22609e+137
4.30334e+137
3.83034e+137
2.91801e+137
1.80485e+137
8.25614e+136
2.68573e+136
-2.33246e+144
8.56979e+142
2.81185e+142
-2.98583e+141
-1.20296e+140
4.31532e+139
8.61516e+138
8.48625e+138
6.98234e+138
5.31225e+138
3.90282e+138
2.72381e+138
1.71227e+138
9.03555e+137
3.33083e+137
1.8311e+145
-2.11867e+144
8.95194e+142
2.65553e+142
-2.82032e+141
-8.30313e+139
5.70027e+139
1.18445e+139
4.84354e+138
-2.15673e+137
-2.95629e+138
-3.3779e+138
-2.28436e+138
-7.79587e+137
-1.92405e+137
5.29303e+145
1.58939e+145
-1.95568e+144
9.18368e+142
2.54393e+142
-2.6377e+141
7.29266e+139
2.52842e+140
2.32389e+140
2.27458e+140
2.02721e+140
1.61675e+140
1.10794e+140
6.11686e+139
2.54233e+139
-1.27253e+147
5.70147e+145
1.42132e+145
-1.8425e+144
9.73156e+142
2.90708e+142
1.03374e+141
2.96183e+141
2.50414e+141
1.88479e+141
1.37767e+141
9.84499e+140
6.63874e+140
4.11668e+140
2.05045e+140
-2.9621e+148
-3.53087e+147
1.45286e+146
4.28806e+145
-5.45374e+144
1.46947e+143
-2.21501e+142
-1.21029e+143
-1.19498e+143
-1.14839e+143
-1.03413e+143
-8.66656e+142
-6.58033e+142
-4.78274e+142
-3.5283e+142
5.31079e+149
-2.69529e+148
-3.38974e+147
1.20945e+146
4.32677e+145
-6.7817e+144
-1.07374e+144
-9.6519e+143
-9.27852e+143
-7.68143e+143
-5.37873e+143
-3.58966e+143
-2.45847e+143
-1.66e+143
-9.89883e+142
-4.25744e+150
4.7819e+149
-2.69006e+148
-3.42875e+147
8.63816e+145
3.59114e+145
-1.23702e+145
-5.58272e+144
-4.08861e+144
-3.1132e+144
-2.23026e+144
-1.48408e+144
-8.8074e+143
-4.64372e+143
-2.58325e+143
3.38759e+150
-3.66965e+150
4.50066e+149
-2.20288e+148
-5.34659e+147
-3.23434e+146
-1.19404e+144
-4.35409e+145
-3.02272e+145
-1.793e+145
-1.10161e+145
-6.33698e+144
-3.21211e+144
-1.40812e+144
-6.78307e+143
2.13413e+152
8.89912e+149
-3.28566e+150
4.10777e+149
-2.28778e+148
-2.70239e+147
-1.59488e+145
-2.97034e+145
-3.56332e+145
-2.08554e+145
-1.39116e+145
-9.48709e+144
-6.03229e+144
-3.32533e+144
-1.85163e+144
2.47648e+150
-3.5915e+150
4.62279e+149
-2.57459e+148
-3.63383e+147
-7.66781e+145
-4.44975e+145
-5.48357e+145
-3.07663e+145
-1.90429e+145
-1.24286e+145
-9.34547e+144
-7.06055e+144
-4.84154e+144
-3.17104e+144
-4.34647e+150
5.24065e+149
-1.18558e+148
-3.25591e+147
-3.43769e+146
-9.8626e+145
-7.18489e+145
-4.83541e+145
-3.14117e+145
-1.96513e+145
-1.20939e+145
-9.3076e+144
-7.25266e+144
-5.50758e+144
-3.88623e+144
3.69997e+149
2.51643e+148
1.71886e+147
-2.78782e+145
-2.19109e+146
-1.71769e+146
-1.12219e+146
-7.0906e+145
-4.43661e+145
-2.76575e+145
-1.80338e+145
-1.43241e+145
-8.77252e+144
-5.41193e+144
-3.20035e+144
-8.84307e+147
-2.22163e+147
-1.16735e+147
-5.64709e+146
-2.88811e+146
-1.57982e+146
-9.01928e+145
-5.31264e+145
-3.2131e+145
-2.19372e+145
-1.90175e+145
-2.22915e+145
-1.51792e+144
-1.66934e+143
-2.74764e+142
-9.51342e+146
-2.60265e+146
-1.07041e+146
-5.53757e+145
-3.00223e+145
-1.69953e+145
-1.01352e+145
-6.33678e+144
-4.49747e+144
-9.40167e+144
-3.00354e+144
1.56315e+143
-9.42395e+142
-1.33036e+142
-3.54268e+141
-9.9701e+144
-5.49921e+144
1.76981e+144
3.04064e+144
2.70942e+144
2.17548e+144
1.72338e+144
1.48646e+144
2.2333e+144
-4.33369e+144
-7.76703e+144
4.15241e+143
5.06791e+143
2.66366e+143
1.3502e+143
1.09877e+145
4.08455e+144
1.67484e+144
8.8895e+143
5.47273e+143
3.16302e+143
2.24663e+143
1.52114e+143
-3.20742e+143
-2.95063e+143
-6.18623e+144
-4.05181e+144
-2.29852e+144
-1.27222e+144
-7.06788e+143
-9.25818e+143
-3.22415e+143
-1.68345e+143
-1.18146e+143
-9.33793e+142
-6.58472e+142
-1.97426e+142
1.54083e+142
2.67434e+142
1.37093e+143
-2.33124e+143
-7.10699e+143
-8.0809e+143
-6.79588e+143
-5.18375e+143
-2.63241e+142
-1.42832e+142
-1.19224e+141
2.94831e+141
4.41483e+141
4.40782e+141
1.65489e+141
-7.0567e+140
-1.45736e+141
-3.45548e+141
3.88774e+142
5.43178e+142
4.6933e+142
3.80314e+142
3.18276e+142
1.6606e+142
6.44127e+141
3.00062e+141
1.8058e+141
1.26191e+141
8.70218e+140
5.59351e+140
2.92795e+140
-5.58655e+138
-7.91504e+140
-1.39324e+141
-3.86739e+140
2.70248e+140
4.39811e+140
4.46454e+140
-8.53676e+140
-2.8472e+140
-1.97502e+140
-1.62528e+140
-1.41579e+140
-1.07746e+140
-3.30444e+139
3.46251e+139
8.91311e+139
1.55791e+140
-2.8753e+140
-5.55053e+140
-5.36121e+140
-4.49267e+140
-3.57826e+140
-1.40568e+140
-5.68724e+139
-2.27429e+139
-1.10275e+139
-6.20541e+138
-4.0541e+138
-4.48572e+138
-3.15307e+138
7.62794e+138
3.94184e+139
1.03319e+140
1.06501e+140
8.50722e+139
6.54109e+139
4.98016e+139
1.80551e+139
6.7923e+138
3.39357e+138
2.19548e+138
1.58911e+138
9.6796e+137
9.25882e+136
-8.50506e+137
-1.86576e+138
-2.01173e+138
1.45433e+138
3.79703e+138
3.87974e+138
3.234e+138
2.48169e+138
-2.68583e+137
-7.74794e+136
-1.0939e+137
-1.07892e+137
-9.48958e+136
-5.99496e+136
-5.43037e+135
-6.8409e+135
-1.76664e+137
-6.80624e+137
-1.45621e+138
-1.52006e+138
-1.24569e+138
-9.64266e+137
-7.35915e+137
-1.70783e+137
-6.34121e+136
-3.01253e+136
-1.94495e+136
-1.43485e+136
-9.9027e+135
-4.28726e+135
5.43343e+135
2.17948e+136
3.75002e+136
4.01767e+136
2.74073e+136
1.68852e+136
9.50304e+135
2.65894e+135
5.14702e+135
1.39646e+135
1.86037e+135
1.93274e+135
1.69398e+135
9.39944e+134
-3.2517e+134
-1.28248e+135
-8.75645e+134
2.44509e+135
7.70022e+135
8.55712e+135
6.54455e+135
3.38568e+135
-1.06945e+135
2.99986e+135
1.18175e+135
4.4138e+134
1.99592e+134
1.05784e+134
6.64855e+133
3.61061e+133
-1.11279e+134
-5.27313e+134
-1.1761e+135
-1.64751e+135
-1.59912e+135
-1.71046e+135
-2.5584e+135
-4.74527e+135
-4.1997e+134
-1.58748e+134
-7.84676e+133
-5.04076e+133
-3.56324e+133
-2.04517e+133
-1.27926e+132
1.91327e+133
3.30589e+133
1.49068e+133
-4.87079e+133
-1.37945e+134
-3.88317e+134
-1.14282e+135
-2.8961e+135
8.33303e+132
2.70378e+132
2.86888e+132
2.68886e+132
2.25919e+132
1.31093e+132
9.40707e+129
-1.61341e+131
2.96037e+132
1.13079e+133
2.12626e+133
1.67434e+133
-5.121e+133
-4.27014e+134
-1.50443e+135
3.4394e+132
1.35714e+132
6.07712e+131
3.55812e+131
2.4404e+131
1.64852e+131
6.54419e+130
-1.33517e+131
-5.13625e+131
-1.05643e+132
-1.51157e+132
-1.96766e+132
-6.01658e+132
-3.10141e+133
-1.15806e+134
-2.35025e+131
-8.48238e+130
-5.95246e+130
-4.90148e+130
-4.01471e+130
-2.61773e+130
-4.55481e+129
1.80749e+130
1.5277e+130
-1.70823e+131
-5.0532e+131
-8.7255e+131
-1.5208e+132
-3.5725e+132
-9.71393e+132
-3.62564e+130
-1.56754e+130
-5.77191e+129
-2.30166e+129
-1.02794e+129
-7.08535e+128
-5.89759e+128
2.8954e+129
1.60309e+129
-1.61249e+131
-4.20286e+131
-7.55723e+131
-1.27553e+132
-2.16889e+132
-3.77047e+132
6.31877e+129
2.55237e+129
1.31672e+129
8.55853e+128
6.1785e+128
4.13426e+128
3.13363e+128
2.63207e+129
-5.02733e+129
-2.13505e+131
-5.33367e+131
-9.36854e+131
-1.54502e+132
-2.52556e+132
-4.11517e+132
-1.12468e+128
-3.07636e+127
-4.58242e+127
-4.89261e+127
-4.54009e+127
-3.42956e+127
1.51739e+128
3.25514e+129
-5.42579e+129
-2.28136e+131
-5.72812e+131
-1.03924e+132
-1.74796e+132
-2.89505e+132
-4.76854e+132
-6.84724e+127
-2.9651e+127
-1.36286e+127
-7.81812e+126
-5.85241e+126
-4.86533e+126
1.72e+128
3.78284e+129
-5.82694e+129
-1.95326e+131
-5.01905e+131
-9.3391e+131
-1.59104e+132
-2.63581e+132
-4.31471e+132
5.94852e+126
2.36015e+126
1.54514e+126
1.10838e+126
2.21254e+125
-4.93713e+125
1.76552e+128
4.41174e+129
6.67739e+129
-1.19449e+131
-3.5946e+131
-6.80641e+131
-1.12459e+132
-1.76678e+132
-2.71079e+132
6.45784e+125
3.33593e+125
1.24359e+125
-7.28555e+124
-7.89159e+125
-1.36656e+126
1.64763e+128
5.17685e+129
1.13694e+130
-4.67736e+130
-1.95168e+131
-3.86359e+131
-6.1655e+131
-9.02201e+131
-1.26234e+132
-9.04815e+124
-1.56028e+124
-2.23857e+124
-1.48684e+125
-8.25278e+125
-1.41646e+126
1.40197e+128
6.01247e+129
1.36503e+130
-1.51893e+129
-6.04308e+130
-1.5128e+131
-2.61674e+131
-3.85301e+131
-5.2032e+131
4.39338e+124
4.58483e+124
6.17695e+123
-1.43858e+125
-8.26373e+125
-1.37654e+126
1.16255e+128
7.17844e+129
1.54662e+130
1.47635e+130
-3.43433e+128
-3.2337e+130
-7.8732e+130
-1.35317e+131
-2.00147e+131
4.9172e+124
5.1564e+124
-4.15724e+122
-1.7165e+125
-8.66326e+125
-1.43447e+126
1.17482e+128
5.70343e+129
1.413e+130
1.82314e+130
1.76547e+130
1.12154e+130
-1.99071e+129
-2.22716e+130
-4.9948e+130
5.59967e+124
5.84992e+124
-8.57059e+123
-2.09691e+125
-9.0776e+125
-1.63468e+126
1.25201e+128
3.33558e+129
9.15639e+129
1.38662e+130
1.7331e+130
1.91839e+130
1.91341e+130
1.67277e+130
1.11908e+130
6.51181e+124
6.70475e+124
-1.64784e+124
-2.52593e+125
-9.32547e+125
-1.91776e+126
1.41576e+128
1.68363e+129
4.14435e+129
6.80965e+129
9.48787e+129
1.2055e+130
1.44933e+130
1.66874e+130
1.83473e+130
7.42479e+124
7.53217e+124
-2.56263e+124
-2.99765e+125
-9.60983e+125
-2.16999e+126
7.38662e+127
5.19696e+128
1.20842e+129
2.09149e+129
3.10935e+129
4.27086e+129
5.60342e+129
7.09407e+129
8.69615e+129
8.4402e+124
8.39868e+124
-3.80517e+124
-3.57997e+125
-1.00869e+126
-2.10649e+126
8.48682e+126
8.40632e+127
1.94063e+128
3.56643e+128
5.67901e+128
8.37105e+128
1.18072e+129
1.60545e+129
2.11163e+129
9.5697e+124
9.36382e+124
-5.32327e+124
-4.3082e+125
-1.11463e+126
-1.71811e+126
9.83077e+125
9.925e+126
1.37473e+127
2.01449e+127
3.34542e+127
5.61221e+127
9.06778e+127
1.39413e+128
2.04427e+128
1.07836e+125
1.03657e+125
-7.34535e+124
-5.29171e+125
-1.36745e+126
-2.25445e+126
-2.06871e+126
1.42008e+126
4.07324e+126
3.82614e+126
2.20185e+126
2.55876e+123
-2.38902e+126
-4.57572e+126
-6.17417e+126
1.22679e+125
1.26917e+125
-6.62771e+124
-5.84473e+125
-1.48059e+126
-2.45429e+126
-2.73594e+126
-1.56103e+126
3.81381e+125
2.00172e+126
3.14386e+126
3.87205e+126
4.23332e+126
4.25311e+126
3.95484e+126
1.29022e+125
1.80636e+125
1.0474e+125
-1.72828e+125
-6.66669e+125
-1.25316e+126
-1.63883e+126
-1.63864e+126
-1.34961e+126
-9.34528e+125
-4.74119e+125
-7.2448e+123
4.48871e+125
8.79047e+125
1.27307e+126
1.03049e+125
1.8625e+125
2.29185e+125
1.98509e+125
8.84136e+124
-7.21556e+124
-2.39075e+125
-3.70212e+125
-4.49765e+125
-4.8806e+125
-4.94876e+125
-4.76019e+125
-4.36352e+125
-3.80435e+125
-3.12073e+125
4.51617e+124
1.0383e+125
1.60537e+125
1.97684e+125
2.06574e+125
1.91961e+125
1.60779e+125
1.21585e+125
8.27672e+124
4.85627e+124
1.96874e+124
-4.23258e+123
-2.35982e+124
-3.87197e+124
-4.98418e+124
2.45039e+123
2.12875e+124
4.262e+124
6.01717e+124
7.10376e+124
7.57675e+124
7.57193e+124
7.23478e+124
6.71929e+124
6.14647e+124
5.57007e+124
5.00143e+124
4.44438e+124
3.90687e+124
3.39646e+124
-7.45895e+123
-5.87531e+123
-2.32831e+123
1.31259e+123
4.37109e+123
6.6696e+123
8.24165e+123
9.2144e+123
9.76431e+123
1.00276e+124
1.00735e+124
9.93984e+123
9.65878e+123
9.26317e+123
8.77464e+123
-3.38249e+123
-3.89198e+123
-3.72504e+123
-3.31507e+123
-2.79841e+123
-2.27873e+123
-1.80104e+123
-1.38622e+123
-1.04385e+123
-7.67777e+122
-5.43723e+122
-3.60482e+122
-2.11119e+122
-9.07597e+121
2.6989e+120
-7.0622e+122
-8.22754e+122
-8.29074e+122
-7.96927e+122
-7.39933e+122
-6.72279e+122
-6.00991e+122
-5.30589e+122
-4.68465e+122
-4.17229e+122
-3.72911e+122
-3.32731e+122
-2.95847e+122
-2.62039e+122
-2.31405e+122
-9.73409e+121
-1.0253e+122
-9.42737e+121
-8.63362e+121
-7.84231e+121
-7.08758e+121
-6.375e+121
-5.71187e+121
-5.15084e+121
-4.69959e+121
-4.30339e+121
-3.9322e+121
-3.57941e+121
-3.24444e+121
-2.92929e+121
-6.71178e+120
-9.61084e+120
-8.33845e+120
-6.82245e+120
-5.47611e+120
-4.40361e+120
-3.5694e+120
-2.94356e+120
-2.49388e+120
-2.16312e+120
-1.89971e+120
-1.67759e+120
-1.48525e+120
-1.31672e+120
-1.16744e+120
1.81302e+120
5.34717e+119
-5.00927e+118
-2.05721e+119
-2.26071e+119
-2.01325e+119
-1.65217e+119
-1.32433e+119
-1.0603e+119
-8.39478e+118
-6.49417e+118
-4.89264e+118
-3.58322e+118
-2.54892e+118
-1.7185e+118
2.46331e+119
4.18672e+119
2.85218e+119
1.93922e+119
1.3207e+119
9.19945e+118
6.54868e+118
4.77989e+118
3.59299e+118
2.77142e+118
2.17786e+118
1.73449e+118
1.39627e+118
1.13328e+118
9.33518e+117
-9.99805e+118
2.65793e+118
5.18453e+118
4.4784e+118
3.50728e+118
2.70406e+118
2.09771e+118
1.66304e+118
1.34557e+118
1.10068e+118
9.04221e+117
7.43682e+117
6.11475e+117
5.02345e+117
4.13463e+117
4.93987e+118
1.05315e+118
7.77463e+117
5.58779e+117
4.23067e+117
3.24062e+117
2.52448e+117
2.01787e+117
1.64953e+117
1.36541e+117
1.13563e+117
9.44959e+116
7.85151e+116
6.5134e+116
5.40789e+116
3.6282e+118
1.25369e+118
3.90003e+117
1.58133e+117
7.99125e+116
4.67427e+116
3.05647e+116
2.17884e+116
1.6468e+116
1.28188e+116
1.00764e+116
7.94096e+115
6.26871e+115
4.97003e+115
3.96083e+115
-1.5697e+115
1.73173e+117
7.5656e+116
3.54151e+116
1.67894e+116
8.45926e+115
4.67907e+115
2.86103e+115
1.88916e+115
1.30119e+115
9.21151e+114
6.7071e+114
5.02101e+114
3.86729e+114
2.98649e+114
-3.54944e+117
-1.10563e+117
-2.91691e+116
-8.21779e+115
-2.43478e+115
-6.56225e+114
-1.11585e+114
9.61867e+112
-6.64394e+112
-4.49765e+113
-6.9351e+113
-7.75717e+113
-7.53464e+113
-6.78672e+113
-6.0513e+113
-4.38187e+116
-3.02959e+116
-1.30688e+116
-6.14931e+115
-3.02742e+115
-1.55545e+115
-8.36157e+114
-4.69671e+114
-2.73148e+114
-1.62615e+114
-9.9024e+113
-6.22402e+113
-4.07483e+113
-2.81009e+113
-2.05243e+113
1.887e+116
4.86952e+115
7.18395e+114
-2.24904e+114
-3.60568e+114
-3.2171e+114
-2.53416e+114
-1.88475e+114
-1.34949e+114
-9.43771e+113
-6.52223e+113
-4.48443e+113
-3.07927e+113
-2.1202e+113
-1.45322e+113
4.37361e+115
2.32603e+115
9.88738e+114
4.57819e+114
2.2247e+114
1.10852e+114
5.54696e+113
2.70881e+113
1.22223e+113
4.41572e+112
4.7219e+111
-1.33496e+112
-1.99654e+112
-2.07135e+112
-1.8571e+112
-4.18503e+114
-2.66385e+113
4.54214e+113
5.01714e+113
4.04783e+113
3.05808e+113
2.26707e+113
1.66106e+113
1.20069e+113
8.56976e+112
6.06088e+112
4.2586e+112
2.97731e+112
2.07887e+112
1.44875e+112
-2.24155e+114
-1.01276e+114
-4.12107e+113
-1.84743e+113
-8.7933e+112
-4.29395e+112
-2.09049e+112
-9.697e+111
-3.84726e+111
-8.05199e+110
6.93402e+110
1.32944e+111
1.49764e+111
1.43331e+111
1.25706e+111
-1.55184e+113
-1.21486e+113
-6.64452e+112
-3.90576e+112
-2.41373e+112
-1.56485e+112
-1.05716e+112
-7.35248e+111
-5.18715e+111
-3.67857e+111
-2.61351e+111
-1.85858e+111
-1.32329e+111
-9.44755e+110
-6.79493e+110
3.59874e+112
9.33082e+111
1.12917e+111
-6.669e+110
-9.2665e+110
-8.32516e+110
-6.72985e+110
-5.22284e+110
-3.96436e+110
-2.96817e+110
-2.20313e+110
-1.62658e+110
-1.19839e+110
-8.84394e+109
-6.56258e+109
4.71727e+111
2.85761e+111
1.25605e+111
6.1267e+110
3.16846e+110
1.70512e+110
9.42769e+109
5.27183e+109
2.92595e+109
1.58783e+109
8.33421e+108
4.17538e+108
1.93574e+108
7.61164e+107
1.67072e+107
-1.01147e+111
-2.69951e+110
-3.90309e+109
1.81386e+109
2.80117e+109
2.55692e+109
2.05073e+109
1.55776e+109
1.14583e+109
8.24754e+108