/*--------------------------------*- C++ -*----------------------------------*\
  =========                 |
  \\      /  F ield         | OpenFOAM: The Open Source CFD Toolbox
   \\    /   O peration     | Website:  https://openfoam.org
    \\  /    A nd           | Version:  7
     \\/     M anipulation  |
\*---------------------------------------------------------------------------*/
FoamFile
{
    version     2.0;
    format      ascii;
    class       volScalarField;
    location    "3.4";
    object      T;
}
// * * * * * * * * * * * * * * * * * * * * * * * * * * * * * * * * * * * * * //

dimensions      [0 0 0 1 0 0 0];

internalField   nonuniform List<scalar> 
32100
(
1.56375e+96
-4.95023e+95
1.94767e+94
7.348e+93
-6.37588e+92
-3.08413e+91
1.03969e+91
-6.50728e+89
-1.66758e+89
1.73966e+88
3.92079e+86
-4.05687e+85
4.05848e+83
2.85557e+83
1.1563e+83
-5.4084e+95
1.85403e+94
7.86461e+93
-6.57813e+92
-3.31638e+91
1.07454e+91
-6.50915e+89
-1.71391e+89
1.80998e+88
8.94823e+86
1.40438e+85
-5.675e+85
1.71882e+84
2.20669e+83
7.79788e+82
1.59748e+94
8.62361e+93
-6.87592e+92
-3.58237e+91
1.12799e+91
-6.52878e+89
-1.78184e+89
1.82933e+88
5.26708e+86
-3.31462e+86
-3.93857e+85
-3.3435e+85
2.26918e+84
2.48067e+83
6.59562e+82
9.60298e+93
-7.42448e+92
-4.29109e+91
1.22801e+91
-5.4346e+89
-1.87619e+89
1.76896e+88
7.25033e+86
-3.02798e+86
-1.03735e+85
-2.70148e+85
-1.3506e+85
2.21561e+84
2.9547e+83
5.06532e+82
-7.96932e+92
-6.55919e+91
1.02477e+91
-1.18007e+89
-8.76989e+88
1.63065e+88
-2.90552e+86
-1.83404e+86
1.54419e+85
-8.65799e+84
-7.98522e+84
-3.07866e+84
1.79883e+84
2.89742e+83
3.27797e+82
-9.48317e+91
-3.6472e+90
-2.91144e+90
2.83072e+89
1.25671e+89
-1.15871e+87
-1.29441e+87
1.11024e+86
-5.98918e+83
-5.42051e+84
-6.82676e+82
4.98534e+83
1.2371e+84
2.24729e+83
1.71862e+82
-2.0417e+91
-1.68159e+91
-2.543e+90
4.64428e+89
1.07374e+89
-1.23604e+87
-1.00819e+87
7.62411e+85
-2.67673e+84
-4.31783e+84
8.30239e+83
1.00014e+84
7.09425e+83
1.36754e+83
6.21551e+81
-3.36052e+91
-1.54037e+91
-2.33506e+90
3.99499e+89
1.06099e+89
9.2217e+85
-1.04267e+87
5.90448e+85
-6.54958e+83
-4.5735e+84
3.54704e+83
5.94502e+83
3.25437e+83
6.34685e+82
2.61074e+80
-3.10193e+91
-1.4078e+91
-2.37376e+90
3.50797e+89
1.05638e+89
1.10527e+87
-1.04386e+87
4.59829e+85
1.12146e+84
-4.69023e+84
-1.13376e+83
2.1332e+83
1.11859e+83
2.05693e+82
-1.72938e+81
-2.84312e+91
-1.30455e+91
-2.38138e+90
3.0265e+89
1.04227e+89
2.14387e+87
-1.02522e+87
3.21749e+85
2.85777e+84
-4.45017e+84
-3.05671e+83
7.13899e+82
2.55474e+82
3.10034e+81
-1.55789e+81
-2.62975e+91
-1.20499e+91
-2.37952e+90
2.54475e+89
1.02335e+89
3.17253e+87
-9.91789e+86
1.81822e+85
4.35752e+84
-4.04314e+84
-3.61719e+83
3.61828e+82
2.55417e+81
-9.35564e+80
-7.85808e+80
-2.43183e+91
-1.12041e+91
-2.35463e+90
2.07062e+89
1.00017e+89
4.16578e+87
-9.4437e+86
4.48292e+84
5.48284e+84
-3.58338e+84
-3.67836e+83
2.59815e+82
7.60579e+80
-6.67389e+80
-2.05488e+80
-2.28914e+91
-1.04818e+91
-2.20873e+90
1.69557e+89
9.73352e+88
5.09639e+87
-8.84419e+86
-8.32564e+84
6.18161e+84
-3.12963e+84
-3.58883e+83
1.94385e+82
1.35103e+81
-1.66693e+80
6.83418e+78
-2.21216e+91
-8.63188e+90
-1.77148e+90
1.22547e+89
8.60365e+88
5.82407e+87
-8.02352e+86
-1.97099e+85
6.40153e+84
-2.70467e+84
-3.62926e+83
1.47532e+82
1.28592e+81
-5.90116e+79
3.09925e+79
-1.66357e+91
-6.2649e+90
-1.43192e+90
7.61798e+88
6.96802e+88
5.65046e+87
-6.53567e+86
-2.87266e+85
6.30576e+84
-2.35047e+84
-3.9094e+83
1.2686e+82
1.59618e+81
-2.57017e+79
4.0997e+79
-1.12153e+91
-4.83722e+90
-1.27216e+90
4.24762e+88
5.86188e+88
5.4361e+87
-5.23881e+86
-3.69781e+85
6.37114e+84
-2.04416e+84
-4.25775e+83
9.64589e+81
2.27496e+81
-3.25663e+79
5.04569e+79
-9.07087e+90
-4.2097e+90
-1.18812e+90
1.94905e+88
5.329e+88
5.72713e+87
-4.38679e+86
-4.548e+85
6.43639e+84
-1.73971e+84
-4.50091e+83
4.24263e+81
2.80902e+81
-4.107e+79
5.64748e+79
-8.07274e+90
-3.8506e+90
-1.15025e+90
1.20633e+87
5.03052e+88
6.13822e+87
-3.56304e+86
-5.40582e+85
6.24004e+84
-1.42658e+84
-4.65834e+83
-2.26016e+81
3.15535e+81
-3.15707e+79
5.64985e+79
-7.24362e+90
-3.53195e+90
-1.10686e+90
-1.5436e+88
4.73409e+88
6.59173e+87
-2.6444e+86
-6.26396e+85
5.77222e+84
-1.10708e+84
-4.74264e+83
-9.30218e+81
3.33539e+81
-7.57793e+78
5.13599e+79
-6.54423e+90
-3.22764e+90
-1.05693e+90
-3.16259e+88
4.40969e+88
7.04995e+87
-1.58594e+86
-7.04808e+85
5.0168e+84
-7.887e+83
-4.76186e+83
-1.68221e+82
3.47369e+81
2.48704e+79
4.33106e+79
-5.91376e+90
-2.92946e+90
-1.00022e+90
-4.72254e+88
4.05736e+88
7.49133e+87
-3.71759e+85
-7.70103e+85
3.97129e+84
-4.7797e+83
-4.70675e+83
-2.45078e+82
3.45645e+81
6.40971e+79
3.29949e+79
-5.30021e+90
-2.63045e+90
-9.40343e+89
-6.20336e+88
3.67723e+88
7.90563e+87
1.00349e+86
-8.18762e+85
2.63895e+84
-1.80318e+83
-4.58664e+83
-3.19014e+82
3.20782e+81
1.06834e+80
2.20539e+79
-4.70183e+90
-2.34065e+90
-8.7999e+89
-7.56875e+88
3.27151e+88
8.2801e+87
2.53799e+86
-8.46428e+85
1.00557e+84
1.00281e+83
-4.42381e+83
-3.93331e+82
2.88144e+81
1.51654e+80
1.26989e+79
-4.13065e+90
-2.06664e+90
-8.19032e+89
-8.79637e+88
2.83765e+88
8.56744e+87
4.229e+86
-8.47651e+85
-9.5387e+83
3.58782e+83
-4.2256e+83
-4.71827e+82
2.50409e+81
2.0073e+80
5.68757e+78
-3.60198e+90
-1.81793e+90
-7.59155e+89
-9.88837e+88
2.37913e+88
8.75249e+87
6.07415e+86
-8.13989e+85
-3.26361e+84
5.85667e+83
-3.97203e+83
-5.57365e+82
2.02643e+81
2.56732e+80
8.86838e+77
-3.1189e+90
-1.59426e+90
-6.99016e+89
-1.08226e+89
1.90056e+88
8.8346e+87
8.06032e+86
-7.34624e+85
-5.93355e+84
7.68318e+83
-3.6417e+83
-6.56507e+82
1.38478e+81
3.23714e+80
-2.2868e+78
-2.69042e+90
-1.39153e+90
-6.39119e+89
-1.16052e+89
1.4046e+88
8.80262e+87
1.01775e+87
-5.98286e+85
-8.93334e+84
8.90147e+83
-3.19888e+83
-7.63535e+82
4.67026e+80
3.99155e+80
-4.1241e+78
-2.32571e+90
-1.21417e+90
-5.83156e+89
-1.22748e+89
8.94097e+87
8.63791e+87
1.24064e+87
-3.91402e+85
-1.21531e+85
9.32726e+83
-2.6217e+83
-8.6101e+82
-7.9323e+80
4.6847e+80
-4.0123e+78
-2.01457e+90
-1.06614e+90
-5.33079e+89
-1.28377e+89
3.71992e+87
8.3284e+87
1.4735e+87
-9.81193e+84
-1.54499e+85
8.54491e+83
-1.91186e+83
-9.51635e+82
-2.41588e+81
5.30208e+80
-1.56953e+78
-1.73713e+90
-9.40617e+89
-4.86725e+89
-1.3238e+89
-1.57141e+87
7.8543e+87
1.71325e+87
3.01545e+85
-1.86422e+85
6.12334e+83
-1.07979e+83
-1.03464e+83
-4.48176e+81
5.82386e+80
3.18707e+78
-1.47738e+90
-8.2147e+89
-4.38403e+89
-1.34073e+89
-6.86465e+87
7.18887e+87
1.95508e+87
8.33351e+85
-2.1392e+85
1.59587e+83
-1.32574e+82
-1.0863e+83
-6.85668e+81
6.02104e+80
1.02368e+79
-1.23624e+90
-7.0031e+89
-3.84605e+89
-1.3363e+89
-1.20634e+88
6.30912e+87
2.19027e+87
1.52552e+86
-2.31037e+85
-5.66757e+83
9.00189e+82
-1.09425e+83
-9.41114e+81
5.87004e+80
1.95574e+79
-1.03221e+90
-5.8992e+89
-3.34053e+89
-1.31241e+89
-1.70555e+88
5.18766e+87
2.40275e+87
2.39979e+86
-2.27724e+85
-1.6365e+84
1.93649e+83
-1.09336e+83
-1.28528e+82
5.51776e+80
3.27844e+79
-8.69243e+89
-5.06903e+89
-2.9475e+89
-1.27353e+89
-2.18264e+88
3.80916e+87
2.57467e+87
3.45941e+86
-1.89707e+85
-3.09888e+84
2.82293e+83
-1.08372e+83
-1.82076e+82
4.5917e+80
5.4431e+79
-7.33014e+89
-4.46673e+89
-2.63157e+89
-1.22433e+89
-2.63825e+88
2.16269e+87
2.6798e+87
4.67371e+86
-9.9169e+84
-4.95029e+84
3.29343e+83
-9.77779e+82
-2.55962e+82
1.96506e+80
9.06705e+79
-6.14298e+89
-3.91381e+89
-2.31942e+89
-1.16719e+89
-3.06628e+88
2.31643e+86
2.66368e+87
5.98232e+86
6.40052e+84
-7.0551e+84
2.80657e+83
-7.09758e+82
-3.52193e+82
-4.46472e+80
1.4853e+80
-5.1162e+89
-3.38564e+89
-2.02019e+89
-1.10674e+89
-3.46196e+88
-1.96407e+87
2.50147e+87
7.32839e+86
3.1908e+85
-9.05026e+84
5.63386e+82
-2.03292e+82
-4.65915e+82
-1.85656e+81
2.30208e+80
-4.22938e+89
-2.93643e+89
-1.76612e+89
-1.04328e+89
-3.81048e+88
-4.33684e+87
2.19191e+87
8.62745e+86
6.80474e+85
-1.03283e+85
-4.29924e+83
5.15438e+82
-5.60169e+82
-4.43279e+81
3.13513e+80
-3.46005e+89
-2.5675e+89
-1.55447e+89
-9.71809e+88
-4.06635e+88
-6.72354e+87
1.72355e+87
9.75063e+86
1.14621e+86
-9.96387e+84
-1.22135e+84
1.25197e+83
-5.94253e+82
-8.48092e+81
3.33641e+80
-2.78868e+89
-2.26223e+89
-1.38181e+89
-8.94332e+88
-4.15271e+88
-8.97347e+87
1.09266e+87
1.05321e+87
1.6876e+86
-6.90618e+84
-2.27634e+84
1.70538e+83
-5.23328e+82
-1.43905e+82
1.50898e+80
-2.19529e+89
-1.98661e+89
-1.2354e+89
-8.097e+88
-4.0777e+88
-1.09559e+88
3.21111e+86
1.06904e+87
2.26018e+86
-4.7933e+83
-3.45357e+84
1.51495e+83
-2.64541e+82
-2.18888e+82
-5.07064e+80
-1.67571e+89
-1.70527e+89
-1.10103e+89
-7.1719e+88
-3.91837e+88
-1.25744e+88
-5.34852e+86
1.02247e+87
2.84959e+86
9.47126e+84
-4.48985e+84
2.61762e+82
1.34661e+82
-2.67697e+82
-1.69278e+81
-1.2498e+89
-1.41847e+89
-9.67184e+88
-6.2654e+88
-3.7136e+88
-1.37852e+88
-1.41427e+87
8.98746e+86
3.46248e+86
2.26086e+85
-4.98355e+84
-1.97508e+83
5.18958e+82
-2.71272e+82
-3.19173e+81
-9.23721e+88
-1.15632e+89
-8.37521e+88
-5.49137e+88
-3.48245e+88
-1.45994e+88
-2.26375e+87
7.131e+86
3.77164e+86
3.7661e+85
-4.92972e+84
-4.61354e+83
8.21687e+82
-2.41705e+82
-4.87808e+81
-6.83578e+88
-9.40424e+88
-7.27927e+88
-4.87609e+88
-3.24633e+88
-1.50961e+88
-3.04765e+87
4.92735e+86
3.80698e+86
5.01955e+85
-4.46817e+84
-7.06294e+83
8.76406e+82
-2.10604e+82
-9.17771e+81
-5.08927e+88
-7.71612e+88
-6.40672e+88
-4.38059e+88
-3.02471e+88
-1.53852e+88
-3.77072e+87
2.59524e+86
3.75514e+86
5.95622e+85
-3.27265e+84
-8.26568e+83
7.09976e+82
-8.45094e+81
-5.80995e+81
-3.79074e+88
-6.38235e+88
-5.72832e+88
-3.99581e+88
-2.82695e+88
-1.55614e+88
-4.45512e+87
2.35978e+85
3.62858e+86
6.81328e+85
-2.01004e+84
-8.68026e+83
5.27568e+82
-2.44809e+81
-2.89617e+81
-2.80732e+88
-5.28383e+88
-5.18268e+88
-3.70807e+88
-2.64945e+88
-1.55848e+88
-5.09049e+87
-2.16336e+86
3.54306e+86
7.67006e+85
-9.45678e+83
-9.25528e+83
4.26552e+82
3.58661e+80
-2.00955e+81
-2.04318e+88
-4.33495e+88
-4.67373e+88
-3.46542e+88
-2.47621e+88
-1.53465e+88
-5.61789e+87
-4.65175e+86
3.44437e+86
8.64891e+85
1.24228e+83
-9.99597e+83
3.59437e+82
1.92941e+81
-1.92519e+81
-1.45978e+88
-3.5079e+88
-4.18021e+88
-3.24934e+88
-2.30842e+88
-1.49151e+88
-6.03526e+87
-7.24729e+86
3.24949e+86
9.6487e+85
1.30555e+84
-1.07768e+84
2.91831e+82
3.00805e+81
-2.17654e+81
-1.01997e+88
-2.80719e+88
-3.74113e+88
-3.07932e+88
-2.16263e+88
-1.4465e+88
-6.43604e+87
-1.00035e+87
2.95602e+86
1.05918e+86
2.6127e+84
-1.13844e+84
2.05822e+82
3.55335e+81
-2.44218e+81
-6.91566e+87
-2.21409e+88
-3.34469e+88
-2.92008e+88
-2.04198e+88
-1.40111e+88
-6.84257e+87
-1.30486e+87
2.55911e+86
1.1427e+86
3.99501e+84
-1.1504e+84
1.00175e+82
3.36775e+81
-2.43125e+81
-4.57027e+87
-1.70203e+88
-2.92e+88
-2.74335e+88
-1.93931e+88
-1.3545e+88
-7.19949e+87
-1.63918e+87
2.03776e+86
1.21462e+86
5.32245e+84
-1.10512e+84
-5.8229e+80
2.40415e+81
-2.30947e+81
-2.93661e+87
-1.27582e+88
-2.48075e+88
-2.56826e+88
-1.86869e+88
-1.31041e+88
-7.49944e+87
-1.99693e+87
1.368e+86
1.26768e+86
6.46659e+84
-1.00877e+84
-9.51615e+81
7.88262e+80
-2.51525e+81
-1.7876e+87
-9.36512e+87
-2.0832e+88
-2.41363e+88
-1.83148e+88
-1.26694e+88
-7.72582e+87
-2.37024e+87
5.34998e+85
1.29519e+86
7.22409e+84
-8.61197e+83
-1.6238e+82
-1.2223e+81
-3.06823e+81
-9.92051e+86
-6.63062e+87
-1.71666e+88
-2.26115e+88
-1.80321e+88
-1.22429e+88
-7.87421e+87
-2.75087e+87
-4.68552e+85
1.29411e+86
7.30061e+84
-6.53481e+83
-2.16427e+82
-2.63077e+81
-2.89972e+81
-4.67043e+86
-4.42381e+87
-1.36966e+88
-2.08034e+88
-1.7761e+88
-1.1874e+88
-7.96305e+87
-3.15084e+87
-1.6427e+86
1.22223e+86
6.36125e+84
-3.80113e+83
-2.41533e+82
-2.82634e+81
-2.53135e+81
-1.57742e+86
-2.72219e+87
-1.04652e+88
-1.86892e+88
-1.74449e+88
-1.15772e+88
-7.93602e+87
-3.55376e+87
-2.9638e+86
1.08258e+86
4.71066e+84
-1.16547e+83
-2.96084e+82
-4.09667e+81
-2.56798e+81
-6.49324e+84
-1.48789e+87
-7.53451e+87
-1.62689e+88
-1.69484e+88
-1.13636e+88
-7.7727e+87
-3.89991e+87
-4.45822e+86
9.09097e+85
3.30217e+84
3.27109e+82
-4.20569e+82
-8.79604e+81
-3.818e+81
4.71169e+85
-6.68531e+86
-4.98202e+87
-1.35829e+88
-1.62217e+88
-1.12979e+88
-7.51122e+87
-4.09479e+87
-6.18937e+86
9.48402e+85
3.43874e+84
3.51443e+82
-5.08637e+82
-2.30597e+82
-1.06463e+82
4.83582e+85
-1.83218e+86
-2.86191e+87
-1.073e+88
-1.52814e+88
-1.14658e+88
-7.19815e+87
-4.01959e+87
-7.92731e+86
1.50975e+86
1.36698e+85
-3.05332e+83
-1.01544e+83
-8.03574e+82
-3.61399e+82
2.45613e+85
3.78228e+85
-1.23192e+87
-7.77593e+87
-1.41053e+88
-1.19442e+88
-6.94726e+87
-3.66919e+87
-9.2608e+86
1.09393e+86
3.67984e+85
4.10154e+84
3.8764e+84
2.34921e+84
7.55132e+83
4.93091e+84
5.8924e+85
-1.66622e+86
-4.78451e+87
-1.25411e+88
-1.27075e+88
-6.9542e+87
-3.26027e+87
-1.13253e+87
-4.53297e+85
6.97347e+85
1.72654e+85
1.2567e+85
1.17076e+85
5.76285e+84
5.81441e+84
3.26902e+85
2.34623e+86
-1.93584e+87
-1.03146e+88
-1.35427e+88
-7.37536e+87
-2.76408e+87
-1.27046e+87
-3.16068e+86
-8.52136e+85
-9.98745e+85
-1.6187e+86
-2.06182e+86
-1.15144e+86
2.9122e+85
4.50344e+85
1.84163e+86
6.41579e+85
-7.17421e+87
-1.40757e+88
-8.24609e+87
-2.16e+87
-1.0784e+87
-3.50538e+86
-4.31689e+86
-4.21069e+86
-5.54651e+86
-4.18457e+86
-2.19264e+86
1.12734e+86
3.94399e+85
2.09004e+86
3.01462e+86
-3.85621e+87
-1.36207e+88
-9.25973e+87
-1.76045e+87
-7.13058e+86
-3.62096e+85
-8.74031e+85
-2.2567e+86
-2.02464e+86
-1.4241e+86
-2.13522e+86
2.41979e+87
9.05636e+86
5.91677e+86
-1.37461e+86
-3.55889e+87
-1.10358e+88
-9.52323e+87
-1.73844e+87
-4.57075e+86
1.55558e+85
-1.30065e+85
-2.87381e+85
-2.09378e+85
-3.11362e+85
-1.82398e+86
-2.87313e+88
-1.16112e+88
-4.24698e+87
-2.02865e+87
-6.63732e+87
-1.12216e+88
-7.04073e+87
-1.63662e+87
-3.39226e+86
-3.60823e+86
-1.95462e+86
-1.04618e+86
-6.98325e+85
-4.35106e+85
-1.47396e+86
-3.09673e+89
-9.48753e+88
-5.74913e+88
-4.11131e+88
-2.76889e+88
-1.13969e+88
-2.11614e+87
6.43792e+86
-4.10711e+86
-5.46422e+86
-3.17761e+86
-1.7131e+86
-9.87777e+85
-5.26778e+85
-1.27537e+86
8.22081e+90
2.04687e+90
5.53317e+89
1.84927e+89
7.0236e+88
3.2106e+88
1.04668e+88
-1.1487e+87
-2.32133e+87
-1.52171e+87
-7.71958e+86
-3.69095e+86
-1.81406e+86
-8.63623e+85
-1.14354e+86
-4.30967e+91
-4.58727e+90
2.45449e+90
1.85789e+90
1.04103e+90
5.51599e+89
2.04654e+89
4.35043e+88
5.51832e+87
-4.69663e+86
-7.41614e+86
-4.06143e+86
-1.83739e+86
-7.5646e+85
-7.28218e+85
-6.86058e+92
-1.22413e+92
-3.31818e+91
-8.00124e+90
-1.09215e+90
3.94746e+89
2.75492e+89
7.80487e+88
1.47025e+88
1.23141e+87
-8.23351e+86
-7.8117e+86
-4.92765e+86
-2.53614e+86
-2.24113e+86
4.85081e+93
-2.53289e+92
-2.37085e+92
-6.6276e+91
-1.57277e+91
-1.44172e+90
1.54388e+89
3.17742e+88
-2.19529e+88
-2.81612e+88
-2.35283e+88
-1.71712e+88
-1.10761e+88
-6.19435e+87
-5.1085e+87
6.67028e+94
7.1206e+93
-5.7076e+91
-1.85185e+92
-1.67626e+91
-3.2629e+90
-1.25568e+89
-1.92601e+88
-3.54221e+88
-8.20524e+87
1.04437e+88
1.32231e+88
7.74137e+87
9.9303e+86
-4.4879e+87
-1.21061e+96
5.64246e+94
7.91701e+93
-9.44915e+92
-6.09227e+91
1.62825e+91
3.95669e+89
1.50509e+90
1.26437e+90
9.49789e+89
7.08169e+89
4.98256e+89
3.09663e+89
1.53919e+89
5.41952e+88
5.56262e+96
-1.13603e+96
7.5265e+94
3.83907e+93
-1.07779e+93
-3.21185e+91
7.42821e+90
-1.16064e+91
-1.09187e+91
-1.02313e+91
-8.72583e+90
-6.51777e+90
-4.03502e+90
-1.91218e+90
-6.51206e+89
2.92643e+97
4.53894e+96
-1.01845e+96
6.91838e+94
3.18303e+93
-1.15642e+93
-1.10985e+92
-3.21873e+91
-2.05536e+91
-7.08354e+89
8.40299e+90
9.51396e+90
6.15838e+90
2.06399e+90
5.42544e+89
-2.50141e+98
2.93814e+97
3.92172e+96
-9.60015e+95
6.82419e+94
4.7637e+93
4.95515e+92
1.40246e+93
1.30395e+93
1.09653e+93
8.83492e+92
6.56058e+92
4.23523e+92
2.20328e+92
8.37087e+91
-2.6431e+99
-2.17368e+98
2.89436e+97
3.55733e+96
-9.016e+95
7.39986e+94
8.0231e+93
6.42453e+92
-5.60846e+92
-1.85723e+93
-2.43214e+93
-2.26979e+93
-1.62692e+93
-8.36326e+92
-3.2967e+92
5.08682e+100
-2.55901e+99
-1.93881e+98
2.85062e+97
3.21294e+96
-9.6291e+95
-9.82028e+93
-5.8947e+94
-5.21643e+94
-3.96165e+94
-2.93585e+94
-2.13937e+94
-1.45947e+94
-9.00528e+93
-4.47643e+93
-8.52272e+101
1.41159e+101
-6.94713e+99
-5.94859e+98
7.67926e+97
1.14279e+97
-1.82174e+96
1.29641e+96
1.27514e+96
1.26243e+96
1.16809e+96
9.93344e+95
7.58335e+95
5.53444e+95
4.07178e+95
-2.246e+102
-8.07311e+101
1.35116e+101
-6.35762e+99
-6.265e+98
8.74596e+97
2.78089e+97
9.99164e+96
1.11825e+97
9.10819e+96
6.27656e+96
4.1491e+96
2.83329e+96
1.9108e+96
1.13312e+96
5.17282e+103
-2.52337e+102
-7.09777e+101
1.29351e+101
-5.16624e+99
-6.29723e+98
1.45017e+98
7.37097e+97
4.08525e+97
3.21821e+97
2.30035e+97
1.52903e+97
9.07052e+96
4.86006e+96
2.74007e+96
1.72715e+104
4.65468e+103
-2.77107e+102
-7.37005e+101
1.06049e+101
6.73244e+99
-1.48904e+99
2.03712e+98
2.10931e+98
1.18937e+98
7.71701e+97
4.81779e+97
2.60833e+97
1.22162e+97
6.10914e+96
-6.02811e+105
1.88357e+104
4.34433e+103
-2.595e+102
-5.73297e+101
9.69253e+100
-4.73543e+99
-4.66546e+98
4.42825e+97
4.84959e+97
4.77308e+97
4.38944e+97
3.37441e+97
2.18229e+97
1.38543e+97
1.82573e+104
4.81623e+103
-3.14074e+102
-7.39715e+101
1.1383e+101
-9.8532e+99
-2.38902e+99
-6.49138e+98
-2.42527e+98
-7.82242e+97
-3.36417e+96
2.68356e+97
3.03108e+97
2.62523e+97
2.13511e+97
5.35311e+103
-2.17155e+102
-9.91807e+101
1.78112e+100
-1.47775e+100
-6.81034e+99
-2.66924e+99
-1.07594e+99
-4.39153e+98
-1.71423e+98
-5.07279e+97
1.54213e+97
3.15197e+97
3.26273e+97
2.86714e+97
-1.03745e+102
-5.37398e+101
-1.67088e+101
-5.40783e+100
-1.73811e+100
-5.89307e+99
-2.06634e+99
-7.12873e+98
-2.20382e+98
-4.08132e+97
3.54688e+97
9.26241e+97
6.59992e+97
4.59834e+97
3.07276e+97
-4.70184e+101
-7.06839e+100
-3.39405e+99
3.02951e+99
2.61192e+99
1.75911e+99
1.12155e+99
7.07281e+98
4.49454e+98
3.22162e+98
2.87251e+98
3.4317e+98
2.81416e+97
3.71045e+96
5.54257e+95
4.08269e+100
1.13328e+100
4.17761e+99
1.91462e+99
9.72538e+98
5.36144e+98
3.18114e+98
2.01022e+98
1.51888e+98
3.02529e+98
8.66571e+97
-6.69794e+96
2.04514e+96
3.01094e+95
5.80857e+94
-8.34024e+98
-2.6265e+98
-1.79058e+98
-1.19728e+98
-8.14958e+97
-5.86071e+97
-4.40499e+97
-3.75906e+97
-5.15769e+97
1.50322e+98
2.3451e+98
-2.60514e+94
-1.10683e+97
-6.0178e+96
-3.10751e+96
-1.2789e+98
-4.35433e+97
-2.0085e+97
-1.36525e+97
-1.02531e+97
-6.94422e+96
-4.80461e+96
-2.47383e+96
9.34961e+96
2.61548e+97
1.88317e+98
1.23158e+98
7.02657e+97
3.93452e+97
2.20265e+97
5.28944e+95
-9.36495e+95
8.65508e+95
1.49717e+96
1.6626e+96
1.43572e+96
4.69083e+95
-2.99262e+95
-6.19761e+95
-3.2797e+96
8.91828e+96
2.25506e+97
2.44799e+97
2.02513e+97
1.53545e+97
3.82735e+96
1.57812e+96
6.20103e+95
2.84514e+95
1.43528e+95
6.64262e+94
6.21195e+94
6.35219e+94
3.3901e+94
6.8782e+94
-9.663e+95
-1.28942e+96
-1.08067e+96
-8.60885e+95
-7.15199e+95
-5.3437e+95
-2.05622e+95
-9.95409e+94
-6.17165e+94
-4.43638e+94
-3.07037e+94
-1.46206e+94
-1.28428e+93
7.6556e+93
4.34339e+94
3.95434e+94
-5.6271e+93
-2.50081e+94
-2.6655e+94
-2.42459e+94
1.85412e+94
6.0784e+93
4.46005e+93
3.72374e+93
3.25057e+93
2.47093e+93
6.97454e+92
-7.89624e+92
-1.26511e+93
4.19725e+92
1.68794e+94
2.25111e+94
1.96647e+94
1.58961e+94
1.25141e+94
3.54827e+93
1.3725e+93
5.70535e+92
3.18702e+92
2.08414e+92
1.40361e+92
1.05552e+92
2.74059e+91
-2.34727e+92
-8.08807e+92
-1.48632e+93
-1.25443e+93
-8.88429e+92
-6.42914e+92
-4.79791e+92
-3.19296e+92
-1.05675e+92
-7.54522e+91
-6.41802e+91
-5.53309e+91
-3.95119e+91
-1.18243e+91
1.54132e+91
3.44327e+91
3.85824e+90
-1.44705e+92
-2.09675e+92
-1.9107e+92
-1.53735e+92
-1.17554e+92
-5.91665e+91
-2.41577e+91
-8.32943e+90
-3.10768e+90
-1.218e+90
-9.10789e+89
-1.7926e+90
-1.29384e+90
3.83868e+90
1.69875e+91
3.65761e+91
3.74597e+91
3.02744e+91
2.31985e+91
1.7521e+91
1.08842e+91
4.11664e+90
1.94102e+90
1.1991e+90
8.2782e+89
4.75664e+89
3.43455e+88
-5.20246e+89
-1.21894e+90
-1.67903e+90
-1.31773e+90
-6.38593e+89
-2.97509e+89
-1.70661e+89
-1.23726e+89
-4.43689e+89
-1.51705e+89
-1.16797e+89
-9.85458e+88
-7.97744e+88
-4.63132e+88
-1.83899e+87
9.88552e+87
-6.51296e+88
-2.76073e+89
-5.34217e+89
-5.49228e+89
-4.54954e+89
-3.58275e+89
-2.73887e+89
-9.69259e+88
-3.66861e+88
-1.39395e+88
-7.12725e+87
-4.39958e+87
-3.00679e+87
-1.51383e+87
3.93215e+87
1.65257e+88
3.17168e+88
3.71771e+88
2.60188e+88
1.12673e+88
-2.97396e+87
-1.05226e+88
1.11859e+88
3.95865e+87
2.59965e+87
2.0777e+87
1.69073e+87
1.0943e+87
2.0797e+86
-6.79532e+86
-1.07057e+87
2.29199e+86
2.22639e+87
1.46984e+86
-6.02536e+87
-1.5619e+88
-2.32379e+88
1.3997e+87
5.74329e+86
1.91754e+86
6.79394e+85
2.75652e+85
3.00588e+85
5.68488e+85
3.59619e+85
-1.28719e+86
-5.02333e+86
-1.04126e+87
-1.53226e+87
-4.18514e+87
-1.27785e+88
-2.47314e+88
-2.59e+86
-1.00944e+86
-5.03408e+85
-3.23281e+85
-2.30884e+85
-1.42159e+85
-2.33212e+84
1.41741e+85
3.90542e+85
7.18517e+85
7.67898e+85
2.42717e+85
-3.88914e+86
-2.32257e+87
-7.3032e+87
5.94039e+84
1.82228e+84
2.02995e+84
1.9888e+84
1.71934e+84
1.09804e+84
1.09952e+83
-5.47761e+83
3.45349e+84
2.55191e+85
3.97215e+85
3.46528e+85
-8.6238e+84
-2.16485e+86
-9.09479e+86
2.58295e+84
1.0645e+84
4.39116e+83
2.28668e+83
1.39009e+83
8.33329e+82
-3.36747e+82
-3.92633e+83
2.39123e+84
2.34895e+85
2.84446e+85
1.42308e+85
-1.64499e+85
-7.11284e+85
-1.76554e+86
-2.86217e+83
-1.07992e+83
-7.08348e+82
-5.59166e+82
-4.63151e+82
-4.03114e+82
-9.43576e+82
-3.53681e+83
3.1586e+84
2.90909e+85
3.42943e+85
1.56683e+85
-2.58381e+85
-9.47726e+85
-1.99457e+86
-3.1404e+82
-1.42178e+82
-5.16808e+81
-1.91156e+81
-1.23471e+81
-7.21326e+81
-8.42439e+82
-4.10897e+83
3.6508e+84
3.27991e+85
4.10472e+85
2.38641e+85
-2.20804e+85
-1.04626e+86
-2.36097e+86
6.08979e+81
2.56769e+81
1.34853e+81
8.49725e+80
1.00075e+80
-6.50421e+81
-8.98857e+82
-4.77939e+83
4.289e+84
3.32091e+85
4.75453e+85
4.1259e+85
7.69914e+84
-6.29382e+85
-1.84572e+86
-1.35605e+80
-3.50162e+79
-4.14769e+79
-7.26818e+79
-5.71179e+80
-7.04547e+81
-9.57911e+82
-5.60425e+83
2.55706e+84
2.89468e+85
5.03524e+85
5.8156e+85
4.8217e+85
1.43152e+85
-5.32997e+85
-5.41995e+79
-1.93247e+79
-6.46608e+78
-3.32981e+79
-5.10395e+80
-6.77375e+81
-9.7155e+82
-6.48746e+83
1.70288e+84
2.02523e+85
4.31246e+85
6.03441e+85
6.96572e+85
6.90829e+85
5.42803e+85
1.40388e+79
1.27661e+79
7.7672e+78
-2.98309e+79
-4.90587e+80
-6.37432e+81
-9.29498e+82
-7.31452e+83
1.3238e+84
1.07376e+85
2.61826e+85
4.3237e+85
5.91323e+85
7.23915e+85
8.16647e+85
7.0974e+78
1.07473e+79
5.64672e+78
-3.71366e+79
-4.88852e+80
-6.06906e+81
-8.73455e+82
-9.16732e+83
2.41587e+83
4.32749e+84
1.17214e+85
2.19974e+85
3.40131e+85
4.679e+85
5.99784e+85
7.75424e+78
1.21413e+79
5.10109e+78
-4.67706e+79
-4.94738e+80
-5.94605e+81
-9.19143e+82
-1.10667e+84
-1.1021e+84
4.66622e+83
3.38088e+84
7.72465e+84
1.35219e+85
2.07266e+85
2.93206e+85
9.25193e+78
1.42934e+79
4.45063e+78
-6.09456e+79
-5.03483e+80
-5.61932e+81
-9.84934e+82
-9.63727e+83
-1.52244e+84
-1.35003e+84
-6.53111e+83
5.71808e+83
2.38338e+84
4.87774e+84
8.1771e+84
1.07386e+79
1.65551e+79
3.6371e+78
-7.78564e+79
-5.20211e+80
-4.86269e+81
-1.1042e+83
-6.99663e+83
-1.13237e+84
-1.37556e+84
-1.47848e+84
-1.44081e+84
-1.25235e+84
-8.77907e+83
-2.5213e+83
1.2244e+79
1.87979e+79
2.43716e+78
-9.69782e+79
-5.61224e+80
-4.00655e+81
-9.12152e+82
-3.84367e+83
-5.90818e+83
-7.65593e+83
-9.19483e+83
-1.06229e+84
-1.19727e+84
-1.3151e+84
-1.39679e+84
1.39444e+79
2.12642e+79
5.64122e+77
-1.21105e+80
-6.36908e+80
-3.43229e+81
-4.06412e+82
-1.66793e+83
-2.40576e+83
-3.0439e+83
-3.67402e+83
-4.36796e+83
-5.16668e+83
-6.05108e+83
-6.97607e+83
1.58227e+79
2.40193e+79
-1.92081e+78
-1.51867e+80
-7.62432e+80
-3.31864e+81
-2.5334e+82
-6.1921e+82
-8.20231e+82
-9.74626e+82
-1.12443e+83
-1.30689e+83
-1.52837e+83
-1.78265e+83
-2.06287e+83
1.78184e+79
2.70067e+79
-4.5847e+78
-1.85948e+80
-9.18946e+80
-3.86914e+81
-1.20885e+82
-2.08762e+82
-2.53748e+82
-2.82227e+82
-3.06773e+82
-3.35807e+82
-3.70611e+82
-4.10162e+82
-4.53506e+82
1.99456e+79
3.21361e+79
1.08245e+78
-1.85653e+80
-7.84291e+80
-2.08332e+81
-3.94896e+81
-5.67446e+81
-6.83268e+81
-7.57416e+81
-8.09533e+81
-8.56168e+81
-9.01223e+81
-9.44273e+81
-9.84683e+81
1.89109e+79
3.86613e+79
4.55105e+79
5.73069e+78
-1.26605e+80
-3.78703e+80
-7.0566e+80
-1.01579e+81
-1.26821e+81
-1.47073e+81
-1.63386e+81
-1.77163e+81
-1.88771e+81
-1.98055e+81
-2.05059e+81
1.18257e+79
3.02958e+79
5.17369e+79
6.88622e+79
7.37063e+79
6.23081e+79
3.45915e+79
-3.32667e+78
-4.29925e+79
-8.08097e+79
-1.16098e+80
-1.48514e+80
-1.77745e+80
-2.03365e+80
-2.25227e+80
1.9574e+78
1.06251e+79
2.17903e+79
3.29828e+79
4.17627e+79
4.73722e+79
4.9563e+79
4.87081e+79
4.59496e+79
4.2402e+79
3.85705e+79
3.4562e+79
3.04089e+79
2.61949e+79
2.20092e+79
-2.96293e+78
-8.88585e+77
1.79351e+78
4.40805e+78
6.60572e+78
8.29622e+78
9.48849e+78
1.02264e+79
1.06119e+79
1.07772e+79
1.08035e+79
1.0713e+79
1.05111e+79
1.02103e+79
9.81995e+78
-2.72865e+78
-2.49701e+78
-1.96999e+78
-1.4398e+78
-9.42674e+77
-5.14576e+77
-1.64863e+77
1.09947e+77
3.20808e+77
4.81196e+77
6.02103e+77
6.91313e+77
7.5435e+77
7.95984e+77
8.17016e+77
-1.14335e+78
-1.18236e+78
-1.03361e+78
-8.80009e+77
-7.30927e+77
-5.98676e+77
-4.85887e+77
-3.9235e+77
-3.17645e+77
-2.59161e+77
-2.12686e+77
-1.74842e+77
-1.43547e+77
-1.17418e+77
-9.61927e+76
-2.4626e+77
-3.08393e+77
-2.83695e+77
-2.47553e+77
-2.10906e+77
-1.77909e+77
-1.49115e+77
-1.2435e+77
-1.04231e+77
-8.85278e+76
-7.58226e+76
-6.51109e+76
-5.59206e+76
-4.79861e+76
-4.12345e+76
-2.54024e+76
-4.47777e+76
-4.8715e+76
-4.47709e+76
-3.9173e+76
-3.36125e+76
-2.85662e+76
-2.41749e+76
-2.06105e+76
-1.78104e+76
-1.54872e+76
-1.34722e+76
-1.17014e+76
-1.01405e+76
-8.77963e+75
-1.34678e+76
-6.21533e+75
-5.94167e+75
-5.52807e+75
-4.93254e+75
-4.26704e+75
-3.63693e+75
-3.10102e+75
-2.67771e+75
-2.34047e+75
-2.05445e+75
-1.80193e+75
-1.57619e+75
-1.37426e+75
-1.19562e+75
-8.78404e+75
-3.56685e+75
-1.4158e+75
-7.88629e+74
-5.44055e+74
-4.16311e+74
-3.3511e+74
-2.77872e+74
-2.36499e+74
-2.048e+74
-1.78363e+74
-1.5519e+74
-1.34594e+74
-1.16408e+74
-1.0055e+74
-6.17551e+74
-8.57203e+74
-3.90387e+74
-1.88551e+74
-9.54501e+73
-5.25053e+73
-3.16885e+73
-2.10755e+73
-1.54628e+73
-1.21718e+73
-9.91274e+72
-8.19324e+72
-6.83437e+72
-5.75562e+72
-4.85775e+72
1.06946e+75
3.02218e+74
6.10917e+73
6.34544e+72
-3.85571e+72
-4.32273e+72
-3.06303e+72
-1.92365e+72
-1.08402e+72
-4.86185e+71
-9.98365e+70
1.13642e+71
2.08367e+71
2.34161e+71
2.38504e+71
2.43928e+74
1.5534e+74
6.41963e+73
2.75325e+73
1.20601e+73
5.35803e+72
2.37882e+72
1.04278e+72
4.59927e+71
2.12623e+71
1.06921e+71
6.20676e+70
4.42838e+70
3.94759e+70
4.09108e+70
-6.5257e+73
-9.32417e+72
3.5673e+72
4.61906e+72
3.48276e+72
2.36219e+72
1.56869e+72
1.04679e+72
6.9667e+71
4.58127e+71
2.97785e+71
1.9252e+71
1.24603e+71
8.14974e+70
5.32168e+70
-2.88381e+73
-1.50886e+73
-6.01333e+72
-2.39349e+72
-9.2043e+71
-3.10356e+71
-5.53168e+70
4.65996e+70
7.91537e+70
8.18584e+70
7.3218e+70
6.12235e+70
4.92736e+70
3.86858e+70
2.95492e+70
-5.73358e+71
-1.56892e+72
-1.14478e+72
-7.41976e+71
-4.65438e+71
-2.95284e+71
-1.92482e+71
-1.27845e+71
-8.50561e+70
-5.61362e+70
-3.66661e+70
-2.37039e+70
-1.51613e+70
-9.61424e+69
-6.02196e+69
1.29988e+72
5.87078e+71
2.14137e+71
7.15137e+70
1.65478e+70
-4.67484e+69
-1.23162e+70
-1.40859e+70
-1.32549e+70
-1.14555e+70
-9.46741e+69
-7.61562e+69
-6.01707e+69
-4.70059e+69
-3.62129e+69
2.40265e+71
1.53291e+71
8.36876e+70
4.7389e+70
2.79661e+70
1.72455e+70
1.10685e+70
7.30245e+69
4.88024e+69
3.26988e+69
2.18535e+69
1.45331e+69
9.60108e+68
6.29234e+68
4.11645e+68
1.83753e+70
1.21372e+70
7.48556e+69
4.85994e+69
3.30734e+69
2.3603e+69
1.74964e+69
1.32406e+69
1.01098e+69
7.73763e+68
5.91749e+68
4.51907e+68
3.44635e+68
2.62694e+68
2.00452e+68
1.47682e+69
6.776e+68
2.81559e+68
1.39307e+68
7.96963e+67
5.13148e+67
3.6356e+67
2.75638e+67
2.171e+67
1.73941e+67
1.40264e+67
1.13224e+67
9.11839e+66
7.32327e+66
5.88033e+66
4.40625e+67
5.75954e+67
3.3704e+67
1.98556e+67
1.18475e+67
7.22863e+66
4.49832e+66
2.8242e+66
1.76319e+66
1.08488e+66
6.55923e+65
3.89129e+65
2.25907e+65
1.28122e+65
7.0129e+64
-4.64398e+67
-1.79811e+67
-5.78874e+66
-1.68199e+66
-2.5854e+65
2.2585e+65
3.5899e+65
3.59097e+65
3.11691e+65
2.52715e+65
1.96971e+65
1.49639e+65
1.11767e+65
8.27291e+64
6.08072e+64
-8.14753e+66
-4.55081e+66
-2.21012e+66
-1.16051e+66
-6.51836e+65
-3.86816e+65
-2.39583e+65
-1.52702e+65
-9.86316e+64
-6.39098e+64
-4.13687e+64
-2.67369e+64
-1.72741e+64
-1.11687e+64
-7.28185e+63
-4.26106e+65
-2.91634e+65
-1.70783e+65
-1.06313e+65
-6.99921e+64
-4.82375e+64
-3.43921e+64
-2.50548e+64
-1.84069e+64
-1.35288e+64
-9.91768e+63
-7.251e+63
-5.29603e+63
-3.8772e+63
-2.86333e+63
-2.48027e+62
-6.50234e+62
-6.65208e+62
-5.8048e+62
-4.86352e+62
-4.03668e+62
-3.34766e+62
-2.77285e+62
-2.28092e+62
-1.85563e+62
-1.49179e+62
-1.18718e+62
-9.38337e+61
-7.40437e+61
-5.87234e+61
9.46889e+61
6.9881e+61
4.43774e+61
2.98967e+61
2.11413e+61
1.55125e+61
1.16879e+61
8.95102e+60
6.89194e+60
5.29708e+60
4.05409e+60
3.09181e+60
2.35558e+60
1.80106e+60
1.38943e+60
-1.77034e+60
-7.19728e+59
-2.89065e+59
-1.2717e+59
-6.16618e+58
-3.25676e+58
-1.85921e+58
-1.13711e+58
-7.34536e+57
-4.92939e+57
-3.39341e+57
-2.37798e+57
-1.68833e+57
-1.2098e+57
-8.88298e+56
-4.00803e+59
-1.90076e+59
-8.33212e+58
-4.11267e+58
-2.24072e+58
-1.31823e+58
-8.23025e+57
-5.36191e+57
-3.58772e+57
-2.43931e+57
-1.67666e+57
-1.16303e+57
-8.13994e+56
-5.75563e+56
-4.13516e+56
-3.47852e+58
-1.87276e+58
-8.95432e+57
-4.82331e+57
-2.83416e+57
-1.77387e+57
-1.16304e+57
-7.86439e+56
-5.40947e+56
-3.75561e+56
-2.62449e+56
-1.84541e+56
-1.30714e+56
-9.35103e+55
-6.7713e+55
2.57453e+56
-8.30919e+55
-1.05399e+56
-9.52718e+55
-7.54053e+55
-5.70072e+55
-4.245e+55
-3.13588e+55
-2.29815e+55
-1.67401e+55
-1.21604e+55
-8.83837e+54
-6.45075e+54
-4.74658e+54
-3.51175e+54
4.39804e+56
1.98621e+56
8.58212e+55
4.10768e+55
2.16702e+55
1.2397e+55
7.5726e+54
4.85433e+54
3.21094e+54
2.16622e+54
1.4816e+54
1.02434e+54
7.149e+53
5.03364e+53
3.59777e+53
7.22551e+55
3.29953e+55
1.41433e+55
6.84561e+54
3.67989e+54
2.15135e+54
1.34283e+54
8.77746e+53
5.904e+53
4.04358e+53
2.80676e+53
1.96968e+53
1.3958e+53
9.98476e+52
7.22885e+52
7.99877e+54
3.68864e+54
1.57626e+54
7.65225e+53
4.13093e+53
2.42216e+53
1.51203e+53
9.85317e+52
6.59269e+52
4.48853e+52
3.09659e+52
2.15879e+52
1.51952e+52
1.07996e+52
7.76112e+51
6.28302e+53
2.79902e+53
1.16979e+53
5.68321e+52
3.10113e+52
1.84213e+52
1.16345e+52
7.65101e+51
5.15768e+51
3.5368e+51
2.45589e+51
1.72093e+51
1.21624e+51
8.67493e+50
6.24405e+50
2.81777e+52
1.23064e+52
4.82019e+51
2.34965e+51
1.30017e+51
7.79314e+50
4.93175e+50
3.23017e+50
2.16157e+50
1.47019e+50
1.01328e+50