/*--------------------------------*- C++ -*----------------------------------*\
  =========                 |
  \\      /  F ield         | OpenFOAM: The Open Source CFD Toolbox
   \\    /   O peration     | Website:  https://openfoam.org
    \\  /    A nd           | Version:  8
     \\/     M anipulation  |
\*---------------------------------------------------------------------------*/
FoamFile
{
    version     2.0;
    format      ascii;
    class       volScalarField;
    location    "0.3";
    object      p;
}
// * * * * * * * * * * * * * * * * * * * * * * * * * * * * * * * * * * * * * //

dimensions      [0 2 -2 0 0 0 0];

internalField   nonuniform List<scalar> 
576
(
1.38681e-05
3.72707
3.80742
4.0057
4.07273
4.1129
4.13607
4.15211
4.16552
4.17879
4.19332
4.20998
4.22945
4.25241
4.27978
4.3129
4.35379
4.40585
4.47386
4.57099
4.70001
4.99371
5.16776
9.2117
0.41287
3.57549
3.73555
3.96871
4.04994
4.09809
4.12607
4.14526
4.16084
4.17569
4.19144
4.20911
4.2295
4.25341
4.28185
4.31633
4.35908
4.41386
4.48609
4.59068
4.73248
5.06205
5.30057
8.76881
0.91019
3.43176
3.66693
3.92525
4.0229
4.07995
4.11365
4.13664
4.15489
4.1717
4.18896
4.20789
4.22942
4.25449
4.28425
4.32037
4.36534
4.42333
4.50052
4.61308
4.76987
5.12313
5.41949
8.21406
1.47247
3.33224
3.61915
3.88036
3.99348
4.05912
4.09897
4.12621
4.14754
4.16664
4.18571
4.20615
4.22904
4.25548
4.28676
4.32473
4.37215
4.43355
4.5159
4.63548
4.80667
5.1576
5.49763
7.58232
2.0874
3.3021
3.59815
3.83972
3.96279
4.03562
4.08156
4.11342
4.13825
4.16007
4.18131
4.20358
4.22812
4.25617
4.2892
4.32924
4.37927
4.4441
4.53123
4.65573
4.8361
5.1593
5.51038
6.89882
2.69717
3.3553
3.61187
3.81472
3.93604
4.01204
4.0625
4.09861
4.12703
4.15182
4.17553
4.1999
4.22634
4.25621
4.29112
4.33324
4.38569
4.45326
4.54329
4.66835
4.84595
5.12077
5.4354
6.21724
3.21695
3.48985
3.66839
3.81818
3.9226
3.99428
4.04536
4.08382
4.115
4.14246
4.16859
4.19512
4.22352
4.2552
4.29185
4.33564
4.3896
4.45802
4.54696
4.6651
4.8234
5.03481
5.26491
5.61305
3.60271
3.67163
3.76414
3.85763
3.93323
3.99143
4.03697
4.07393
4.10556
4.13432
4.16207
4.19027
4.22023
4.25331
4.29108
4.33549
4.38905
4.45493
4.53683
4.63863
4.763
4.90552
5.035
5.13741
3.86442
3.85574
3.88545
3.93084
3.97447
4.01283
4.04663
4.07706
4.10537
4.13273
4.16018
4.18863
4.21903
4.25244
4.29003
4.3332
4.38351
4.4425
4.51113
4.58916
4.67371
4.75465
4.80539
4.80296
4.04247
4.01489
4.01223
4.02544
4.04311
4.06183
4.08125
4.10149
4.12281
4.1455
4.16989
4.1963
4.22512
4.2571
4.29257
4.33212
4.37618
4.42466
4.47653
4.52931
4.57845
4.61496
4.62159
4.58896
4.17063
4.14143
4.12623
4.12281
4.12462
4.12938
4.13683
4.1471
4.16028
4.17646
4.19569
4.21799
4.24339
4.27174
4.30306
4.33712
4.3733
4.41042
4.44643
4.47835
4.50222
4.51228
4.49985
4.46471
4.25409
4.22536
4.20635
4.19666
4.19158
4.18947
4.19023
4.19409
4.20127
4.21194
4.22618
4.24398
4.2652
4.28953
4.31658
4.34561
4.37548
4.40447
4.43025
4.44997
4.46062
4.45878
4.44032
4.40831
4.25409
4.22535
4.20635
4.19666
4.19158
4.18947
4.19023
4.19409
4.20127
4.21194
4.22618
4.24398
4.2652
4.28953
4.31658
4.34561
4.37547
4.40447
4.43025
4.44997
4.46062
4.45878
4.44032
4.40831
4.17062
4.14142
4.12622
4.12281
4.12461
4.12937
4.13683
4.14709
4.16027
4.17646
4.19569
4.21799
4.24339
4.27173
4.30306
4.33711
4.37329
4.41041
4.44643
4.47835
4.50221
4.51228
4.49985
4.46471
4.04246
4.01488
4.01223
4.02544
4.04311
4.06183
4.08125
4.10149
4.12281
4.1455
4.16988
4.19629
4.22511
4.2571
4.29256
4.33212
4.37618
4.42466
4.47652
4.5293
4.57845
4.61496
4.62158
4.58896
3.86441
3.85573
3.88545
3.93084
3.97447
4.01283
4.04663
4.07706
4.10537
4.13273
4.16017
4.18863
4.21903
4.25244
4.29002
4.33319
4.38351
4.44249
4.51113
4.58916
4.6737
4.75464
4.80538
4.80296
3.60271
3.67163
3.76414
3.85763
3.93323
3.99143
4.03697
4.07393
4.10556
4.13432
4.16207
4.19026
4.22023
4.25331
4.29107
4.33548
4.38904
4.45492
4.53683
4.63862
4.763
4.90552
5.035
5.13741
3.21695
3.48985
3.66839
3.81818
3.9226
3.99428
4.04536
4.08382
4.115
4.14246
4.16859
4.19512
4.22351
4.25519
4.29184
4.33564
4.3896
4.45801
4.54696
4.6651
4.8234
5.03481
5.26491
5.61305
2.69717
3.3553
3.61187
3.81472
3.93605
4.01204
4.06251
4.09861
4.12703
4.15182
4.17553
4.1999
4.22634
4.2562
4.29111
4.33323
4.38569
4.45326
4.54328
4.66834
4.84595
5.12077
5.4354
6.21724
2.0874
3.3021
3.59815
3.83973
3.9628
4.03563
4.08156
4.11342
4.13825
4.16007
4.18131
4.20358
4.22812
4.25617
4.2892
4.32923
4.37927
4.44409
4.53122
4.65573
4.8361
5.1593
5.51038
6.89882
1.47246
3.33223
3.61915
3.88037
3.99349
4.05912
4.09898
4.12622
4.14754
4.16665
4.18571
4.20615
4.22904
4.25547
4.28675
4.32472
4.37214
4.43354
4.5159
4.63548
4.80667
5.1576
5.49763
7.58232
0.910169
3.43174
3.66693
3.92525
4.02291
4.07996
4.11366
4.13665
4.1549
4.1717
4.18896
4.20789
4.22942
4.25449
4.28425
4.32037
4.36533
4.42332
4.50051
4.61308
4.76987
5.12313
5.41949
8.21406
0.412843
3.57548
3.73555
3.96871
4.04995
4.0981
4.12608
4.14527
4.16085
4.1757
4.19144
4.20911
4.2295
4.2534
4.28185
4.31632
4.35907
4.41386
4.48609
4.59067
4.73248
5.06205
5.30057
8.76881
-1.18356e-05
3.72705
3.80741
4.00571
4.07273
4.11291
4.13608
4.15212
4.16553
4.17879
4.19332
4.20998
4.22945
4.25241
4.27978
4.31289
4.35378
4.40585
4.47385
4.57098
4.7
4.99371
5.16776
9.2117
)
;

boundaryField
{
    movingWall
    {
        type            zeroGradient;
    }
    fixedWalls
    {
        type            zeroGradient;
    }
    frontAndBack
    {
        type            empty;
    }
}


// ************************************************************************* //
