/*--------------------------------*- C++ -*----------------------------------*\
  =========                 |
  \\      /  F ield         | OpenFOAM: The Open Source CFD Toolbox
   \\    /   O peration     | Website:  https://openfoam.org
    \\  /    A nd           | Version:  8
     \\/     M anipulation  |
\*---------------------------------------------------------------------------*/
FoamFile
{
    version     2.0;
    format      ascii;
    class       surfaceScalarField;
    location    "0.3";
    object      phi;
}
// * * * * * * * * * * * * * * * * * * * * * * * * * * * * * * * * * * * * * //

dimensions      [0 3 -1 0 0 0 0];

internalField   nonuniform List<scalar> 
1104
(
0.00105599
-0.001056
0.00113672
-8.07328e-05
0.0011706
-3.38737e-05
0.00118642
-1.58188e-05
0.00119621
-9.79776e-06
0.00120247
-6.26053e-06
0.00120667
-4.19957e-06
0.00120953
-2.85542e-06
0.00121146
-1.93296e-06
0.00121273
-1.2658e-06
0.00121348
-7.54238e-07
0.00121381
-3.30634e-07
0.00121376
5.69982e-08
0.0012133
4.55239e-07
0.00121239
9.13725e-07
0.00121089
1.49615e-06
0.0012086
2.29491e-06
0.00120512
3.47882e-06
0.00119981
5.30824e-06
0.00119113
8.67551e-06
0.00117696
1.41746e-05
0.00114359
3.33649e-05
0.00106294
8.06497e-05
0.00106294
0.000957011
-0.00201301
0.00120571
-0.000329428
0.00133576
-0.000163931
0.00140106
-8.11179e-05
0.00144191
-5.06451e-05
0.00146841
-3.27589e-05
0.00148632
-2.21113e-05
0.00149859
-1.51248e-05
0.00150695
-1.02981e-05
0.00151248
-6.79046e-06
0.00151582
-4.09172e-06
0.00151734
-1.85358e-06
0.0015172
1.93035e-07
0.00151537
2.28998e-06
0.00151159
4.69505e-06
0.00150535
7.73764e-06
0.00149575
1.1895e-05
0.0014812
1.80208e-05
0.00145904
2.74676e-05
0.00142325
4.44717e-05
0.00136493
7.24898e-05
0.00123753
0.000160764
0.000989548
0.000328636
0.00205249
0.000722468
-0.00273548
0.00116146
-0.000768424
0.00143101
-0.000433474
0.0015816
-0.000231708
0.00167778
-0.000146831
0.00174154
-9.65195e-05
0.00178514
-6.57049e-05
0.00181528
-4.5273e-05
0.00183601
-3.10279e-05
0.00184983
-2.06074e-05
0.00185829
-1.25517e-05
0.00186229
-5.85307e-06
0.00186221
2.7364e-07
0.00185796
6.53774e-06
0.00184896
1.36964e-05
0.00183399
2.27116e-05
0.00181091
3.4975e-05
0.00177603
5.29022e-05
0.00172304
8.04511e-05
0.00163904
0.000128472
0.0015031
0.000208429
0.00123842
0.000425448
0.000793872
0.000773184
0.00284636
0.000354668
-0.00309014
0.000960284
-0.00137404
0.00139119
-0.000864377
0.00166776
-0.000508282
0.00185181
-0.000330875
0.00197777
-0.000222488
0.00206553
-0.000153462
0.00212709
-0.000106828
0.00216991
-7.38547e-05
0.00219879
-4.94847e-05
0.00221674
-3.05023e-05
0.00222553
-1.46425e-05
0.00222592
-1.13568e-07
0.00221774
1.47181e-05
0.00219983
3.16008e-05
0.0021698
5.27398e-05
0.00212347
8.13054e-05
0.00205379
0.000122587
0.00194879
0.000185448
0.00178683
0.000290432
0.00153064
0.000464616
0.00110049
0.000855602
0.000463757
0.00140992
0.00331012
-6.40195e-05
-0.00302612
0.000586246
-0.00202431
0.00115271
-0.00143085
0.00157909
-0.000934661
0.00188331
-0.000635094
0.00210124
-0.000440411
0.00225761
-0.000309834
0.00236963
-0.000218852
0.00244888
-0.000153107
0.00250313
-0.000103728
0.00253743
-6.48002e-05
0.00255479
-3.20093e-05
0.00255653
-1.85095e-06
0.00254233
2.89211e-05
0.00251013
6.37959e-05
0.00245574
0.000107131
0.00237196
0.000165089
0.00224708
0.000247467
0.00206209
0.000370434
0.0017872
0.000565322
0.00137466
0.000877155
0.000785778
0.00144449
5.68057e-05
0.00213889
0.00336693
-0.000423943
-0.00260218
8.80641e-05
-0.00253631
0.000693451
-0.00203623
0.00124008
-0.00148129
0.0016727
-0.00106772
0.00200327
-0.000770972
0.00225113
-0.000557697
0.00243432
-0.000402045
0.00256703
-0.000285813
0.00265965
-0.000196347
0.00271933
-0.000124488
0.00275046
-6.31375e-05
0.00275489
-6.27749e-06
0.00273199
5.18197e-05
0.00267844
0.000117346
0.00258765
0.00019792
0.00244878
0.000303962
0.00224526
0.000450984
0.00195289
0.000662809
0.001541
0.000977215
0.000976291
0.00144186
0.000300435
0.00212034
-0.00034154
0.00278086
0.00302539
-0.000587176
-0.00201501
-0.000396031
-0.00272746
7.78822e-05
-0.00251015
0.00063124
-0.00203465
0.00113881
-0.00157529
0.00156385
-0.00119601
0.00190329
-0.000897137
0.00216572
-0.000664476
0.00236227
-0.000482364
0.002503
-0.000337072
0.00259558
-0.000217073
0.00264491
-0.000112464
0.00265288
-1.42447e-05
0.00261819
8.651e-05
0.00253602
0.000199511
0.00239754
0.000336402
0.00218935
0.000512152
0.0018935
0.000746829
0.00148958
0.00106673
0.000964571
0.00150222
0.000336407
0.00207002
-0.000262062
0.00271881
-0.000589693
0.00310849
0.00243569
-0.000554916
-0.00146009
-0.000728049
-0.00255432
-0.000548003
-0.00269019
-0.000166454
-0.0024162
0.000277368
-0.00201911
0.00070416
-0.0016228
0.00107789
-0.00127087
0.00138625
-0.000972828
0.00162827
-0.000724385
0.0018074
-0.000516204
0.00192775
-0.000337427
0.00199215
-0.000176858
0.00200106
-2.31592e-05
0.00195205
0.000135521
0.00183941
0.000312152
0.00165434
0.000521476
0.00138605
0.000780441
0.00102518
0.0011077
0.000571966
0.00151994
5.37147e-05
0.00202047
-0.00044619
0.00256993
-0.000749136
0.00302176
-0.000640325
0.00299968
0.00179537
-0.000434552
-0.00102554
-0.000863696
-0.00212518
-0.00104928
-0.00250461
-0.00100587
-0.00245961
-0.000816842
-0.00220814
-0.000560683
-0.00187896
-0.00029197
-0.00153958
-4.35904e-05
-0.00122121
0.000166581
-0.000934556
0.000329588
-0.000679212
0.000441017
-0.000448856
0.000498126
-0.000233967
0.000498139
-2.31717e-05
0.000437905
0.000195755
0.000313434
0.000436623
0.000121737
0.000713173
-0.000135852
0.00103803
-0.000447409
0.00141926
-0.000780324
0.00185286
-0.00106828
0.00230843
-0.00120259
0.00270424
-0.00105076
0.00286992
-0.000560712
0.00250964
0.00123466
-0.000339206
-0.000686331
-0.000905682
-0.00155871
-0.00142773
-0.00198257
-0.00180562
-0.00208171
-0.0020341
-0.00197966
-0.00214465
-0.00176842
-0.00217582
-0.0015084
-0.00216139
-0.00123564
-0.00212715
-0.000968793
-0.00209152
-0.000714844
-0.0020671
-0.000473279
-0.00206212
-0.000238941
-0.00208283
-2.46112e-06
-0.00212854
0.000241465
-0.00219806
0.000506137
-0.00228258
0.000797695
-0.00236393
0.00111938
-0.00241046
0.00146579
-0.00237385
0.00181624
-0.002191
0.00212558
-0.00179982
0.00231306
-0.00118362
0.00225372
-0.000460144
0.00178616
0.000774513
-0.000316596
-0.000369736
-0.00100206
-0.000873245
-0.00182774
-0.00115688
-0.00264486
-0.00126459
-0.00337649
-0.00124803
-0.00399293
-0.00115198
-0.00449108
-0.00101025
-0.00488069
-0.000846031
-0.00517598
-0.000673508
-0.00539088
-0.00049994
-0.00553659
-0.000327567
-0.00562029
-0.000155243
-0.00564323
2.04813e-05
-0.00560374
0.000201968
-0.00549147
0.000393868
-0.00529061
0.000596836
-0.00497921
0.00080799
-0.00453139
0.00101796
-0.00392297
0.00120783
-0.00314344
0.00134605
-0.00221713
0.00138675
-0.00123556
0.00127215
-0.000394117
0.000944721
0.000380396
-0.00036975
1.47324e-08
-0.00124303
3.6726e-08
-0.00239996
5.14798e-08
-0.00366462
6.02104e-08
-0.00491271
6.38282e-08
-0.00606475
6.30845e-08
-0.00707507
5.86229e-08
-0.00792115
5.10338e-08
-0.0085947
4.08953e-08
-0.00909467
2.87993e-08
-0.00942225
1.53639e-08
-0.00957749
1.22322e-09
-0.009557
-1.2916e-08
-0.009355
-2.64515e-08
-0.0089611
-3.86794e-08
-0.00836421
-4.89476e-08
-0.00755616
-5.66278e-08
-0.00653814
-6.11361e-08
-0.00533025
-6.19739e-08
-0.00398415
-5.8789e-08
-0.00259734
-5.14649e-08
-0.00132515
-4.0236e-08
-0.000380404
-2.56014e-08
-8.41035e-09
-0.000369744
0.000369759
-0.00124301
0.000873305
-0.00239993
0.00115697
-0.00366456
0.0012647
-0.00491265
0.00124814
-0.00606467
0.00115209
-0.00707498
0.00101036
-0.00792105
0.000846127
-0.0085946
0.000673588
-0.00909457
0.000499999
-0.00942216
0.000327602
-0.00957741
0.000155253
-0.00955692
-2.04975e-05
-0.00935494
-0.00020201
-0.00896104
-0.000393933
-0.00836417
-0.000596921
-0.00755614
-0.000808091
-0.00653813
-0.00101807
-0.00533025
-0.00120794
-0.00398415
-0.00134616
-0.00259735
-0.00138685
-0.00132515
-0.00127223
-0.000380406
-0.000944773
-0.000380414
-0.000316584
0.000686343
-0.00100202
0.00155874
-0.00182767
0.00198262
-0.00264476
0.00208178
-0.00337636
0.00197975
-0.00399278
0.0017685
-0.00449091
0.00150849
-0.00488051
0.00123573
-0.00517579
0.000968866
-0.00539069
0.000714901
-0.0055364
0.000473319
-0.00562011
0.00023896
-0.00564307
2.45881e-06
-0.00560359
-0.000241488
-0.00549134
-0.000506181
-0.00529051
-0.000797757
-0.00497914
-0.00111946
-0.00453133
-0.00146587
-0.00392294
-0.00181634
-0.00314342
-0.00212568
-0.00221712
-0.00231315
-0.00123556
-0.00225379
-0.000394119
-0.00178622
-0.000774533
-0.000339196
0.00102554
-0.000905652
0.0021252
-0.00142767
0.00250464
-0.00180554
0.00245965
-0.00203399
0.0022082
-0.00214451
0.00187903
-0.00217567
0.00153965
-0.00216122
0.00122127
-0.00212697
0.000934616
-0.00209133
0.000679262
-0.0020669
0.000448892
-0.00206193
0.000233989
-0.00208265
2.3177e-05
-0.00212837
-0.000195766
-0.0021979
-0.00043665
-0.00228245
-0.000713214
-0.00236382
-0.00103808
-0.00241038
-0.00141932
-0.00237378
-0.00185293
-0.00219096
-0.0023085
-0.0017998
-0.00270431
-0.00118361
-0.00286998
-0.000460143
-0.00250968
-0.00123468
-0.000434547
0.00146009
-0.000863679
0.00255433
-0.00104924
0.0026902
-0.00100582
0.00241623
-0.000816769
0.00201915
-0.00056059
0.00162285
-0.000291858
0.00127092
-4.34613e-05
0.000972878
0.000166725
0.000724431
0.000329743
0.000516243
0.000441179
0.000337457
0.000498291
0.000176876
0.000498302
2.31661e-05
0.000438063
-0.000135526
0.000313582
-0.000312169
0.000121871
-0.000521503
-0.000135736
-0.000780477
-0.000447314
-0.00110774
-0.000780251
-0.00151999
-0.00106823
-0.00202052
-0.00120256
-0.00256998
-0.00105074
-0.0030218
-0.000560708
-0.00299972
-0.00179538
-0.000554914
0.002015
-0.000728041
0.00272745
-0.000547987
0.00251015
-0.000166426
0.00203466
0.00027741
0.00157531
0.000704218
0.00119604
0.00107797
0.00089717
0.00138634
0.000664509
0.00162837
0.000482396
0.00180752
0.000337099
0.00192788
0.000217094
0.00199228
0.000112477
0.00200119
1.42501e-05
0.00195218
-8.65128e-05
0.00183953
-0.000199522
0.00165445
-0.000336419
0.00138615
-0.000512175
0.00102526
-0.000746856
0.000572033
-0.00106676
5.37641e-05
-0.00150226
-0.000446159
-0.00207006
-0.00074912
-0.00271884
-0.00064032
-0.00310852
-0.0024357
-0.000587175
0.00260218
-0.000396029
0.00253631
7.78883e-05
0.00203623
0.000631253
0.0014813
0.00113884
0.00106773
0.00156389
0.00077099
0.00190334
0.000557718
0.00216578
0.000402066
0.00236235
0.000285833
0.00250308
0.000196364
0.00259567
0.000124501
0.002645
6.3146e-05
0.00265297
6.28098e-06
0.00261828
-5.18212e-05
0.00253611
-0.000117352
0.00239762
-0.00019793
0.00218942
-0.000303976
0.00189357
-0.000451001
0.00148963
-0.000662827
0.00096461
-0.000977234
0.000336432
-0.00144188
-0.000262048
-0.00212036
-0.000589689
-0.00278088
-0.00302539
-0.000423942
0.00302612
8.80638e-05
0.0020243
0.000693453
0.00143084
0.00124009
0.000934665
0.00167272
0.000635102
0.00200329
0.000440421
0.00225116
0.000309846
0.00243436
0.000218864
0.00256707
0.000153118
0.0026597
0.000103737
0.00271939
6.48076e-05
0.00275053
3.20141e-05
0.00275495
1.85288e-06
0.00273205
-2.8922e-05
0.0026785
-6.37995e-05
0.00258771
-0.000107137
0.00244883
-0.000165097
0.00224531
-0.000247476
0.00195292
-0.000370444
0.00154102
-0.000565332
0.000976308
-0.000877165
0.000300444
-0.0014445
-0.000341537
-0.00213889
-0.00336693
-6.40192e-05
0.00309014
0.000586246
0.00137404
0.00115271
0.000864376
0.0015791
0.000508284
0.00188332
0.000330879
0.00210125
0.000222493
0.00225762
0.000153468
0.00236965
0.000106834
0.00244891
7.38603e-05
0.00250316
4.94895e-05
0.00253746
3.05059e-05
0.00255483
1.46448e-05
0.00255657
1.14435e-07
0.00254237
-1.47186e-05
0.00251017
-3.16026e-05
0.00245577
-5.27428e-05
0.00237199
-8.13093e-05
0.0022471
-0.000122592
0.00206211
-0.000185453
0.00178722
-0.000290437
0.00137467
-0.000464621
0.000785783
-0.000855607
5.68075e-05
-0.00140992
-0.00331012
0.000354669
0.00273547
0.000960283
0.000768423
0.00139119
0.000433473
0.00166776
0.000231708
0.00185181
0.000146833
0.00197778
9.65216e-05
0.00206554
6.57074e-05
0.0021271
4.52756e-05
0.00216993
3.10304e-05
0.00219881
2.06095e-05
0.00221676
1.25532e-05
0.00222555
5.85399e-06
0.00222594
-2.73325e-07
0.00221776
-6.53803e-06
0.00219985
-1.36972e-05
0.00216982
-2.27129e-05
0.00212349
-3.49767e-05
0.0020538
-5.29041e-05
0.0019488
-8.04532e-05
0.00178684
-0.000128474
0.00153065
-0.000208431
0.00110049
-0.000425449
0.000463758
-0.000773185
-0.00284636
0.000722468
0.002013
0.00116146
0.000329428
0.00143101
0.000163931
0.0015816
8.11181e-05
0.00167778
5.06456e-05
0.00174155
3.27596e-05
0.00178514
2.21121e-05
0.00181529
1.51257e-05
0.00183602
1.02989e-05
0.00184984
6.79115e-06
0.0018583
4.09222e-06
0.0018623
1.85388e-06
0.00186222
-1.92941e-07
0.00185797
-2.29009e-06
0.00184897
-4.69533e-06
0.001834
-7.73807e-06
0.00181092
-1.18955e-05
0.00177603
-1.80215e-05
0.00172305
-2.74683e-05
0.00163905
-4.44724e-05
0.00150311
-7.24905e-05
0.00123842
-0.000160765
0.000793872
-0.000328636
-0.00205249
0.000957011
0.00105599
0.00120571
8.07327e-05
0.00133576
3.38735e-05
0.00140106
1.58188e-05
0.00144191
9.79786e-06
0.00146841
6.26066e-06
0.00148632
4.19973e-06
0.00149859
2.85559e-06
0.00150696
1.93312e-06
0.00151248
1.26594e-06
0.00151582
7.54338e-07
0.00151734
3.30694e-07
0.00151721
-5.69773e-08
0.00151537
-4.55259e-07
0.00151159
-9.13773e-07
0.00150535
-1.49623e-06
0.00149575
-2.29501e-06
0.00148121
-3.47893e-06
0.00145905
-5.30837e-06
0.00142325
-8.67563e-06
0.00136493
-1.41747e-05
0.00123753
-3.3365e-05
0.000989549
-8.06498e-05
-0.00106294
0.00105599
0.00113672
0.0011706
0.00118642
0.00119621
0.00120247
0.00120667
0.00120953
0.00121146
0.00121273
0.00121348
0.00121381
0.00121376
0.0012133
0.00121239
0.00121089
0.0012086
0.00120512
0.00119981
0.00119113
0.00117696
0.00114359
0.00106294
)
;

boundaryField
{
    movingWall
    {
        type            calculated;
        value           uniform 0;
    }
    fixedWalls
    {
        type            calculated;
        value           uniform 0;
    }
    frontAndBack
    {
        type            empty;
        value           nonuniform List<scalar> 0();
    }
}


// ************************************************************************* //
