/*--------------------------------*- C++ -*----------------------------------*\
  =========                 |
  \\      /  F ield         | OpenFOAM: The Open Source CFD Toolbox
   \\    /   O peration     | Website:  https://openfoam.org
    \\  /    A nd           | Version:  8
     \\/     M anipulation  |
\*---------------------------------------------------------------------------*/
FoamFile
{
    version     2.0;
    format      ascii;
    class       volVectorField;
    location    "0.3";
    object      U;
}
// * * * * * * * * * * * * * * * * * * * * * * * * * * * * * * * * * * * * * //

dimensions      [0 1 -1 0 0 0 0];

internalField   nonuniform List<vector> 
576
(
(0.842746 -0.065691 0)
(0.884819 -0.00445932 0)
(0.937851 -0.001651 0)
(0.952202 -0.00069107 0)
(0.962261 -0.000424484 0)
(0.968314 -0.000265296 0)
(0.972365 -0.00017613 0)
(0.975109 -0.000118525 0)
(0.97698 -7.94136e-05 0)
(0.978232 -5.13445e-05 0)
(0.979024 -2.99361e-05 0)
(0.97945 -1.22432e-05 0)
(0.979558 3.9785e-06 0)
(0.979358 2.07396e-05 0)
(0.978822 4.01747e-05 0)
(0.977881 6.50567e-05 0)
(0.976403 9.93969e-05 0)
(0.974173 0.000150898 0)
(0.970762 0.000230476 0)
(0.965638 0.000384481 0)
(0.956348 0.000625096 0)
(0.944083 0.00165227 0)
(0.888963 0.00435268 0)
(0.851517 0.0657956 0)
(0.563333 -0.195406 0)
(0.659728 -0.0220776 0)
(0.798754 -0.0098363 0)
(0.84484 -0.00455116 0)
(0.876387 -0.00281092 0)
(0.895858 -0.00179234 0)
(0.908969 -0.00120074 0)
(0.917922 -0.000815831 0)
(0.924068 -0.000551918 0)
(0.928214 -0.000361179 0)
(0.930863 -0.000214985 0)
(0.932318 -9.3945e-05 0)
(0.932735 1.68233e-05 0)
(0.932149 0.000130672 0)
(0.930476 0.000261808 0)
(0.927495 0.000428511 0)
(0.922793 0.000657292 0)
(0.915683 0.000996963 0)
(0.904845 0.00152208 0)
(0.888523 0.002496 0)
(0.859731 0.00407623 0)
(0.820128 0.00970443 0)
(0.675614 0.0217457 0)
(0.59136 0.197077 0)
(0.30979 -0.300345 0)
(0.427254 -0.0638023 0)
(0.630356 -0.0332491 0)
(0.711609 -0.0168328 0)
(0.767422 -0.0104979 0)
(0.802972 -0.0068083 0)
(0.827169 -0.00459788 0)
(0.843867 -0.00314791 0)
(0.855426 -0.00214518 0)
(0.863291 -0.00141601 0)
(0.868369 -0.000854694 0)
(0.871214 -0.00038905 0)
(0.872113 3.67279e-05 0)
(0.871135 0.000472866 0)
(0.86813 0.000972864 0)
(0.862698 0.0016051 0)
(0.854091 0.00246881 0)
(0.841067 0.00374026 0)
(0.821309 0.00570432 0)
(0.791562 0.00921275 0)
(0.740832 0.0150608 0)
(0.669516 0.0325581 0)
(0.457039 0.0635248 0)
(0.352645 0.308094 0)
(0.111709 -0.363645 0)
(0.21099 -0.129779 0)
(0.440876 -0.0764651 0)
(0.553567 -0.0424935 0)
(0.633328 -0.0270478 0)
(0.686455 -0.0178868 0)
(0.723318 -0.0122076 0)
(0.749159 -0.00842987 0)
(0.767267 -0.00578866 0)
(0.779725 -0.0038527 0)
(0.787871 -0.00235389 0)
(0.79253 -0.00110652 0)
(0.794138 3.45113e-05 0)
(0.792801 0.00120061 0)
(0.788294 0.00253197 0)
(0.780016 0.00420655 0)
(0.766848 0.00648204 0)
(0.746934 0.0097994 0)
(0.716969 0.0148982 0)
(0.672116 0.0236503 0)
(0.59909 0.0383817 0)
(0.496221 0.0750436 0)
(0.25135 0.131524 0)
(0.156775 0.383462 0)
(-0.0114843 -0.376792 0)
(0.0397498 -0.209719 0)
(0.249325 -0.139176 0)
(0.378757 -0.0858032 0)
(0.47633 -0.0566293 0)
(0.545474 -0.0384612 0)
(0.595016 -0.0266787 0)
(0.630578 -0.0186474 0)
(0.655946 -0.0129353 0)
(0.673665 -0.00869609 0)
(0.685427 -0.00538421 0)
(0.6923 -0.00261197 0)
(0.694858 -7.06482e-05 0)
(0.693235 0.00252241 0)
(0.687127 0.00546986 0)
(0.675721 0.00915252 0)
(0.657532 0.0141162 0)
(0.630135 0.0212559 0)
(0.589468 0.032081 0)
(0.529575 0.0498027 0)
(0.437884 0.0790648 0)
(0.312435 0.138433 0)
(0.0803099 0.218074 0)
(0.0214095 0.41236 0)
(-0.061351 -0.34246 0)
(-0.0641094 -0.283108 0)
(0.0835387 -0.213635 0)
(0.204684 -0.146985 0)
(0.306221 -0.102357 0)
(0.384451 -0.0720932 0)
(0.443373 -0.0512253 0)
(0.487186 -0.0364365 0)
(0.519267 -0.0256308 0)
(0.542144 -0.0174518 0)
(0.55761 -0.010968 0)
(0.566845 -0.00548599 0)
(0.570485 -0.000435193 0)
(0.568662 0.00471711 0)
(0.560987 0.0105451 0)
(0.546467 0.017762 0)
(0.523356 0.0273666 0)
(0.488905 0.0409095 0)
(0.438922 0.0608963 0)
(0.367741 0.0917703 0)
(0.267176 0.139762 0)
(0.139551 0.218203 0)
(-0.0369304 0.304599 0)
(-0.0474612 0.391221 0)
(-0.0609692 -0.277694 0)
(-0.0995103 -0.325822 0)
(-0.0302307 -0.282403 0)
(0.0560186 -0.217244 0)
(0.141812 -0.162041 0)
(0.215917 -0.119652 0)
(0.275995 -0.0878865 0)
(0.323025 -0.0640556 0)
(0.358783 -0.0459219 0)
(0.385016 -0.0317746 0)
(0.403154 -0.0202991 0)
(0.414198 -0.0104346 0)
(0.41869 -0.00125677 0)
(0.416688 0.00812486 0)
(0.407726 0.0186804 0)
(0.390747 0.03159 0)
(0.364014 0.0484341 0)
(0.325044 0.0714739 0)
(0.270642 0.103977 0)
(0.197658 0.150505 0)
(0.105147 0.215524 0)
(0.00340766 0.299675 0)
(-0.093308 0.364883 0)
(-0.0620657 0.330447 0)
(-0.0407192 -0.206775 0)
(-0.0888968 -0.323875 0)
(-0.0833645 -0.322989 0)
(-0.0461076 -0.277236 0)
(0.00612749 -0.223511 0)
(0.0599062 -0.174633 0)
(0.108564 -0.133746 0)
(0.14964 -0.100602 0)
(0.182607 -0.0739006 0)
(0.207755 -0.0521372 0)
(0.225614 -0.03387 0)
(0.23664 -0.0177578 0)
(0.241055 -0.00251937 0)
(0.238756 0.0131401 0)
(0.229259 0.0306503 0)
(0.211681 0.051685 0)
(0.184799 0.0783069 0)
(0.147273 0.113072 0)
(0.0982249 0.158877 0)
(0.0386907 0.218012 0)
(-0.0253495 0.288841 0)
(-0.0784853 0.357631 0)
(-0.0997583 0.376829 0)
(-0.0479126 0.252971 0)
(-0.0219002 -0.146651 0)
(-0.0631382 -0.283473 0)
(-0.0916429 -0.320409 0)
(-0.0977293 -0.303883 0)
(-0.0855549 -0.264839 0)
(-0.0637544 -0.219816 0)
(-0.0388292 -0.176452 0)
(-0.0146719 -0.137667 0)
(0.0065555 -0.104023 0)
(0.0237393 -0.0749569 0)
(0.0363453 -0.049393 0)
(0.0440948 -0.0260159 0)
(0.046761 -0.00337755 0)
(0.0440833 0.0200731 0)
(0.0357262 0.046065 0)
(0.0213253 0.0764648 0)
(0.000715138 0.113226 0)
(-0.025661 0.158103 0)
(-0.0560335 0.211845 0)
(-0.0861365 0.272356 0)
(-0.107691 0.331038 0)
(-0.108543 0.366591 0)
(-0.0804212 0.336767 0)
(-0.0287799 0.179429 0)
(-0.0112474 -0.100676 0)
(-0.0425375 -0.22108 0)
(-0.0820567 -0.274303 0)
(-0.114792 -0.281822 0)
(-0.135883 -0.262802 0)
(-0.147055 -0.230703 0)
(-0.151341 -0.19385 0)
(-0.15141 -0.156852 0)
(-0.149341 -0.121852 0)
(-0.14665 -0.0894463 0)
(-0.144385 -0.0592983 0)
(-0.143259 -0.0305178 0)
(-0.143753 -0.00188423 0)
(-0.146069 0.0280106 0)
(-0.15016 0.060622 0)
(-0.15571 0.097292 0)
(-0.161841 0.138935 0)
(-0.166881 0.185474 0)
(-0.168092 0.234872 0)
(-0.161467 0.281637 0)
(-0.141966 0.314809 0)
(-0.105779 0.31592 0)
(-0.057443 0.258993 0)
(-0.0156644 0.117947 0)
(-0.00696725 -0.0623231 0)
(-0.0322203 -0.145622 0)
(-0.073568 -0.191083 0)
(-0.11895 -0.207057 0)
(-0.160895 -0.202706 0)
(-0.196824 -0.185729 0)
(-0.226273 -0.161814 0)
(-0.249609 -0.13477 0)
(-0.26755 -0.106855 0)
(-0.280889 -0.0791565 0)
(-0.290318 -0.0519298 0)
(-0.296328 -0.0248881 0)
(-0.299155 0.00257826 0)
(-0.298793 0.0312154 0)
(-0.294918 0.0616477 0)
(-0.286839 0.0942043 0)
(-0.273533 0.128588 0)
(-0.253695 0.163441 0)
(-0.225917 0.195811 0)
(-0.189066 0.220558 0)
(-0.143006 0.229942 0)
(-0.0904121 0.213831 0)
(-0.040464 0.16158 0)
(-0.00889917 0.0668831 0)
(-0.00582655 -0.0219817 0)
(-0.0291718 -0.0525688 0)
(-0.0710578 -0.0707557 0)
(-0.121741 -0.0787414 0)
(-0.173673 -0.0791059 0)
(-0.222749 -0.0742055 0)
(-0.266696 -0.0659445 0)
(-0.30428 -0.0557303 0)
(-0.334962 -0.0445057 0)
(-0.358616 -0.0328205 0)
(-0.375289 -0.0209216 0)
(-0.38503 -0.00884704 0)
(-0.387783 0.00348368 0)
(-0.383361 0.0161789 0)
(-0.37142 0.0292948 0)
(-0.351497 0.0427285 0)
(-0.323149 0.056106 0)
(-0.286171 0.0686525 0)
(-0.240909 0.0790627 0)
(-0.188666 0.0854164 0)
(-0.132204 0.0852239 0)
(-0.07663 0.0757326 0)
(-0.0308728 0.0546805 0)
(-0.00592592 0.0215682 0)
(-0.00582645 0.0219852 0)
(-0.0291713 0.0525775 0)
(-0.0710566 0.070768 0)
(-0.12174 0.0787557 0)
(-0.173671 0.0791211 0)
(-0.222746 0.0742206 0)
(-0.266693 0.0659584 0)
(-0.304276 0.0557425 0)
(-0.334958 0.0445155 0)
(-0.358612 0.0328273 0)
(-0.375285 0.0209253 0)
(-0.385026 0.00884728 0)
(-0.387779 -0.00348683 0)
(-0.383358 -0.0161853 0)
(-0.371418 -0.0293041 0)
(-0.351495 -0.0427403 0)
(-0.323148 -0.0561196 0)
(-0.286171 -0.0686672 0)
(-0.240908 -0.0790776 0)
(-0.188666 -0.0854305 0)
(-0.132204 -0.0852363 0)
(-0.0766301 -0.0757424 0)
(-0.0308729 -0.0546867 0)
(-0.00592596 -0.0215702 0)
(-0.00696699 0.0623253 0)
(-0.0322191 0.145628 0)
(-0.0735653 0.191092 0)
(-0.118946 0.207068 0)
(-0.160889 0.202719 0)
(-0.196817 0.185741 0)
(-0.226265 0.161826 0)
(-0.2496 0.134781 0)
(-0.26754 0.106865 0)
(-0.280879 0.0791637 0)
(-0.290308 0.0519344 0)
(-0.296319 0.0248899 0)
(-0.299146 -0.00257939 0)
(-0.298785 -0.0312194 0)
(-0.29491 -0.0616544 0)
(-0.286833 -0.0942133 0)
(-0.273528 -0.128598 0)
(-0.253692 -0.163453 0)
(-0.225915 -0.195824 0)
(-0.189065 -0.220571 0)
(-0.143006 -0.229953 0)
(-0.090412 -0.21384 0)
(-0.0404641 -0.161587 0)
(-0.00889923 -0.0668854 0)
(-0.0112472 0.100676 0)
(-0.0425362 0.221083 0)
(-0.0820538 0.274308 0)
(-0.114787 0.281829 0)
(-0.135876 0.262811 0)
(-0.147047 0.230712 0)
(-0.15133 0.19386 0)
(-0.151398 0.156861 0)
(-0.149329 0.12186 0)
(-0.146637 0.089453 0)
(-0.144372 0.0593031 0)
(-0.143246 0.0305205 0)
(-0.14374 0.0018846 0)
(-0.146057 -0.0280125 0)
(-0.150149 -0.0606262 0)
(-0.1557 -0.0972981 0)
(-0.161832 -0.138943 0)
(-0.166874 -0.185483 0)
(-0.168087 -0.234882 0)
(-0.161463 -0.281647 0)
(-0.141964 -0.314819 0)
(-0.105778 -0.315929 0)
(-0.0574428 -0.258999 0)
(-0.0156644 -0.117949 0)
(-0.0219001 0.146651 0)
(-0.0631373 0.283474 0)
(-0.0916406 0.320412 0)
(-0.0977253 0.303888 0)
(-0.0855492 0.264845 0)
(-0.0637468 0.219823 0)
(-0.0388199 0.176459 0)
(-0.0146609 0.137674 0)
(0.00656802 0.10403 0)
(0.023753 0.0749624 0)
(0.0363599 0.0493972 0)
(0.0441099 0.0260185 0)
(0.0467761 0.00337842 0)
(0.0440981 -0.0200739 0)
(0.0357402 -0.0460675 0)
(0.0213382 -0.0764688 0)
(0.000726602 -0.113231 0)
(-0.0256512 -0.158109 0)
(-0.0560257 -0.211852 0)
(-0.0861308 -0.272363 0)
(-0.107687 -0.331045 0)
(-0.108541 -0.366598 0)
(-0.0804205 -0.336772 0)
(-0.0287798 -0.179431 0)
(-0.0407192 0.206774 0)
(-0.0888964 0.323875 0)
(-0.0833631 0.32299 0)
(-0.046105 0.277238 0)
(0.00613166 0.223515 0)
(0.0599122 0.174637 0)
(0.108572 0.133751 0)
(0.14965 0.100607 0)
(0.182619 0.0739053 0)
(0.207768 0.0521412 0)
(0.225628 0.0338731 0)
(0.236655 0.0177598 0)
(0.241071 0.00252017 0)
(0.238771 -0.0131405 0)
(0.229274 -0.0306519 0)
(0.211695 -0.0516876 0)
(0.184812 -0.0783104 0)
(0.147284 -0.113076 0)
(0.0982341 -0.158881 0)
(0.0386977 -0.218017 0)
(-0.0253446 -0.288845 0)
(-0.0784826 -0.357636 0)
(-0.0997572 -0.376832 0)
(-0.0479124 -0.252972 0)
(-0.0609692 0.277694 0)
(-0.0995101 0.325821 0)
(-0.0302302 0.282403 0)
(0.05602 0.217245 0)
(0.141815 0.162044 0)
(0.215921 0.119655 0)
(0.276001 0.0878897 0)
(0.323033 0.0640589 0)
(0.358793 0.0459249 0)
(0.385028 0.0317773 0)
(0.403167 0.0203012 0)
(0.414212 0.0104359 0)
(0.418705 0.00125732 0)
(0.416703 -0.0081251 0)
(0.407741 -0.0186814 0)
(0.39076 -0.0315917 0)
(0.364027 -0.0484363 0)
(0.325055 -0.0714765 0)
(0.270651 -0.10398 0)
(0.197665 -0.150508 0)
(0.105152 -0.215527 0)
(0.00341063 -0.299678 0)
(-0.0933067 -0.364885 0)
(-0.0620655 -0.330448 0)
(-0.061351 0.342459 0)
(-0.0641094 0.283108 0)
(0.0835387 0.213635 0)
(0.204684 0.146986 0)
(0.306223 0.102358 0)
(0.384455 0.0720949 0)
(0.443378 0.0512272 0)
(0.487193 0.0364384 0)
(0.519276 0.0256327 0)
(0.542154 0.0174534 0)
(0.557622 0.0109692 0)
(0.566858 0.00548678 0)
(0.570498 0.000435512 0)
(0.568676 -0.00471726 0)
(0.561 -0.0105457 0)
(0.54648 -0.017763 0)
(0.523367 -0.0273679 0)
(0.488915 -0.040911 0)
(0.43893 -0.060898 0)
(0.367747 -0.091772 0)
(0.26718 -0.139763 0)
(0.139554 -0.218205 0)
(-0.0369293 -0.3046 0)
(-0.047461 -0.391221 0)
(-0.0114842 0.376791 0)
(0.0397498 0.209719 0)
(0.249325 0.139176 0)
(0.378757 0.0858035 0)
(0.47633 0.05663 0)
(0.545477 0.0384621 0)
(0.59502 0.0266797 0)
(0.630583 0.0186484 0)
(0.655953 0.0129363 0)
(0.673673 0.00869692 0)
(0.685436 0.00538484 0)
(0.69231 0.00261237 0)
(0.694868 7.08043e-05 0)
(0.693246 -0.0025225 0)
(0.687137 -0.00547018 0)
(0.675731 -0.00915304 0)
(0.657541 -0.0141169 0)
(0.630143 -0.0212567 0)
(0.589475 -0.0320818 0)
(0.52958 -0.0498036 0)
(0.437887 -0.0790657 0)
(0.312437 -0.138433 0)
(0.0803107 -0.218074 0)
(0.0214096 -0.412361 0)
(0.111709 0.363645 0)
(0.21099 0.129779 0)
(0.440875 0.076465 0)
(0.553566 0.0424936 0)
(0.633329 0.0270481 0)
(0.686457 0.0178872 0)
(0.72332 0.0122081 0)
(0.749163 0.00843035 0)
(0.767272 0.00578911 0)
(0.779731 0.00385309 0)
(0.787878 0.00235418 0)
(0.792537 0.0011067 0)
(0.794146 -3.44471e-05 0)
(0.792808 -0.00120066 0)
(0.788302 -0.00253212 0)
(0.780023 -0.00420679 0)
(0.766854 -0.00648236 0)
(0.746939 -0.00979975 0)
(0.716974 -0.0148986 0)
(0.672119 -0.0236507 0)
(0.599092 -0.038382 0)
(0.496222 -0.075044 0)
(0.251351 -0.131525 0)
(0.156775 -0.383462 0)
(0.30979 0.300344 0)
(0.427254 0.0638021 0)
(0.630356 0.033249 0)
(0.711609 0.0168328 0)
(0.767422 0.010498 0)
(0.802973 0.00680845 0)
(0.82717 0.00459806 0)
(0.843869 0.00314808 0)
(0.855429 0.00214534 0)
(0.863294 0.00141615 0)
(0.868373 0.000854797 0)
(0.871218 0.000389112 0)
(0.872118 -3.67081e-05 0)
(0.87114 -0.000472889 0)
(0.868135 -0.000972923 0)
(0.862703 -0.00160519 0)
(0.854095 -0.00246893 0)
(0.84107 -0.00374039 0)
(0.821312 -0.00570446 0)
(0.791564 -0.00921289 0)
(0.740834 -0.0150609 0)
(0.669517 -0.0325582 0)
(0.457039 -0.0635249 0)
(0.352645 -0.308094 0)
(0.563333 0.195405 0)
(0.659728 0.0220776 0)
(0.798754 0.00983626 0)
(0.844839 0.00455117 0)
(0.876386 0.00281096 0)
(0.895859 0.00179239 0)
(0.90897 0.00120079 0)
(0.917923 0.000815884 0)
(0.924069 0.000551968 0)
(0.928216 0.000361224 0)
(0.930865 0.000215017 0)
(0.932321 9.39644e-05 0)
(0.932738 -1.68159e-05 0)
(0.932152 -0.000130677 0)
(0.930479 -0.000261819 0)
(0.927498 -0.000428532 0)
(0.922795 -0.00065732 0)
(0.915685 -0.000996994 0)
(0.904847 -0.00152212 0)
(0.888524 -0.00249603 0)
(0.859732 -0.00407627 0)
(0.820129 -0.00970447 0)
(0.675614 -0.0217458 0)
(0.59136 -0.197077 0)
(0.842746 0.0656903 0)
(0.884819 0.0044593 0)
(0.937851 0.00165099 0)
(0.952202 0.000691073 0)
(0.962261 0.000424489 0)
(0.968314 0.000265302 0)
(0.972365 0.000176137 0)
(0.975109 0.00011853 0)
(0.97698 7.94178e-05 0)
(0.978233 5.13486e-05 0)
(0.979025 2.99392e-05 0)
(0.979451 1.2245e-05 0)
(0.979559 -3.97826e-06 0)
(0.979358 -2.0741e-05 0)
(0.978823 -4.01772e-05 0)
(0.977881 -6.50606e-05 0)
(0.976403 -9.9402e-05 0)
(0.974173 -0.000150902 0)
(0.970762 -0.00023048 0)
(0.965639 -0.000384486 0)
(0.956348 -0.0006251 0)
(0.944083 -0.00165227 0)
(0.888963 -0.00435268 0)
(0.851517 -0.0657956 0)
)
;

boundaryField
{
    movingWall
    {
        type            fixedValue;
        value           uniform (1 0 0);
    }
    fixedWalls
    {
        type            noSlip;
    }
    frontAndBack
    {
        type            empty;
    }
}


// ************************************************************************* //
