/*--------------------------------*- C++ -*----------------------------------*\
  =========                 |
  \\      /  F ield         | OpenFOAM: The Open Source CFD Toolbox
   \\    /   O peration     | Website:  https://openfoam.org
    \\  /    A nd           | Version:  7
     \\/     M anipulation  |
\*---------------------------------------------------------------------------*/
FoamFile
{
    version     2.0;
    format      ascii;
    class       volScalarField;
    location    "4";
    object      T;
}
// * * * * * * * * * * * * * * * * * * * * * * * * * * * * * * * * * * * * * //

dimensions      [0 0 0 1 0 0 0];

internalField   nonuniform List<scalar> 
32100
(
8.21161e+116
-5.7133e+114
-2.24224e+115
1.39363e+114
1.18557e+112
-5.07392e+111
1.14635e+111
8.93793e+109
-1.60719e+109
7.7387e+107
8.94634e+106
-4.79679e+105
6.73228e+102
-5.41183e+102
-6.3504e+101
5.21078e+114
-2.45057e+115
1.46585e+114
1.30563e+112
-5.39053e+111
1.16843e+111
9.30423e+109
-1.64113e+109
8.61885e+107
1.93504e+107
2.39653e+106
-5.29702e+105
-6.57433e+103
-7.64104e+102
-1.41372e+102
-2.71295e+115
1.57398e+114
1.37395e+112
-6.03016e+111
1.19396e+111
9.88343e+109
-1.68298e+109
8.6591e+107
1.55541e+107
-2.32868e+106
-3.12359e+104
-3.48359e+105
-1.25693e+104
-5.66876e+101
-1.15991e+102
1.72041e+114
1.8074e+112
-7.81074e+111
9.89922e+110
1.03546e+110
-1.58801e+109
9.45601e+107
1.8853e+107
-2.30497e+106
-4.05797e+105
-2.39361e+105
-1.88698e+105
-1.13563e+104
7.83181e+102
-8.42027e+101
4.71933e+112
-7.23095e+111
-1.41418e+110
-1.27045e+110
-1.86173e+109
2.47841e+108
2.74845e+107
7.1979e+105
2.78393e+105
-8.86382e+104
-1.29986e+105
-8.32201e+104
-6.02599e+103
1.20154e+103
-5.74119e+101
1.42919e+112
1.44483e+111
-1.22506e+111
-2.57446e+110
-1.09598e+108
1.80466e+108
8.97849e+106
3.07517e+106
5.42544e+105
-2.77649e+104
-3.58274e+104
-2.80024e+104
-1.42498e+103
1.11007e+103
-4.00258e+101
2.23463e+112
4.25147e+110
-1.29287e+111
-2.37637e+110
-3.3932e+108
1.58826e+108
1.17765e+107
3.11003e+106
5.35229e+105
5.79726e+103
-7.89908e+103
-5.55524e+103
6.34565e+102
7.38638e+102
-3.25176e+101
1.94663e+112
4.31113e+110
-1.19269e+111
-2.37213e+110
-5.31418e+108
1.57417e+108
1.23104e+107
2.90248e+106
5.41609e+105
1.67739e+104
-7.00134e+102
5.84625e+102
8.22963e+102
3.58119e+102
-2.89742e+101
1.76291e+112
6.05024e+110
-1.11068e+111
-2.35329e+110
-7.06161e+108
1.5176e+108
1.26512e+107
2.72577e+106
5.37227e+105
2.08895e+104
-3.90295e+102
9.12515e+102
4.11435e+102
1.12129e+102
-2.35809e+101
1.60822e+112
7.43429e+110
-1.02682e+111
-2.32292e+110
-8.86231e+108
1.43907e+108
1.30584e+107
2.55069e+106
5.27514e+105
2.42688e+104
-8.65105e+102
4.60933e+102
1.08082e+102
5.0832e+100
-1.58526e+101
1.46403e+112
8.71709e+110
-9.45221e+110
-2.28772e+110
-1.0672e+109
1.34103e+108
1.34739e+107
2.38343e+106
5.13446e+105
2.75428e+104
-9.3398e+102
2.71427e+102
3.71605e+100
-2.00446e+101
-8.47617e+100
1.3325e+112
9.86624e+110
-8.67993e+110
-2.24176e+110
-1.24663e+109
1.22294e+108
1.38765e+107
2.22948e+106
4.95277e+105
3.02276e+104
-7.93922e+102
1.98867e+102
-1.14159e+99
-1.52235e+101
-3.48664e+100
1.21139e+112
9.75824e+110
-7.89561e+110
-2.18057e+110
-1.40886e+109
1.08486e+108
1.42387e+107
2.09379e+106
4.73595e+105
3.21207e+104
-6.07785e+102
1.50597e+102
8.23674e+100
-7.41577e+100
-1.0791e+100
1.0224e+112
7.50966e+110
-6.22653e+110
-1.8542e+110
-1.41365e+109
9.28152e+107
1.44815e+107
1.98963e+106
4.47811e+105
3.33824e+104
-4.37464e+102
1.17263e+102
9.64909e+100
-4.36823e+100
-4.54845e+99
6.56107e+111
5.80596e+110
-4.63334e+110
-1.47789e+110
-1.27568e+109
6.9421e+107
1.34683e+107
1.80207e+106
4.15099e+105
3.5242e+104
-2.5483e+102
1.08407e+102
1.23716e+101
-4.0959e+100
-3.63776e+99
4.78862e+111
6.11287e+110
-3.64225e+110
-1.26428e+110
-1.19027e+109
4.94401e+107
1.22929e+107
1.61329e+106
3.89689e+105
3.83593e+104
-1.36367e+101
9.83038e+101
1.84363e+101
-4.65596e+100
-4.42507e+99
4.32492e+111
6.56005e+110
-3.05351e+110
-1.15956e+110
-1.20029e+109
3.53712e+107
1.19258e+107
1.52365e+106
3.7517e+105
4.16355e+104
2.91493e+102
7.40999e+101
2.32936e+101
-4.93726e+100
-5.85193e+99
3.8402e+111
6.68419e+110
-2.69525e+110
-1.10851e+110
-1.258e+109
2.21077e+107
1.19173e+107
1.49616e+106
3.64248e+105
4.48588e+104
6.64752e+102
4.55607e+101
2.60663e+101
-4.70116e+100
-7.21184e+99
3.39707e+111
6.61249e+110
-2.38948e+110
-1.06375e+110
-1.32099e+109
7.57179e+106
1.19905e+107
1.5052e+106
3.54305e+105
4.7953e+104
1.10419e+103
1.80846e+101
2.73626e+101
-4.06411e+100
-8.19406e+99
3.00373e+111
6.47531e+110
-2.0867e+110
-1.0133e+110
-1.38426e+109
-8.88356e+106
1.19871e+107
1.53861e+106
3.44411e+105
5.08064e+104
1.60871e+103
-4.79329e+100
2.84064e+101
-3.26302e+100
-8.91823e+99
2.63252e+111
6.25505e+110
-1.78471e+110
-9.57582e+109
-1.44571e+109
-2.75143e+107
1.18183e+107
1.59277e+106
3.3481e+105
5.35066e+104
2.17455e+103
-2.24855e+101
2.82489e+101
-2.30947e+100
-9.26357e+99
2.27738e+111
5.94973e+110
-1.4917e+110
-9.00158e+109
-1.50334e+109
-4.85043e+107
1.14051e+107
1.67026e+106
3.26646e+105
5.62191e+104
2.80611e+103
-3.32823e+101
2.6293e+101
-1.28487e+100
-9.03973e+99
1.9479e+111
5.59466e+110
-1.217e+110
-8.4137e+109
-1.55648e+109
-7.1964e+107
1.06664e+107
1.77288e+106
3.21019e+105
5.91282e+104
3.52468e+103
-3.5556e+101
2.39098e+101
-3.36935e+99
-8.46154e+99
1.64933e+111
5.21407e+110
-9.6241e+109
-7.80359e+109
-1.60235e+109
-9.76138e+107
9.51861e+106
1.90112e+106
3.1872e+105
6.22585e+104
4.36347e+103
-2.79634e+101
2.14162e+101
5.14081e+99
-7.79133e+99
1.38526e+111
4.83517e+110
-7.31244e+109
-7.18503e+109
-1.64074e+109
-1.25338e+108
7.85976e+106
2.05116e+106
3.20559e+105
6.53911e+104
5.3463e+103
-7.98498e+100
1.86134e+101
1.29999e+100
-7.1872e+99
1.15442e+111
4.45487e+110
-5.23571e+109
-6.55725e+109
-1.67124e+109
-1.55147e+108
5.56827e+106
2.21394e+106
3.27741e+105
6.85012e+104
6.49434e+103
2.92725e+101
1.53694e+101
2.08076e+100
-6.70967e+99
9.58783e+110
4.08125e+110
-3.36644e+109
-5.92343e+109
-1.69367e+109
-1.87016e+108
2.50432e+106
2.37875e+106
3.41886e+105
7.15344e+104
7.81241e+103
9.11236e+101
1.12729e+101
2.87059e+100
-6.17234e+99
7.949e+110
3.74489e+110
-1.68607e+109
-5.30203e+109
-1.70738e+109
-2.20792e+108
-1.50407e+106
2.52848e+106
3.64439e+105
7.49654e+104
9.2997e+103
1.82838e+102
6.14707e+100
3.55106e+100
-5.35311e+99
6.53746e+110
3.44252e+110
-2.04068e+108
-4.701e+109
-1.71041e+109
-2.56486e+108
-6.66718e+106
2.64012e+106
3.97505e+105
7.85475e+104
1.09577e+104
3.1316e+102
6.1884e+99
4.1025e+100
-4.32194e+99
5.2903e+110
3.12967e+110
1.03143e+109
-4.11014e+109
-1.69822e+109
-2.9385e+108
-1.3249e+107
2.6783e+106
4.45196e+105
8.22905e+104
1.27842e+104
4.94779e+102
-4.7909e+100
4.53277e+100
-3.09536e+99
4.19678e+110
2.76643e+110
1.95503e+109
-3.5146e+109
-1.66879e+109
-3.32294e+108
-2.15817e+107
2.58751e+106
5.11777e+105
8.7006e+104
1.48294e+104
7.32181e+102
-9.05223e+100
4.66722e+100
-1.69856e+99
3.29257e+110
2.38268e+110
2.60851e+109
-2.92472e+109
-1.62158e+109
-3.71159e+108
-3.20292e+107
2.28031e+106
6.00708e+105
9.33802e+104
1.71898e+104
1.02855e+103
-1.06357e+101
4.50964e+100
-3.18321e+98
2.59552e+110
2.06072e+110
3.17432e+109
-2.35383e+109
-1.55172e+109
-4.09429e+108
-4.49188e+107
1.62679e+106
7.12058e+105
1.02746e+105
2.00357e+104
1.45036e+103
-8.37765e+100
4.27042e+100
1.16936e+99
2.03537e+110
1.82782e+110
3.75589e+109
-1.80278e+109
-1.46074e+109
-4.46529e+108
-6.05597e+107
4.64783e+105
8.39334e+105
1.16747e+105
2.3443e+104
2.12093e+103
2.12066e+100
3.85978e+100
3.27404e+99
1.55879e+110
1.61994e+110
4.21299e+109
-1.27565e+109
-1.35339e+109
-4.81819e+108
-7.89616e+107
-1.39195e+106
9.67127e+105
1.37977e+105
2.74109e+104
3.07467e+103
3.09464e+101
2.83401e+100
6.53287e+99
1.16662e+110
1.39201e+110
4.43949e+109
-7.73653e+108
-1.22972e+109
-5.12904e+108
-9.89735e+107
-4.1402e+106
1.06659e+106
1.6945e+105
3.19398e+104
4.42722e+103
9.83705e+101
6.72725e+99
1.13725e+100
8.5101e+109
1.17663e+110
4.54101e+109
-3.0228e+108
-1.08879e+109
-5.36161e+108
-1.19829e+108
-7.98692e+106
1.09381e+106
2.14081e+105
3.69793e+104
6.31278e+103
2.43725e+102
-2.9217e+100
1.76197e+100
5.94415e+109
9.91549e+109
4.5975e+109
1.30781e+108
-9.30471e+108
-5.48031e+108
-1.41433e+108
-1.31275e+107
9.84097e+105
2.74444e+105
4.25586e+104
8.4691e+103
5.06591e+102
-6.5776e+100
2.31282e+100
3.88245e+109
8.27499e+109
4.58451e+109
5.2277e+108
-7.54654e+108
-5.41957e+108
-1.62818e+108
-1.97017e+107
6.50686e+105
3.48953e+105
4.93183e+104
1.0691e+104
9.27322e+102
-5.77276e+100
2.34087e+100
2.25889e+109
6.77752e+109
4.48618e+109
8.65542e+108
-5.60355e+108
-5.15961e+108
-1.81963e+108
-2.76754e+107
4.37515e+103
4.2781e+105
5.83882e+104
1.27692e+104
1.58409e+103
9.57052e+100
1.13598e+100
1.04731e+109
5.34301e+109
4.24836e+109
1.13285e+109
-3.58177e+108
-4.72877e+108
-1.9634e+108
-3.63982e+107
-1.02663e+106
4.96371e+105
7.10629e+104
1.44753e+104
2.531e+103
6.06006e+101
-2.22228e+100
2.47102e+108
3.9909e+109
3.8512e+109
1.30523e+109
-1.63885e+108
-4.17519e+108
-2.04618e+108
-4.54532e+107
-2.51718e+106
5.40556e+105
8.76417e+104
1.5291e+104
3.32138e+103
1.51147e+102
-6.82946e+100
-1.90723e+108
2.84448e+109
3.33462e+109
1.39854e+109
1.06653e+107
-3.54551e+108
-2.0603e+108
-5.33294e+107
-4.53805e+106
5.42028e+105
1.05046e+105
1.47722e+104
3.78489e+103
2.7454e+102
-1.02149e+101
-3.91593e+108
1.98318e+109
2.80974e+109
1.44059e+109
1.60689e+108
-2.88122e+108
-2.0177e+108
-5.9792e+107
-6.59085e+106
4.83321e+105
1.24249e+105
1.39736e+104
4.08378e+103
4.18717e+102
-1.09669e+101
-4.63348e+108
1.37487e+109
2.36166e+109
1.44345e+109
2.86947e+108
-2.21844e+108
-1.93461e+108
-6.44809e+107
-8.45886e+106
3.48587e+105
1.47513e+105
1.32775e+104
3.90429e+103
6.22518e+102
-3.97943e+100
-4.75354e+108
9.41384e+108
1.98563e+109
1.41456e+109
3.92301e+108
-1.58047e+108
-1.83158e+108
-6.79568e+107
-1.02882e+107
1.69956e+105
1.55142e+105
1.17807e+104
3.02138e+103
5.25061e+102
6.71514e+100
-4.60329e+108
6.18516e+108
1.66898e+109
1.37029e+109
4.78889e+108
-9.8148e+107
-1.72794e+108
-7.19858e+107
-1.2002e+107
-2.1273e+104
1.54398e+105
1.04222e+104
2.25742e+103
3.68511e+102
6.65763e+100
-4.27703e+108
3.72397e+108
1.38602e+109
1.31155e+109
5.47181e+108
-4.20357e+107
-1.61887e+108
-7.63611e+107
-1.40021e+107
-2.19394e+105
1.60973e+105
1.00013e+104
1.87404e+103
3.14378e+102
7.438e+100
-3.83613e+108
1.83901e+108
1.11974e+109
1.23073e+109
5.96238e+108
1.11591e+107
-1.48403e+108
-8.01152e+107
-1.62579e+107
-4.49607e+105
1.70654e+105
1.03094e+104
1.72027e+103
3.14762e+102
9.66474e+100
-3.32013e+108
4.84844e+107
8.82669e+108
1.13819e+109
6.3052e+108
6.27234e+107
-1.31425e+108
-8.26009e+107
-1.85172e+107
-7.2226e+105
1.81532e+105
1.10167e+104
1.65698e+103
3.40805e+102
1.39549e+101
-2.78944e+108
-4.31336e+107
6.82535e+108
1.04095e+109
6.54927e+108
1.12801e+108
-1.1274e+108
-8.41766e+107
-2.08711e+107
-1.03985e+106
1.91269e+105
1.18628e+104
1.59522e+103
3.64357e+102
2.03681e+101
-2.27102e+108
-1.02455e+108
5.05747e+108
9.27283e+108
6.69568e+108
1.61114e+108
-9.30078e+107
-8.55365e+107
-2.34211e+107
-1.40537e+106
1.96395e+105
1.24787e+104
1.4789e+103
3.61612e+102
2.80952e+101
-1.79028e+108
-1.34087e+108
3.4562e+108
8.0344e+108
6.74859e+108
2.08813e+108
-7.10307e+107
-8.64261e+107
-2.61294e+107
-1.81795e+106
1.95276e+105
1.2643e+104
1.32178e+103
3.35306e+102
3.83235e+101
-1.37608e+108
-1.43594e+108
2.14373e+108
6.82652e+108
6.75557e+108
2.56257e+108
-4.61178e+107
-8.6296e+107
-2.88993e+107
-2.26213e+106
1.87948e+105
1.22748e+104
1.16374e+103
2.99944e+102
5.79109e+101
-1.03028e+108
-1.39931e+108
1.14559e+108
5.66999e+108
6.65113e+108
3.01674e+108
-1.78534e+107
-8.47637e+107
-3.16526e+107
-2.71312e+106
1.73372e+105
1.1214e+104
1.02773e+103
2.62263e+102
8.90415e+101
-7.42973e+107
-1.28247e+108
3.66301e+107
4.50268e+108
6.35112e+108
3.43626e+108
1.41869e+107
-8.13731e+107
-3.43075e+107
-3.12799e+106
1.5036e+105
9.19454e+103
9.34133e+102
1.80333e+102
9.62842e+101
-5.06216e+107
-1.10234e+108
-2.13882e+107
3.3222e+108
5.87425e+108
3.80236e+108
4.9855e+107
-7.63327e+107
-3.67672e+107
-3.34922e+106
1.16328e+105
5.92357e+103
7.51363e+102
9.38612e+101
8.99027e+101
-3.19754e+107
-8.81366e+107
-5.92702e+107
2.20488e+108
5.22059e+108
4.07799e+108
8.84155e+107
-6.96311e+107
-3.90532e+107
-3.3338e+106
7.80149e+104
2.2288e+103
5.9082e+102
1.07102e+102
9.11758e+101
-1.84019e+107
-6.46801e+107
-7.86266e+107
1.19454e+108
4.39971e+108
4.23529e+108
1.30073e+108
-6.07056e+107
-4.14012e+107
-3.30043e+106
4.90141e+104
-5.28013e+102
7.66175e+102
1.73964e+102
1.24248e+102
-9.28569e+106
-4.25629e+107
-8.18489e+107
3.36844e+107
3.46814e+108
4.2588e+108
1.74784e+108
-4.91756e+107
-4.47676e+107
-4.54425e+106
2.31082e+104
-7.00709e+102
7.8368e+102
3.23108e+102
2.13022e+102
-3.58936e+106
-2.35983e+107
-7.21952e+107
-3.38616e+107
2.47729e+108
4.12769e+108
2.217e+108
-3.38088e+107
-4.77546e+107
-8.98866e+106
4.8533e+104
1.41344e+104
8.6349e+103
5.05238e+103
1.7818e+103
-5.34169e+105
-8.86053e+106
-5.29405e+107
-8.13292e+107
1.45724e+108
3.8068e+108
2.68922e+108
-1.16969e+107
-4.35585e+107
-1.20378e+107
-2.58732e+105
3.2253e+103
-1.5748e+104
-5.26066e+103
4.54887e+102
3.29922e+105
1.64239e+105
-2.79825e+107
-1.05743e+108
4.36627e+107
3.249e+108
3.10688e+108
1.67618e+107
-3.899e+107
-1.79523e+107
-2.95688e+106
-1.30597e+106
-1.26621e+106
-9.58963e+105
-3.65994e+105
4.79469e+105
1.51519e+106
-4.57354e+106
-1.01372e+108
-5.10959e+107
2.44501e+108
3.38701e+108
4.99786e+107
-3.29952e+107
-1.98717e+107
-9.9292e+106
-5.90067e+106
-5.95211e+106
-7.7866e+106
-5.57559e+106
1.26886e+106
2.36338e+106
-1.48948e+106
-6.48879e+107
-1.20487e+108
1.45848e+108
3.43948e+108
8.43739e+107
-2.2858e+107
-1.50545e+107
-1.14344e+107
-9.9661e+106
-1.39928e+107
-1.5599e+107
-8.62011e+106
6.17509e+106
2.07194e+106
-5.51723e+106
-4.36128e+107
-1.28722e+108
4.23375e+107
3.16039e+108
1.13207e+108
-7.9839e+106
-7.50398e+106
-3.41576e+106
-6.51592e+106
-1.14197e+107
-9.70918e+106
-7.90666e+106
-1.0239e+108
-4.93283e+107
-2.32672e+107
-5.64067e+107
-1.04918e+108
-5.68127e+106
2.54163e+108
1.28159e+108
6.53426e+106
9.59328e+105
-1.29549e+106
-9.09615e+105
-2.02666e+106
-3.96748e+106
-7.21863e+106
-6.95509e+108
-2.19869e+108
-1.62115e+108
-1.22144e+108
-5.60301e+107
6.02474e+107
2.26717e+108
1.16592e+108
2.31103e+107
-1.54745e+106
-2.85085e+106
-2.92923e+106
-2.27898e+106
-2.60726e+106
-5.86636e+106
9.71579e+109
3.08546e+109
8.36731e+108
3.04554e+108
1.52539e+108
2.95162e+108
3.91628e+108
1.69728e+108
3.29736e+107
3.40981e+106
-2.38557e+106
-3.10755e+106
-2.44632e+106
-2.20278e+106
-4.97429e+106
-1.3455e+109
1.06844e+109
5.35663e+109
4.33586e+109
2.86502e+109
1.81204e+109
9.06758e+108
3.31534e+108
8.70032e+107
1.06395e+107
-4.45612e+106
-5.4636e+106
-3.94144e+106
-2.85126e+106
-4.24361e+106
-1.19554e+112
-2.33536e+111
-6.10376e+110
-1.88157e+110
-4.94746e+109
-2.82285e+108
8.15021e+108
5.44252e+108
2.11063e+108
5.75451e+107
9.73427e+106
-1.29238e+106
-2.58996e+106
-2.55174e+106
-4.15663e+106
9.49572e+112
4.3486e+111
-3.42069e+111
-1.67869e+111
-7.34588e+110
-2.24583e+110
-2.98025e+109
1.33611e+108
2.06343e+108
7.08688e+107
1.05316e+107
-6.00793e+106
-7.53486e+106
-5.93443e+106
-7.81693e+106
2.25981e+114
2.68807e+113
4.23535e+112
5.41304e+111
-7.5117e+109
-3.1876e+110
-4.83241e+109
6.50516e+108
8.1307e+108
6.37958e+108
4.75464e+108
3.37381e+108
2.14365e+108
1.15408e+108
8.27308e+107
-1.14773e+115
1.92982e+114
4.817e+113
4.69021e+112
3.66664e+111
1.7058e+110
8.41885e+109
1.59639e+110
1.37516e+110
1.07117e+110
8.012e+109
5.65429e+109
3.54262e+109
1.86825e+109
1.07401e+109
-6.53871e+115
-1.08568e+115
2.49957e+114
2.58248e+113
-1.48244e+112
2.26281e+111
1.23119e+111
6.94959e+110
5.05032e+110
3.27652e+110
2.03932e+110
1.28937e+110
8.27606e+109
5.10811e+109
2.57702e+109
1.09476e+117
-7.04171e+115
-8.48535e+114
2.87874e+114
9.11758e+112
-1.9301e+112
-2.08546e+110
-1.36995e+111
-1.66871e+111
-1.46829e+111
-1.22089e+111
-9.08346e+110
-5.59336e+110
-2.50531e+110
-7.39225e+109
-8.03135e+117
9.74712e+116
-6.86382e+115
-7.00166e+114
2.60703e+114
5.73557e+112
-3.84182e+112
-1.35164e+112
-9.89728e+111
-6.71705e+111
-4.24774e+111
-2.71297e+111
-1.72756e+111
-1.00832e+111
-3.80759e+110
-8.24176e+118
-6.9545e+117
8.88751e+116
-6.72996e+115
-6.8939e+114
2.228e+114
-2.56744e+113
-3.45112e+113
-3.0309e+113
-2.68007e+113
-2.21591e+113
-1.66862e+113
-1.08504e+113
-5.67066e+112
-2.16801e+112
4.01041e+119
-7.98204e+118
-6.21663e+117
8.23971e+116
-7.39663e+115
-1.31407e+115
-3.55148e+114
-5.21777e+114
-4.55917e+114
-3.73627e+114
-2.94144e+114
-2.18648e+114
-1.45982e+114
-8.2388e+113
-3.47262e+113
3.36068e+120
3.32562e+119
-7.70116e+118
-5.88332e+117
7.2425e+116
-1.08892e+116
-3.63623e+115
-1.82816e+115
-1.36101e+115
-8.2984e+114
-4.39942e+114
-2.17706e+114
-1.10269e+114
-7.14993e+113
-3.83102e+113
-1.38749e+122
9.11036e+120
1.00026e+120
-2.11894e+119
-1.80621e+118
2.58468e+117
1.10937e+116
2.78953e+116
2.95499e+116
2.53987e+116
2.11618e+116
1.70945e+116
1.27479e+116
9.22453e+115
6.90603e+115
1.26023e+123
-1.30501e+122
8.39545e+120
1.08118e+120
-1.93951e+119
-1.6976e+118
4.76699e+117
1.76463e+117
1.56004e+117
1.29208e+117
8.78269e+116
5.6422e+116
3.77627e+116
2.584e+116
1.53449e+116
6.62726e+123
1.09744e+123
-1.20299e+122
8.28902e+120
1.15677e+120
-1.76985e+119
-1.70675e+118
6.84115e+117
3.36322e+117
2.55624e+117
1.91687e+117
1.326e+117
8.19019e+116
4.56933e+116
2.60969e+116
-7.9799e+124
6.75219e+123
1.00251e+123
-1.06561e+122
3.14055e+120
2.10479e+120
-8.93807e+118
-7.90302e+118
-7.12196e+117
-1.59226e+117
-6.46272e+116
2.90898e+116
5.18707e+116
4.35855e+116
2.42098e+116
-7.87291e+125
-7.23078e+124
6.55801e+123
8.87641e+122
-9.99603e+121
6.3511e+120
6.10748e+119
-1.70139e+119
-3.89678e+118
-1.50533e+118
-9.32299e+117
-5.52435e+117
-3.00156e+117
-1.16459e+117
-3.39353e+116
-8.16092e+124
7.03774e+123
9.74918e+122
-1.23638e+122
6.82419e+120
6.9609e+119
-3.68464e+119
-1.28662e+119
-5.30793e+118
-2.59026e+118
-1.16487e+118
-5.89857e+117
-4.77594e+117
-2.95599e+117
-1.24317e+117
6.39384e+123
1.24318e+123
-1.10798e+122
-1.88006e+120
-1.85242e+119
-5.24267e+119
-2.96601e+119
-1.52599e+119
-7.97037e+118
-4.07282e+118
-1.87797e+118
-7.80104e+117
-4.99277e+117
-2.77656e+117
-7.81133e+116
9.06651e+122
2.46234e+121
-7.11126e+120
-3.34924e+120
-1.41904e+120
-6.42488e+119
-3.00193e+119
-1.44267e+119
-7.09969e+118
-3.4736e+118
-1.54938e+118
-5.72212e+117
-1.84275e+117
6.50089e+116
1.68522e+117
-6.26266e+121
-1.10857e+121
-2.63524e+120
-8.74452e+119
-2.9653e+119
-9.43858e+118
-2.42025e+118
-2.01155e+116
7.78855e+117
1.11627e+118
1.43412e+118
2.01953e+118
4.74351e+117
1.48584e+117
4.46271e+116
1.33114e+120
3.73943e+119
2.99667e+119
1.97603e+119
1.23296e+119
7.94513e+118
5.30405e+118
3.6963e+118
3.40522e+118
6.09351e+118
1.10413e+118
-3.25945e+117
-6.80215e+115
-4.56024e+114
-3.18688e+115
3.03598e+119
1.02906e+119
3.81497e+118
1.84158e+118
9.53155e+117
5.18243e+117
3.15857e+117
1.4696e+117
3.36447e+117
4.22259e+118
4.21544e+118
8.88905e+117
1.47785e+116
-1.21553e+116
-1.19861e+116
-1.98248e+118
-5.83408e+117
-4.65334e+117
-4.02794e+117
-3.56781e+117
-2.74219e+117
-1.04375e+117
1.93547e+116
2.5696e+117
1.63238e+118
3.65562e+118
2.47246e+118
1.45252e+118
8.40018e+117
4.79604e+117
-4.7762e+117
-1.8467e+117
-7.5835e+116
-3.92956e+116
-2.39687e+116
-1.48914e+116
-1.72265e+116
-1.82189e+116
-5.95056e+115
-3.15296e+116
2.76488e+117
4.96727e+117
4.79977e+117
3.77142e+117
2.80667e+117
4.52753e+116
1.67486e+116
8.2993e+115
5.50674e+115
4.16705e+115
2.87476e+115
7.99771e+114
-9.26435e+114
-1.37732e+115
-7.77588e+115
-1.24909e+116
-6.36267e+115
-1.72518e+115
-2.29551e+114
1.9912e+114
-3.27892e+114
1.18162e+114
-2.18147e+114
-3.32989e+114
-3.58911e+114
-3.21975e+114
-1.55672e+114
-2.16493e+112
7.58295e+113
-6.71666e+112
-3.09224e+115
-4.09171e+115
-3.48161e+115
-2.7853e+115
-2.27104e+115
-8.08952e+114
-3.21913e+114
-1.30074e+114
-6.74589e+113
-3.96736e+113
-2.30363e+113
-1.73141e+113
-1.18675e+113
1.13933e+112
2.92895e+113
5.44182e+113
2.28094e+113
-4.28192e+111
-8.34884e+112
-9.30292e+112
9.15498e+113
3.26655e+113
2.01846e+113
1.52167e+113
1.2548e+113
9.39648e+112
4.45437e+112
-2.88833e+111
-5.35284e+112
-7.43321e+112
7.46632e+112
1.81538e+113
1.84717e+113
1.55285e+113
1.21173e+113
8.60526e+112
3.40856e+112
1.37329e+112
7.03369e+111
4.47294e+111
3.97473e+111
5.7612e+111
6.1181e+111
5.2147e+110
-1.56743e+112
-4.94515e+112
-5.40864e+112
-4.42343e+112
-3.37992e+112
-2.51964e+112
-9.95331e+111
-3.60323e+111
-1.94889e+111
-1.38487e+111
-1.04249e+111
-5.76325e+110
1.85814e+110
1.2002e+111
2.67435e+111
4.20542e+111
4.03544e+111
2.60947e+111
1.79082e+111
1.55738e+111
1.592e+111
-3.22064e+110
-1.57008e+110
8.80386e+107
4.62332e+109
5.35542e+109
3.62616e+109
6.90344e+108
3.60393e+109
2.25026e+110
6.78563e+110
1.2551e+111
1.30867e+111
1.20082e+111
1.20788e+111
1.34907e+111
2.09732e+110
7.70192e+109
3.23095e+109
1.92227e+109
1.30921e+109
8.03874e+108
2.275e+108
-6.71602e+108
-1.9191e+109
-2.70327e+109
-1.52904e+109
3.18989e+109
1.4145e+110
3.58409e+110
6.92926e+110
-1.49959e+109
-4.73098e+108
-4.52162e+108
-4.30431e+108
-3.81562e+108
-2.65047e+108
-8.50008e+107
5.80961e+107
3.42159e+107
-3.23203e+108
-4.79748e+108
1.59207e+109
9.03692e+109
2.67333e+110
5.78501e+110
-5.34561e+108
-2.14047e+108
-8.20768e+107
-3.73063e+107
-2.06616e+107
-1.66052e+107
-1.9802e+107
-1.43319e+107
1.18987e+107
3.66805e+107
-2.71429e+107
5.63039e+108
4.35891e+109
1.68329e+110
4.3216e+110
7.30189e+107
2.88683e+107
1.34433e+107
7.8285e+106
5.07135e+106
2.56451e+106
-6.06808e+105
-4.66169e+106
-9.51815e+106
-1.53072e+107
-7.18449e+107
-2.68156e+108
-1.51488e+108
4.90237e+109
2.21602e+110
-4.24869e+106
-1.67006e+106
-8.3643e+105
-5.24527e+105
-3.54326e+105
-1.89633e+105
-2.22749e+104
4.96636e+104
1.60597e+105
7.45943e+105
-6.67117e+106
-4.8489e+107
-2.78259e+108
-7.80702e+108
-6.72754e+108
1.09322e+105
4.21956e+104
3.29639e+104
2.64161e+104
2.17168e+104
1.61254e+104
2.44418e+104
1.61313e+105
1.02837e+106
4.10639e+106
5.02759e+106
2.02576e+106
-2.93868e+107
-1.84956e+108
-6.32311e+108
2.11248e+104
7.9609e+103
4.84093e+103
3.78559e+103
3.17178e+103
1.72407e+103
1.17695e+104
1.53036e+105
1.11896e+106
4.94909e+106
6.19792e+106
5.94011e+106
3.3277e+106
-1.10171e+107
-6.43437e+107
1.59721e+103
7.65658e+102
1.93797e+102
3.6077e+101
9.23887e+100
-8.54745e+102
1.0484e+104
1.70234e+105
1.274e+106
5.93012e+106
7.26042e+106
6.9671e+106
5.83441e+106
3.37231e+106
-2.6453e+106
-5.61124e+102
-2.48724e+102
-1.12013e+102
-6.59723e+100
7.326e+101
-9.0126e+102
1.07054e+104
1.93552e+105
1.44234e+106
6.74001e+106
8.37906e+106
8.30578e+106
7.18776e+106
5.00005e+106
1.18904e+106
3.57433e+101
6.33266e+100
8.07039e+100
6.59098e+101
1.61471e+102
-9.57869e+102
1.09559e+104
2.23755e+105
1.71328e+106
6.98551e+106
9.15825e+106
9.80576e+106
9.32548e+106
7.70343e+106
4.74541e+106
-1.53277e+101
-1.55916e+101
-2.62545e+100
6.26563e+101
2.14386e+102
-9.85943e+102
1.02139e+104
2.6005e+105
1.5176e+106
6.55266e+106
9.48943e+106
1.10803e+107
1.1737e+107
1.15226e+107
1.02009e+107
-2.00472e+101
-1.90869e+101
-1.80182e+100
6.78392e+101
2.64492e+102
-8.82438e+102
8.26709e+103
3.0547e+105
1.41445e+106
5.33963e+106
8.62906e+106
1.09655e+107
1.26647e+107
1.39468e+107
1.46804e+107
-2.24285e+101
-2.14704e+101
-4.56685e+99
7.38378e+101
2.95884e+102
-7.147e+102
5.58209e+103
3.55164e+105
1.41761e+106
3.68374e+106
6.19861e+106
8.59453e+106
1.07341e+107
1.26824e+107
1.44471e+107
-2.54698e+101
-2.37874e+101
1.83131e+100
8.18704e+101
3.21624e+102
-5.82676e+102
3.1282e+103
4.31084e+105
1.21381e+106
2.32755e+106
3.76735e+106
5.44996e+106
7.20088e+106
8.95528e+106
1.07333e+107
-2.94082e+101
-2.63993e+101
6.17672e+100
9.4791e+101
3.58238e+102
-4.71437e+102
2.46415e+103
3.21185e+105
8.17059e+105
1.38471e+106
2.10634e+106
2.98507e+106
4.00261e+106
5.14436e+106
6.39147e+106
-3.45465e+101
-2.99976e+101
1.18185e+101
1.12745e+102
3.97889e+102
-2.60098e+102
2.17108e+103
1.83742e+105
4.47108e+105
6.97731e+105
1.01147e+106
1.38937e+106
1.84276e+106
2.38304e+106
3.00635e+106
-4.0049e+101
-3.40832e+101
1.74255e+101
1.33014e+102
4.21764e+102
6.58905e+101
1.39242e+103
8.81979e+104
1.97689e+105
2.87481e+105
3.9038e+105
5.13987e+105
6.67221e+105
8.56576e+105
1.08327e+106
-4.55971e+101
-3.79772e+101
2.3544e+101
1.55318e+102
4.34444e+102
4.24266e+102
-5.4166e+103
1.73077e+104
6.124e+104
9.22352e+104
1.20217e+105
1.51451e+105
1.90001e+105
2.37843e+105
2.95995e+105
-5.17589e+101
-4.19194e+101
3.14778e+101
1.82619e+102
4.43374e+102
6.36426e+102
-6.7872e+103
-1.22833e+104
4.92707e+103
1.67475e+104
2.54958e+104
3.32991e+104
4.14741e+104
5.05977e+104
6.10953e+104
-5.85896e+101
-4.62306e+101
4.09733e+101
2.164e+102
4.734e+102
5.28058e+102
-3.25616e+103
-9.69788e+103
-7.2951e+103
-3.77807e+103
-7.95613e+102
1.64011e+103
3.72418e+103
5.58503e+103
7.3461e+103
-6.58874e+101
-5.01047e+101
5.54889e+101
2.68935e+102
5.92817e+102
7.50131e+102
5.48593e+100
-2.22805e+103
-3.42488e+103
-3.41266e+103
-3.01555e+103
-2.54617e+103
-2.06371e+103
-1.5942e+103
-1.15099e+103
-7.58467e+101
-6.28081e+101
5.65244e+101
3.09439e+102
6.84985e+102
1.04734e+103
1.11514e+103
6.18776e+102
-5.33751e+101
-4.81908e+102
-7.19156e+102
-8.35687e+102
-8.72881e+102
-8.57542e+102
-8.0826e+102
-8.35313e+101
-1.00027e+102
-3.80161e+101
1.14799e+102
3.40772e+102
5.69147e+102
6.74744e+102
6.16813e+102
4.7572e+102
3.31497e+102
2.06533e+102
1.05587e+102
2.66416e+101
-3.24773e+101
-7.52738e+101
-7.09252e+101
-1.14141e+102
-1.21655e+102
-8.7864e+101
-2.29711e+101
5.01828e+101
1.09754e+102
1.43819e+102
1.53407e+102
1.47599e+102
1.33184e+102
1.14162e+102
9.33095e+101
7.2697e+101
5.31377e+101
-3.31736e+101
-7.05245e+101
-9.74438e+101
-1.06933e+102
-9.92031e+101
-8.07914e+101
-5.75543e+101
-3.49533e+101
-1.68452e+101
-3.97022e+100
4.5407e+100
9.71445e+100
1.24142e+101
1.33193e+101
1.28604e+101
-1.04144e+100
-1.64814e+101
-3.05203e+101
-3.90149e+101
-4.14376e+101
-3.95272e+101
-3.50672e+101
-2.95278e+101
-2.40099e+101
-1.90852e+101
-1.48774e+101
-1.13333e+101
-8.38593e+100
-5.99149e+100
-4.09378e+100
7.7203e+100
5.14471e+100
1.21279e+100
-2.02761e+100
-4.19934e+100
-5.42492e+100
-5.92767e+100
-5.93948e+100
-5.66888e+100
-5.24928e+100
-4.74721e+100
-4.20272e+100
-3.64761e+100
-3.10928e+100
-2.59774e+100
3.83775e+100
4.10752e+100
3.52646e+100
2.77645e+100
2.03653e+100
1.4015e+100
8.93998e+99
5.07776e+99
2.25042e+99
2.30355e+98
-1.18392e+99
-2.13996e+99
-2.7447e+99
-3.081e+99
-3.19406e+99
7.67681e+99
9.63536e+99
9.59786e+99
8.81305e+99
7.69772e+99
6.52869e+99
5.42287e+99
4.43267e+99
3.60981e+99
2.9525e+99
2.41137e+99
1.954e+99
1.56596e+99
1.23895e+99
9.68009e+98
4.61089e+98
7.90529e+98
9.40387e+98
9.78454e+98
9.46784e+98
8.79349e+98
7.95595e+98
7.07865e+98
6.2896e+98
5.62246e+98
5.02154e+98
4.46043e+98
3.9375e+98
3.45507e+98
3.01485e+98
-7.20103e+97
-5.28481e+97
-2.69192e+97
-7.53995e+96
5.64486e+96
1.38793e+97
1.85525e+97
2.10089e+97
2.22649e+97
2.27522e+97
2.25946e+97
2.19225e+97
2.08736e+97
1.95675e+97
1.80891e+97
-1.33456e+97
-1.39632e+97
-1.21163e+97
-1.00936e+97
-8.21745e+96
-6.62085e+96
-5.30942e+96
-4.28348e+96
-3.50515e+96
-2.8929e+96
-2.38591e+96
-1.95708e+96
-1.59413e+96
-1.28914e+96
-1.03666e+96
-6.88782e+95
-7.8866e+95
-7.4292e+95
-6.64516e+95
-5.78947e+95
-4.99396e+95
-4.2963e+95
-3.72925e+95
-3.28133e+95
-2.90356e+95
-2.56458e+95
-2.25418e+95
-1.97012e+95
-1.71251e+95
-1.48233e+95
-5.90939e+93
-7.1506e+93
-7.0271e+93
-6.50793e+93
-5.84464e+93
-5.1736e+93
-4.57958e+93
-4.10956e+93
-3.72852e+93
-3.38837e+93
-3.06772e+93
-2.76193e+93
-2.47162e+93
-2.19907e+93
-1.94747e+93
2.9389e+91
3.70529e+91
2.83602e+91
2.03345e+91
1.43565e+91
1.02284e+91
7.44298e+90
5.57682e+90
4.27347e+90
3.30699e+90
2.56743e+90
1.99659e+90
1.5551e+90
1.21427e+90
9.50257e+89
-1.39839e+91
-6.53955e+90
-2.45018e+90
-7.76792e+89
-1.03193e+89
1.61105e+89
2.57342e+89
2.82678e+89
2.73034e+89
2.46766e+89
2.14875e+89
1.82974e+89
1.5352e+89
1.27565e+89
1.04712e+89
-3.26706e+90
-2.29171e+90
-1.3608e+90
-8.26828e+89
-5.16514e+89
-3.34989e+89
-2.27258e+89
-1.60654e+89
-1.16632e+89
-8.58991e+88
-6.3788e+88
-4.76425e+88
-3.57507e+88
-2.69505e+88
-2.04782e+88
-1.58257e+89
-1.6796e+89
-1.25197e+89
-8.96868e+88
-6.38962e+88
-4.65805e+88
-3.52098e+88
-2.7329e+88
-2.14147e+88
-1.68074e+88
-1.31931e+88
-1.03567e+88
-8.13111e+87
-6.38954e+87
-5.02593e+87
3.95089e+88
2.09618e+88
9.78957e+87
4.68289e+87
2.25728e+87
1.04819e+87
4.23281e+86
9.84977e+85
-6.50726e+85
-1.41753e+86
-1.71305e+86
-1.7511e+86
-1.65323e+86
-1.49332e+86
-1.29776e+86
8.09048e+87
5.19812e+87
3.02226e+87
1.85316e+87
1.196e+87
8.12308e+86
5.77924e+86
4.25158e+86
3.18687e+86
2.41101e+86
1.83321e+86
1.39842e+86
1.06936e+86
8.19622e+85
6.31511e+85
1.01685e+87
6.14102e+86
3.4536e+86
2.08986e+86
1.35002e+86
9.26141e+85
6.67525e+85
4.96893e+85
3.76817e+85
2.8846e+85
2.21773e+85
1.70903e+85
1.31896e+85
1.01952e+85
7.91194e+84
1.27716e+86
7.32989e+85
3.86307e+85
2.22752e+85
1.38484e+85
9.17351e+84
6.3995e+84
4.63309e+84
3.4251e+84
2.55736e+84
1.91946e+84
1.4451e+84
1.08977e+84
8.23558e+83
6.25796e+83
1.02951e+85
6.62579e+84
3.63664e+84
2.16868e+84
1.38136e+84
9.30625e+83
6.55553e+83
4.75886e+83
3.50679e+83
2.59895e+83
1.9304e+83
1.43512e+83
1.06748e+83
7.95393e+82
5.95529e+82
-4.57454e+83
-7.32559e+82
2.40327e+82
4.32109e+82
4.12509e+82
3.48869e+82
2.8324e+82
2.25301e+82
1.76211e+82
1.35916e+82
1.0375e+82
7.85773e+81
5.91876e+81
4.45059e+81
3.34844e+81
-2.29758e+83
-1.16756e+83
-5.42446e+82
-2.78158e+82
-1.55089e+82
-9.24929e+81
-5.82884e+81
-3.82938e+81
-2.58169e+81
-1.76547e+81
-1.21769e+81
-8.4564e+80
-5.91349e+80
-4.16634e+80
-2.98052e+80
-2.292e+82
-1.3686e+82
-7.16716e+81
-4.11861e+81
-2.55052e+81
-1.6745e+81
-1.14868e+81
-8.11452e+80
-5.81584e+80
-4.19024e+80
-3.02362e+80
-2.18397e+80
-1.58086e+80
-1.14986e+80
-8.45256e+79
-1.17896e+80
-2.34132e+80
-1.73593e+80
-1.25544e+80
-9.13514e+79
-6.75916e+79
-5.06965e+79
-3.82816e+79
-2.88667e+79
-2.16469e+79
-1.61359e+79
-1.19768e+79
-8.8791e+78
-6.60906e+78
-4.96124e+78
1.95732e+80
9.99725e+79
4.76494e+79
2.52031e+79
1.4532e+79
8.96475e+78
5.83139e+78
3.94367e+78
2.73204e+78
1.91746e+78
1.35592e+78
9.64459e+77
6.90135e+77
4.97475e+77
3.63922e+77
2.28742e+79
1.31178e+79
6.71568e+78
3.77612e+78
2.29395e+78
1.48023e+78