/*--------------------------------*- C++ -*----------------------------------*\
  =========                 |
  \\      /  F ield         | OpenFOAM: The Open Source CFD Toolbox
   \\    /   O peration     | Website:  https://openfoam.org
    \\  /    A nd           | Version:  7
     \\/     M anipulation  |
\*---------------------------------------------------------------------------*/
FoamFile
{
    version     2.0;
    format      ascii;
    class       volScalarField;
    location    "400";
    object      epsilon;
}
// * * * * * * * * * * * * * * * * * * * * * * * * * * * * * * * * * * * * * //

dimensions      [0 2 -3 0 0 0 0];

internalField   nonuniform List<scalar> 
32100
(
0.0125183
0.0129045
0.0125378
0.0125889
0.0125724
0.0125684
0.0126024
0.012692
0.0127473
0.0127962
0.0127158
0.0127544
0.0125419
0.0126602
6.69029e+14
0.0115803
0.0113811
0.0116979
0.0115835
0.0115517
0.0115367
0.0114962
0.0113724
0.0112976
0.0112367
0.0113445
0.0112799
0.0115265
0.0114134
6.58819e+14
0.00987333
0.0104396
0.0100772
0.0101978
0.0101532
0.0101403
0.0101309
0.0100814
0.0100542
0.0101124
0.01
0.0105628
0.0101299
0.0101804
6.51723e+14
0.00925286
0.00943257
0.00988225
0.00938736
0.00931061
0.00929416
0.00930545
0.00929545
0.00924831
0.00909705
0.00954106
0.00866752
0.0092372
0.0091815
6.46832e+14
0.00826483
0.00880055
0.0079458
0.00859084
0.00847488
0.00842838
0.00843677
0.00844684
0.00849225
0.00874244
0.00752731
0.00799181
0.00833131
0.00835688
6.43534e+14
0.00797204
0.00873676
0.0101912
0.00816568
0.00802489
0.00797308
0.00796914
0.00797467
0.00786277
0.00731947
0.00700102
0.00727822
0.00781001
0.00778534
6.41421e+14
0.00723644
0.00736974
0.00401954
0.00775005
0.0075833
0.00749981
0.00747371
0.00748772
0.00768758
0.00692378
0.00677466
0.00719545
0.00723399
0.00690167
6.40264e+14
0.00734613
0.00939462
0.0166108
0.00739064
0.00723929
0.0072135
0.00719307
0.00720874
0.00677813
0.00663433
0.00631038
0.00682088
0.00719177
0.00633833
6.39912e+14
0.00658788
0.0043269
0.00410948
0.00733215
0.00715687
0.00702182
0.00699843
0.00699784
0.00662555
0.00651513
0.00731095
0.00892378
0.00645793
0.0157499
6.40159e+14
0.00734815
0.0142839
0.0536523
0.00678126
0.00673309
0.0069303
0.00694279
0.00701279
0.00672165
0.00669499
0.00889157
0.0115286
0.0345257
0.129826
6.40927e+14
0.0233822
0.855851
7.54556
0.313063
0.0129615
0.00648969
0.00558957
0.00697399
0.0072542
0.00811559
0.0157177
0.0223568
0.0450991
0.71482
6.45962e+14
0.00562912
0.246817
4.46059
0.241577
0.164551
0.0109455
0.0147324
0.0110282
0.0121719
0.0561053
0.839303
2.77417
0.364613
6.29198
6.63108e+14
0.362772
5.89043
77.3775
7.79209
6.1056
0.103841
0.183807
0.120973
0.094281
0.280207
1.1935
6.86906
1.90429
71.8791
8.52354e+14
36.6077
86.017
133.773
73.5177
82.6602
16.0447
10.4266
19.2184
8.29952
3.25082
9.86637
59.7912
184.494
87.6961
1.99543e+15
48.8428
107.069
155.429
69.6794
80.2995
11.1838
8.53449
12.8862
16.0247
16.2671
3.94141
27.9118
397.837
102.408
3.02558e+15
44.8384
112.95
303.486
84.6883
82.5874
9.90303
14.2853
18.6873
10.2249
21.4125
3.35508
9.10002
535.942
145.336
3.88791e+15
76.804
25.9348
43.1702
18.0923
8.09885
5.01138
4.83868
8.84215
5.21909
27.0583
2.89501
14.5359
644.221
108.487
4.50322e+15
130.435
28.579
68.3743
10.4301
12.4273
6.54832
8.99858
2.54371
3.33548
31.6304
4.16356
5.96205
1032.5
181.48
5.01694e+15
153.714
26.4179
49.1295
17.7804
13.2618
8.97551
17.0783
10.3617
5.43767
56.1162
7.60864
94.5498
1246.61
223.438
5.6208e+15
246.186
54.3046
79.8446
21.0381
19.9673
17.1183
32.2603
20.5302
11.1197
125.369
12.1233
11.8968
1477.73
308.208
6.27921e+15
409.785
114.943
91.6229
25.2091
34.4312
25.8486
64.2139
42.9813
23.8467
280.094
24.7212
20.4803
1796.48
442.802
7.0373e+15
916.341
261.142
101.145
28.5301
60.1383
42.8276
106.32
69.5922
50.1057
638.674
48.8453
49.3892
2193.19
686.935
8.0107e+15
2016.5
620.878
152.586
50.4235
112.538
121.084
129.827
84.3741
106.26
1445.85
112.107
104.107
2696.98
1181.91
9.34661e+15
4517.41
1479.75
179.63
56.7735
205.581
246.911
162.243
126.546
213.627
2987.02
208.959
217.481
3378.17
2289.83
1.12069e+16
9219
3543.62
345.549
96.4928
372.694
511.258
216.389
121.654
428.531
6142.42
355.951
453.981
4439.57
4982.17
1.37784e+16
15845.8
8169.45
666.598
128.279
643.997
853.705
288.135
126.019
726.155
10504.6
624.015
759.409
7364.88
11860.4
1.72352e+16
21629.1
17143.3
1245.13
175.346
1202.37
1531.63
459.201
200.02
952.224
12438.5
918.036
832.248
16352.2
29330.9
2.18004e+16
31996.7
31094.8
1995.04
173.557
2142.46
2127.2
589.669
278.378
917.958
14912.2
2161.17
1656.81
36445.8
70835.1
2.82118e+16
49380.9
53698.3
3222.18
240.111
3484.1
3437.49
922.166
542.599
2087.73
18635
4986.18
3068.02
81257.4
151902
3.79416e+16
88296.5
99098.4
9753.8
514.299
4251.71
5063.4
1536.87
1105.71
3915.05
24037.7
11289.1
4779.83
181423
266927
5.20843e+16
176669
201645
27015.2
876.116
5147.07
7399.99
2172.16
3280.07
10958.8
31873
22851.7
11415.2
393872
491781
7.26979e+16
323986
387289
32426
2474.03
9136.13
10675.6
3527.01
6451.76
21210.2
42849.5
46334
47512.9
827547
838716
1.03711e+17
511006
565314
13140.2
8697.4
16000.4
14930.6
5657.1
10363.3
32933
70304
116156
157789
1.71102e+06
1.41598e+06
1.47671e+17
768452
814647
5752.74
25675.6
30800.5
21092.7
11583.5
19844.1
61111.3
145028
289872
330227
3.57228e+06
2.39894e+06
2.06923e+17
911025
975273
32222.8
45239.2
61966.4
33316
71244.1
24121
77905.9
259216
726676
649031
7.2917e+06
4.01749e+06
2.84176e+17
1.07898e+06
1.25329e+06
40792.6
52427.3
123794
90016.2
234052
32214.3
130459
424891
1.60727e+06
1.08411e+06
1.46902e+07
6.5995e+06
3.82679e+17
1.32832e+06
1.78102e+06
56149.1
29001
235539
217305
483742
46422.3
217776
727180
2.56533e+06
1.79646e+06
2.93572e+07
1.06727e+07
5.06743e+17
1.54697e+06
1.62559e+06
52436.1
41678.5
524196
771807
1.03255e+06
79835.9
418771
2.05766e+06
5.40847e+06
3.59775e+06
5.80452e+07
1.7017e+07
6.62782e+17
1.97762e+06
1.0868e+06
11042.9
93837.8
1.62189e+06
1.50299e+06
2.28238e+06
247995
676466
5.54954e+06
9.97276e+06
8.65003e+06
1.15431e+08
2.61797e+07
8.55862e+17
2.6896e+06
1.21929e+06
48185
541904
3.38667e+06
3.87467e+06
5.09189e+06
2.06608e+06
1.08205e+06
1.07902e+07
1.63777e+07
2.45683e+07
2.32199e+08
3.71388e+07
1.07993e+18
6.06174e+06
3.40916e+06
198573
2.08229e+06
5.97511e+06
7.27081e+06
1.13771e+07
9.73466e+06
1.5211e+06
1.41274e+07
3.14947e+07
8.59554e+07
6.36055e+08
4.31926e+07
1.30356e+18
1.42305e+07
8.57246e+06
1.19588e+06
7.87516e+06
9.70975e+06
1.35319e+07
2.42714e+07
3.8433e+07
1.14636e+06
1.4554e+07
7.28013e+07
6.37702e+08
9.41202e+08
3.19058e+07
1.45943e+18
2.67893e+07
2.25564e+07
5.78474e+06
1.44895e+07
1.62081e+07
2.10849e+07
4.08695e+07
7.48737e+07
9.96894e+07
9.87599e+06
1.26563e+08
1.2361e+09
2.03385e+09
5.74154e+07
1.58718e+18
4.73951e+07
4.7861e+07
1.3361e+07
2.35278e+07
2.65592e+07
2.99474e+07
6.0747e+07
9.90473e+07
1.09934e+08
3.07455e+08
1.26906e+07
2.2831e+09
7.49176e+09
1.95486e+08
1.7247e+18
6.9599e+07
7.50245e+07
1.9589e+07
3.69363e+07
3.53832e+07
3.33482e+07
8.43753e+07
5.96599e+08
2.03703e+08
3.91475e+08
5.28773e+08
3.78128e+09
4.38054e+10
7.60617e+10
1.81994e+18
6.46757e+07
7.04083e+07
2.84738e+07
5.29367e+07
5.10906e+07
3.03887e+07
8.39276e+07
1.08066e+08
6.09659e+08
6.7724e+08
2.18488e+09
1.38042e+10
1.16484e+11
1.61869e+12
1.20401e+19
8.99704e+07
1.02515e+08
1.54198e+07
4.10382e+07
6.6989e+07
2.55544e+07
7.85219e+07
8.94825e+07
3.05069e+08
1.18848e+09
8.79166e+08
1.21783e+10
2.3722e+11
6.9106e+12
2.00614e+19
1.11748e+08
9.18701e+07
3.70776e+07
8.99658e+07
9.86129e+07
4.48829e+07
1.70939e+08
5.77523e+07
3.86854e+07
1.86045e+08
9.32198e+08
1.29141e+10
3.46958e+11
2.83446e+13
2.48513e+19
1.71572e+08
1.43765e+08
4.02794e+07
1.39201e+08
1.75184e+08
5.6637e+07
2.99366e+08
1.02445e+08
5.75239e+07
1.28515e+07
2.00836e+09
2.78226e+10
4.28466e+11
1.03193e+14
2.70156e+19
2.79964e+08
2.21386e+08
2.97303e+07
2.08581e+08
1.84975e+08
4.85896e+07
2.63487e+08
1.0577e+08
1.24963e+07
3.11693e+08
4.42403e+09
6.1288e+10
5.07681e+11
2.9846e+14
2.78794e+19
4.99192e+08
3.92599e+08
1.25873e+07
3.00275e+08
2.31106e+08
3.43709e+07
8.33745e+07
7.47647e+07
3.09984e+06
116832
8.9144e+09
1.23496e+11
5.94588e+11
7.76452e+14
2.82527e+19
9.23694e+08
8.0986e+08
1.49015e+08
3.97161e+08
2.50401e+08
3.42827e+07
1.45924e+08
7.46112e+07
6.21313e+06
157462
1.69199e+10
2.34399e+11
7.0972e+11
2.51556e+15
2.83872e+19
1.4413e+09
1.26725e+09
2.07851e+08
4.35709e+08
2.81046e+08
1.4533e+07
1.13947e+08
1.52446e+07
1.20713e+07
755303
3.36119e+10
4.65644e+11
8.53898e+11
8.41646e+15
2.83286e+19
1.65641e+09
1.01556e+09
3.83893e+08
3.46087e+08
3.34456e+07
1.87748e+07
1.97018e+08
6.08641e+07
2.36204e+07
1.51626e+06
6.77637e+10
9.38766e+11
1.80404e+12
2.09236e+16
2.81138e+19
1.84078e+09
1.84156e+09
9.71129e+08
5.43302e+08
2.66143e+08
1.67554e+07
1.58674e+08
1.15777e+08
4.65609e+07
2.9906e+06
1.44987e+11
2.00858e+12
5.62426e+12
2.45062e+16
2.90543e+19
2.99135e+09
3.0859e+09
1.84937e+09
9.44373e+08
6.04251e+08
2.65339e+07
6.33325e+06
2.34132e+08
9.24283e+07
3.45974e+10
4.9303e+11
6.8302e+12
2.52546e+15
2.91266e+16
7.96878e+19
4.98387e+09
4.00309e+09
4.267e+09
1.84391e+09
1.50956e+09
4.59112e+07
1.08846e+08
4.77321e+08
1.84291e+08
3.46512e+11
4.93871e+12
6.84185e+13
1.39724e+16
6.47923e+16
1.68946e+20
1.30952e+10
7.51495e+09
6.3899e+09
4.32866e+09
3.77732e+09
7.89408e+07
2.03756e+08
9.7668e+08
3.69007e+08
4.18292e+11
5.96161e+12
1.88289e+15
2.51855e+16
7.69307e+16
2.80413e+20
3.81694e+10
1.77572e+10
1.29587e+10
1.00195e+10
9.42662e+09
1.332e+08
3.77242e+08
2.00283e+09
7.44578e+08
4.69306e+11
6.68837e+12
1.07325e+14
2.32083e+16
8.99497e+16
4.02734e+20
9.47719e+10
4.84157e+10
2.97543e+10
2.32098e+10
2.33553e+10
2.20445e+08
6.61444e+08
4.06689e+09
1.52471e+09
6.18511e+11
8.81078e+12
1.22015e+14
2.16259e+16
1.04702e+17
5.28053e+20
1.79499e+11
1.39989e+11
5.17911e+10
5.35548e+10
5.74604e+10
3.63261e+08
1.1705e+09
8.3099e+09
3.17549e+09
2.44888e+09
5.70908e+13
7.7747e+14
2.00881e+16
8.16373e+16
6.70946e+20
2.90969e+11
3.25875e+11
1.66846e+11
1.19038e+11
1.40231e+11
6.82801e+08
2.26433e+09
1.73011e+10
6.74108e+09
5.01169e+06
5.46864e+11
7.57811e+14
3.36302e+16
6.67118e+16
8.80226e+20
4.09124e+11
5.41251e+11
5.15702e+11
2.47786e+11
3.38809e+11
1.71046e+09
4.56316e+09
3.66011e+10
1.4551e+10
5.94562e+11
9.28074e+12
1.56078e+15
9.2761e+16
7.7601e+16
1.16304e+21
5.41199e+11
7.99371e+11
2.22179e+12
4.07214e+11
8.10215e+11
5.18985e+09
1.13237e+10
8.04429e+10
4.67704e+10
1.59576e+14
4.51246e+14
1.33353e+16
1.36424e+17
1.11643e+17
1.54925e+21
7.15391e+11
1.01713e+12
3.29653e+12
1.11865e+12
1.91184e+12
4.82019e+10
2.45582e+11
6.74475e+11
3.1439e+12
3.28467e+15
1.21099e+16
1.43297e+17
2.1235e+17
1.57853e+17
2.00444e+21
9.33037e+11
1.26824e+12
6.15791e+12
8.83816e+12
1.1028e+13
1.97758e+12
2.36497e+13
4.89951e+12
1.06244e+14
8.07013e+15
1.30443e+17
2.00143e+17
3.04172e+17
2.08783e+17
2.46009e+21
1.10798e+12
1.40161e+12
1.72223e+12
1.78323e+13
2.37113e+13
3.71748e+13
1.91113e+14
1.94698e+14
5.71034e+15
1.01388e+17
1.58048e+17
2.38579e+17
4.05095e+17
3.22467e+17
2.89365e+21
1.70521e+12
2.23983e+12
4.29411e+12
3.5359e+13
4.68525e+13
1.27301e+14
4.14184e+14
1.53309e+15
6.72318e+16
1.05115e+17
1.56002e+17
2.73797e+17
5.61675e+17
7.19306e+17
3.36524e+21
2.63438e+12
3.24842e+12
7.2637e+12
6.56058e+13
8.32872e+13
2.52976e+14
8.66444e+14
2.48241e+16
5.24589e+16
8.41696e+16
1.46808e+17
3.27215e+17
9.22732e+17
2.12781e+18
4.02593e+21
3.36688e+12
4.30118e+12
9.04857e+12
9.99306e+13
1.39795e+14
4.66282e+14
1.2007e+16
2.30829e+16
3.76053e+16
6.31405e+16
1.3584e+17
4.012e+17
1.62061e+18
6.36917e+18
5.03982e+21
3.86452e+12
5.81296e+12
1.28301e+13
1.24944e+14
2.29477e+14
6.97875e+15
1.04701e+16
1.64773e+16
2.84738e+16
5.00795e+16
1.23936e+17
4.57587e+17
2.32492e+18
1.38664e+19
6.06864e+21
4.20191e+12
7.98308e+12
2.52708e+13
1.10118e+14
2.41088e+15
5.39186e+15
7.13566e+15
9.59456e+15
1.76764e+16
3.80285e+16
1.10017e+17
4.67049e+17
2.27353e+18
1.52153e+19
6.32696e+21
3.93506e+12
9.56503e+12
5.99372e+13
1.2828e+15
1.48278e+15
2.21942e+15
2.9078e+15
4.3781e+15
9.49117e+15
2.65393e+16
9.1461e+16
4.55501e+17
3.3109e+18
9.08237e+18
6.16483e+21
2.54841e+12
6.0116e+12
3.20067e+13
2.3421e+14
6.34853e+14
8.45387e+14
1.10401e+15
1.82148e+15
4.44984e+15
1.48936e+16
5.60799e+16
3.06249e+17
2.40418e+18
2.10146e+19
5.17686e+21
1.22192e+12
2.71283e+12
1.38127e+13
1.09399e+14
1.16545e+14
1.39056e+14
1.81644e+14
3.77682e+14
1.16839e+15
4.66609e+15
1.82172e+16
1.15927e+17
1.08e+18
8.0101e+18
4.44995e+21
1.11984e+12
2.45229e+12
8.31613e+12
2.37811e+13
2.95389e+13
3.54674e+13
4.98969e+13
1.05052e+14
3.47686e+14
1.47479e+15
7.08762e+15
3.73211e+16
3.01022e+17
2.00409e+18
4.85708e+21
5.18478e+11
1.07176e+12
3.304e+12
7.55815e+12
1.04142e+13
1.34923e+13
2.15005e+13
5.03126e+13
1.65878e+14
6.85921e+14
3.56761e+15
1.65997e+16
1.32315e+17
1.37519e+18
6.24947e+21
3.94421e+11
6.57254e+11
1.58854e+12
3.40566e+12
5.00447e+12
6.57763e+12
1.07364e+13
2.71716e+13
9.36494e+13
4.00142e+14
2.38532e+15
1.70224e+16
1.46574e+17
1.03601e+18
9.37793e+21
3.99044e+11
5.79612e+11
1.1468e+12
2.20921e+12
3.37557e+12
4.62474e+12
7.84665e+12
2.14913e+13
7.59406e+13
3.17848e+14
1.85315e+15
1.19492e+16
9.52622e+16
4.91166e+17
1.26939e+22
4.39914e+11
5.95328e+11
1.02383e+12
1.84005e+12
3.1554e+12
4.59826e+12
8.02675e+12
2.32744e+13
8.38134e+13
3.15757e+14
1.65635e+15
1.099e+16
7.86837e+16
4.19359e+17
1.96241e+22
4.3513e+11
5.22893e+11
8.4306e+11
1.55594e+12
2.96134e+12
5.31953e+12
1.12883e+13
5.28505e+13
2.6872e+14
1.19724e+15
4.73026e+15
2.40146e+16
1.52734e+17
1.3548e+17
2.05187e+18
2.67977e+11
3.05212e+11
5.27234e+11
1.02839e+12
2.18266e+12
5.06582e+12
1.33867e+13
4.84497e+13
4.72837e+14
1.89627e+15
4.42713e+15
1.53991e+16
4.97138e+16
7.665e+16
1.21916e+17
3.94875e+09
4.34104e+09
6.67382e+09
1.12541e+10
2.07294e+10
4.37294e+10
1.31488e+11
6.12371e+11
2.29671e+12
1.09456e+13
9.07655e+13
1.45021e+15
3.15202e+15
6.11716e+15
9.90619e+15
1.88329e+08
2.0096e+08
2.60659e+08
3.56962e+08
5.19921e+08
9.07168e+08
1.72394e+09
3.94411e+09
1.2055e+10
4.47363e+10
1.43186e+11
7.93019e+11
5.36923e+13
1.278e+14
2.10739e+14
5.98547e+07
5.75418e+07
5.13439e+07
4.80427e+07
5.24254e+07
7.37491e+07
1.32242e+08
2.84122e+08
7.193e+08
2.21798e+09
7.66667e+09
2.65014e+10
1.76961e+11
7.01696e+11
1.17885e+12
3.69775e+07
3.653e+07
4.11403e+07
4.97338e+07
6.57391e+07
1.03735e+08
1.8252e+08
3.70408e+08
9.40378e+08
2.95669e+09
1.19649e+10
3.90225e+10
5.5201e+10
6.84374e+10
7.50444e+10
6.69602e+07
7.26559e+07
1.03081e+08
1.71604e+08
3.13061e+08
6.25747e+08
9.53352e+08
1.41229e+09
2.50742e+09
6.268e+09
2.85995e+10
1.70469e+11
2.35752e+11
3.01375e+11
3.75165e+11
1.09316e+08
1.26394e+08
2.12974e+08
4.08711e+08
8.55719e+08
1.74423e+09
3.17189e+09
4.43234e+09
7.76166e+09
2.21495e+10
2.10899e+11
1.02984e+12
2.68481e+12
4.21901e+12
5.94006e+12
2.68713e+07
3.00452e+07
4.71014e+07
8.5277e+07
1.67739e+08
3.52676e+08
8.69479e+08
2.46737e+09
1.62007e+10
1.92494e+11
1.35363e+12
1.11571e+13
1.29947e+13
1.68702e+13
2.25632e+13
7.69685e+07
8.89864e+07
1.23708e+08
2.08333e+08
4.21564e+08
9.93341e+08
2.77014e+09
1.20448e+10
1.41278e+11
6.92102e+11
3.41847e+12
6.22878e+12
8.41801e+12
9.75484e+12
1.24865e+13
2.59831e+07
2.24904e+07
2.78079e+07
4.09618e+07
7.69434e+07
1.72399e+08
3.82554e+08
1.17138e+09
5.13075e+09
1.25438e+11
6.63078e+11
1.36529e+12
1.58535e+12
2.14319e+12
3.04015e+12
3.42429e+07
1.57618e+07
1.54148e+07
1.18588e+08
2.37358e+08
3.13122e+08
6.02581e+08
2.06434e+09
1.22357e+10
2.36744e+10
5.73106e+10
9.82135e+10
1.56466e+11
2.69985e+11
4.40727e+11
1.43478e+07
1.53215e+07
2.08965e+07
2.76159e+07
3.52466e+07
5.38972e+07
1.05885e+08
2.12711e+08
4.16092e+08
7.94433e+08
1.56766e+09
3.15266e+09
6.22418e+09
1.1209e+10
1.72659e+10
1.44725e+06
1.54923e+06
2.0226e+06
2.47278e+06
2.86988e+06
3.45621e+06
4.95293e+06
8.28229e+06
1.48782e+07
2.81362e+07
5.47567e+07
1.06795e+08
2.07204e+08
3.87346e+08
6.36508e+08
358521
382246
352274
424734
419611
424504
430628
527998
723887
1.09463e+06
1.89418e+06
3.68604e+06
7.516e+06
1.45769e+07
2.36177e+07
201741
175987
141762
132037
138700
132762
116655
116805
156188
238108
285151
359861
550054
913575
1.20872e+06
244519
218632
167036
107715
94531
80877.6
74795.4
68114.1
66289.6
73454.5
92281.4
125109
150474
145316
96244.1
85790.6
81317.8
83530.9
84395.6
78647.8
62115.8
53712
41391.7
34065.5
32389.6
34555.5
39462.6
44079.9
41786.8
24606.6
96248.5
89485.6
80835
78022.7
74205.2
53302.9
35739.5
27390
25884.2
22239.1
19849
18914.5
17367.7
12924.1
7934.25
35422.9
32831.4
31575.3
33042.7
37833.4
43005.8
42343.3
35193.3
30347.9
22717.7
18944.2
17251
16395.6
13502.2
7970.64
45237.1
40830.9
32731.9
29349.2
30609.8
33630.3
37349.6
40572.6
42999.1
36413
29146.2
25296.1
23131.8
16952.3
10691.4
20010.2
18588.9
18121
20277.3
21842.3
22207.1
23919.5
29367.2
44975.4
70335.5
48723.6
33444.6
26644.9
18912.8
11665.7
24283.8
22323.1
19664.2
19579.6
22905.8
21142.3
19723.9
21773.5
31162
59368.2
123752
99670.8
67132.8
43250.8
23518
10017.9
9224.16
9018.12
10045.7
11598.2
12344.3
12310.2
13158.6
16137
27331.5
59976.3
94795
117048
136842
142788
11665.9
10827.1
10692
12109
14985
15493.8
14542.4
13302.2
13602.3
16145.4
22683.7
28448.7
35327.5
47842.2
67977.9
12645.2
11758.1
11732.3
12317.2
12004.6
12953.5
12957
11850.1
11572.6
12583.5
14889.7
15152.9
14893.4
15641.3
17754
8716.57
8314.54
9322.37
10573.8
10351
9995.68
10844.7
15990
24222
23664.1
19289.2
15375.8
13292
12714.8
12414.8
11188.3
9872.82
8059.02
7119.53
7036.64
8498.7
11904
21802.5
30273.2
26557.4
18780.9
14211
11501.2
9999.28
9024.04
4745.47
4360.28
4510.42
5039.14
6294.88
8153
10656.4
13936.8
21109.8
22673.7
19381.8
15164.6
11679.6
9646.88
8217.33
4604.92
3752.44
3191.24
3215.71
3944.62
5721.67
9998.67
18106.5
24454.8
19987.8
14890.5
12885.5
12062.9
10889.7
9628.67
2613.23
2104.18
1906.01
1994.16
2477.8
3336.63
4788.14
8704.35
15995.6
13749.9
11687.6
10431.9
8964.28
7508.13
5882.57
1508.52
1210.55
1132.74
1239.71
1616.53
2267.91
3051.48
4734.87
10026.5
12397.1
11433.1
9007.15
6571.55
4997.03
3779.93
803.565
693.651
733.865
882.221
1288.38
2139.76
3083.24
4388.42
7947.48
9168.66
8362.21
7465.91
6477.24
5361.53
4254.72
697.295
593.534
639.268
863.174
1549.86
3652.51
7063.01
8613.85
7225.19
6231.42
5743.36
5810.37
5243.08
4057.44
3115.1
567.31
462.544
491.013
683.51
1281.2
3026.68
5553.47
7274.05
6763.14
5270.95
4247.92
3447.08
2694.62
2156.8
1721.66
390.007
294.526
300.502
402.887
726.903
1677.59
3570.32
6224.98
5478
4404.52
3674.81
2610.81
1801.82
1324.52
986.61
301.517
242.67
253.993
348.047
637.018
1637.94
3899.09
5349.13
4267.75
3420.19
2702.15
1769.84
1197.2
866.052
661.872
278.127
234.742
256.896
369.639
727.384
2124.86
5655.97
5034.32
4203.29
3403.23
2468.57
1651.01
1250.99
1017.28
837.998
239.12
188.196
196.147
267.118
480.458
1285.31
5204.67
5442.27
4381.73
3337.8
2270.13
1340.66
955.618
740.428
587.782
367.791
297.268
309.05
421.12
781.493
2131.38
4508.84
4210.16
3781.12
2736.1
1549.23
986.906
750.352
594.92
475.388
468.853
365.824
366.087
471.331
787.232
1783.96
2941.23
2451.6
2009.59
1448.19
926.957
659.322
524.05
429.733
353.103
938.327
883.124
927.573
1118.06
1763.7
2119.99
1705.82
1402.24
1215.76
985.554
696.012
521.339
414.567
339.183
280.113
928.885
875.419
958.341
997.398
1026.88
1172.05
1272.54
1111.08
742.678
618.492
407.797
326.983
282.304
250.315
217.638
1057.13
1009.06
1099.92
1170.42
1079.89
993.176
954.196
856.136
564.864
367.894
268.675
223.16
201.717
180.957
157.854
790.501
754.976
817.51
852.383
680.5
568.544
492.468
425.226
331.863
236.119
177.322
151.426
138.972
129.484
119.482
631.209
574.736
542.785
508.144
428.282
365.597
317.978
289.497
232.521
175.472
140.511
120.94
112.235
104.78
97.607
511.173
485.262
512.429
506.944
426.205
373.439
317.046
243.714
169.743
124.544
99.1149
84.4507
76.1636
70.4072
65.6502
403.016
371.525
324.112
274.948
246.806
234.187
225.041
185.107
125.892
88.8257
72.1402
62.6205
56.8301
52.3589
48.305
258.153
228.472
213.119
196.085
187.2
184.165
189.505
173.287
94.9341
66.8902
56.2124
50.3309
46.3013
43.2718
40.8065
242.652
221.658
197.174
175.97
156.83
140.517
132.436
113.68
60.4061
46.3448
40.9947
37.8557
36.0843
34.7324
33.5054
214.351
199.621
190.815
179.934
173.086
163.622
138.913
82.0097
46.4407
33.106
29.1971
27.5305
26.8871
26.3418
25.2984
185.131
174.383
164.68
142.528
120.811
105.65
87.9339
49.479
29.0574
22.8707
21.1209
20.4351
20.1093
19.3515
17.8025
147.963
137.553
139.486
115.132
93.7217
81.2897
63.2078
33.1377
20.7275
16.5809
15.4591
15.2341
15.4869
15.3642
14.5696
122.833
109.871
103.894
93.5915
84.3678
74.0086
36.1073
18.3366
12.86
11.3878
10.8897
10.9902
11.4633
11.7218
11.4261
59.6194
57.9786
65.1808
59.8731
52.3074
44.0608
29.9973
15.9056
11.1025
9.49754
8.70534
8.5755
8.79762
9.0881
9.05827
46.3367
46.8776
58.5677
54.1817
46.4624
37.4883
17.9786
11.4877
8.56459
7.2865
6.51454
6.3848
6.56582
6.81021
6.84795
40.5228
37.1422
42.1532
43.7678
39.9941
23.3146
12.0399
8.10884
6.93211
6.01065
5.6099
5.48886
5.53347
5.58742
5.53479
158.448
118.954
65.8932
41.0087
27.0455
13.1469
6.75896
5.72905
5.43884
5.05324
4.86856
4.84597
4.88802
4.87199
4.76259
27.9492
20.2813
15.0628
11.5463
9.5956
8.24789
5.36048
4.22277
3.94228
3.81763
3.7698
3.77811
3.78402
3.77814
3.69208
12.093
9.41028
7.30906
5.92635
5.17901
4.31298
3.9586
3.5059
3.38757
3.29502
3.28853
3.34131
3.36859
3.33379
3.21076
9.13303
7.72385
5.98248
4.69085
3.80324
3.19264
3.57083
2.96355
3.00365
3.08403
3.15125
3.22123
3.17855
3.07336
2.81391
6.82595
6.03561
4.80596
3.96002
3.42335
2.89427
1.70656
1.6058
1.76991
1.86785
2.02528
2.24056
2.26897
2.15769
1.81872
5.30539
4.75737
3.80872
3.08447
2.5234
1.88913
1.35081
1.12576
1.11856
1.16627
1.22918
1.26911
1.27371
1.22907
0.945965
4.50614
4.05883
3.25637
2.62474
2.205
1.69501
1.06329
0.857858
0.819319
0.827306
0.839321
0.829754
0.819216
0.739635
0.529846
3.93885
3.55596
2.81491
2.15983
1.66357
1.2563
0.936174
0.736257
0.650939
0.627744
0.62933
0.607203
0.584508
0.506504
0.33317
3.54888
3.23619
2.62705
2.09572
1.66588
1.25729
0.765766
0.539114
0.459179
0.436471
0.423857
0.414267
0.404045
0.348893
0.237196
3.26459
2.98723
2.4295
1.92026
1.50255
1.10461
0.761272
0.534281
0.432278
0.389409
0.353761
0.331037
0.306675
0.259339
0.193544
3.12657
2.86367
2.33931
1.85399
1.44938
1.07094
0.695826
0.477805
0.372786
0.329275
0.29484
0.28203
0.253377
0.215556
0.165433
3.22123
2.94651
2.39804
1.8805
1.4046
0.952683
0.618427
0.426918
0.331141
0.271096
0.238472
0.229034
0.214533
0.187139
0.148029
3.47926
3.19534
2.62163
2.08728
1.56099
1.03055
0.636095
0.415696
0.290197
0.231312
0.202724
0.191565
0.185341
0.167775
0.137787
3.60098
3.32136
2.75553
2.24028
1.71957
1.121
0.653815
0.394811
0.262628
0.200659
0.17566
0.1708
0.157239
0.151694
0.130007
3.65889
3.38542
2.8148
2.24524
1.63976
1.05002
0.623608
0.382199
0.247849
0.179779
0.151275
0.144982
0.140673
0.137795
0.1232
3.64993
3.39265
2.84438
2.28317
1.62637
0.987699
0.556609
0.345708
0.242415
0.18279
0.14462
0.130235
0.125947
0.121636
0.109468
3.42963
3.15177
2.52247
1.89159
1.31506
0.820703
0.494794
0.323309
0.234025
0.166967
0.138004
0.125206
0.117501
0.108074
0.0962621
3.2969
3.02718
2.36345
1.7123
1.15826
0.727087
0.450384
0.295929
0.216465
0.164517
0.151235
0.131054
0.117174
0.0977415
0.0856347
2.737
2.48083
1.91796
1.38767
0.953709
0.626227
0.406202
0.271759
0.188365
0.149027
0.144432
0.128615
0.113572
0.0928303
0.0824731
2.64723
2.40727
1.81645
1.27098
0.832442
0.524725
0.340961
0.233993
0.170577
0.127044
0.107314
0.101119
0.0948891
0.0876139
0.0799419
1.97074
1.76773
1.33385
0.941098
0.630643
0.415253
0.286927
0.209068
0.154811
0.117215
0.104847
0.0975497
0.0874773
0.082148
0.0765079
1.6019
1.44442
1.08842
0.761724
0.513172
0.348712
0.250167
0.187453
0.140377
0.107709
0.0888961
0.0805998
0.0765114
0.074738
0.069286
1.23942
1.1201
0.853882
0.607016
0.420277
0.294929
0.216993
0.167515
0.129587
0.10177
0.0835174
0.074349
0.0700789
0.0667474
0.0602478
0.994544
0.900761
0.690489
0.498525
0.356564
0.260355
0.197521
0.156726
0.127399
0.106155
0.0861308
0.0729019
0.0663069
0.0620555
0.0574104
0.864845
0.79487
0.6314
0.471062
0.3419
0.248377
0.186383
0.147602
0.121288
0.101846
0.0816833
0.0669113
0.0613395
0.0575937
0.0532585
0.704049
0.648885
0.525741
0.405287
0.307558
0.232122
0.174847
0.13233
0.101687
0.0804814
0.068777
0.0610714
0.0561841
0.0529706
0.0484748
0.614534
0.571487
0.471724
0.367265
0.276805
0.206218
0.154012
0.116362
0.0906083
0.0735045
0.0636375
0.0555992
0.0514086
0.0482003
0.0444233
0.526853
0.491607
0.411157
0.326108
0.251462
0.189223
0.139692
0.103726
0.0795133
0.0644884
0.0559081
0.0508281
0.0469834
0.0445633
0.0411107
0.448996
0.41954
0.351663
0.277275
0.21004
0.156223
0.117226
0.090645
0.0729896
0.0617131
0.0541551
0.047919
0.0442486
0.0413526
0.0381849
0.377679
0.353377
0.297685
0.236317
0.181524
0.137808
0.105007
0.0814862
0.0649166
0.0534616
0.0470655
0.0432199
0.0406421
0.0383374
0.0353173
0.313336
0.29343
0.248517
0.198648
0.153389
0.116908
0.0900124
0.0713705
0.058738
0.0497073
0.0437094
0.0399285
0.0373457
0.0350772
0.0324826
0.259989
0.243941
0.208504
0.169025
0.133071
0.103803
0.0815981
0.0653839
0.0534807
0.0445416
0.038862
0.0360461
0.0345234
0.0325258
0.0300039
0.217602
0.204541
0.176007
0.143717
0.113742
0.089077
0.0704999
0.0571986
0.047679
0.0406797
0.0361421
0.0335693
0.0317935
0.0300305
0.0276899
0.18249
0.171806
0.149008
0.123096
0.0988214
0.0784827
0.0628117
0.0513382
0.0430766
0.036944
0.0329949
0.0308537
0.0294214
0.0277969
0.025779
0.154105
0.145268
0.126812
0.105789
0.0859974
0.0692592
0.0561213
0.046324
0.0392131
0.0340079
0.0306877
0.0287099
0.0273157
0.0262619
0.024455
0.131083
0.123652
0.108404
0.0910815
0.074828
0.0610967
0.0502568
0.0420066
0.0358248
0.031214
0.0282283
0.0266241
0.0254783
0.0244421
0.0229788
0.112142
0.105789
0.0929435
0.0784078
0.0648358
0.0534181
0.0444584
0.0377406
0.0328159
0.0291656
0.0266485
0.0249595
0.0237482
0.022828
0.0214984
0.0961289
0.0906517
0.0797369
0.0674372
0.0560009
0.0464059
0.0388869
0.0332747
0.0292293
0.0263276
0.0243307
0.0229504
0.0219117
0.0210892
0.0199179
0.082541
0.0778148
0.0685795
0.0582491
0.0487086
0.0407392
0.0345019
0.0298473
0.0264962
0.0241328
0.0224673
0.0212858
0.0203765
0.0196482
0.0186137
0.070892
0.0668222
0.0590558
0.0504312
0.042518
0.0359432
0.0308148
0.0269981
0.0242568
0.0223452
0.020978
0.0200048
0.0191995
0.0184441
0.0173896
0.0615063
0.0579845
0.0513893
0.0441163
0.0374979
0.0320467
0.0278328
0.0247281
0.0225122
0.0209692
0.0198286
0.0189711
0.018196
0.0174005
0.0164175
0.053548
0.050479
0.0448458
0.0386695
0.0330892
0.0285379
0.0250607
0.0225373
0.0207593
0.0195362
0.0186161
0.0178702
0.0171535
0.0164027
0.015519
0.0472168
0.0445248
0.0396494
0.0343495
0.0296168
0.0258096
0.0229436
0.020898
0.0194728
0.0184988
0.0177499
0.0171149
0.0164539
0.0157556
0.014941
0.0411828
0.038844
0.0347131
0.0302647
0.0263403
0.0232269
0.0209123
0.019281
0.0181467
0.0173666
0.0167435
0.0161979
0.0156173
0.014988
0.0142457
0.0360502
0.0340366
0.0305814
0.0268871
0.023662
0.0211329
0.0192688
0.017962
0.0170425
0.0163951
0.0158528
0.0153646
0.0148368
0.0142715
0.0136085
0.0314469
0.0297104
0.0268076
0.0237232
0.0210572
0.0189959
0.0175016
0.0164772
0.0157554
0.015232
0.0147705
0.0143412
0.0138645
0.0133528
0.0127542
0.0278275
0.0263224
0.0238707
0.0212879
0.0190841
0.0174075
0.0162111
0.0154051
0.0148346
0.0144141
0.0140221
0.0136453
0.0132139
0.0127521
0.012212
0.0246377
0.0233349
0.0212775
0.0191296
0.0173214
0.0159712
0.0150228
0.0143955
0.0139484
0.0136134
0.013279
0.0129441
0.0125449
0.0121138
0.0116099
0.0219375
0.0208154
0.0191159
0.0173537
0.0158874
0.0148112
0.0140661
0.0135818
0.013233
0.0129692
0.0126831
0.012385
0.0120163
0.0116159
0.0111465
0.0195863
0.0186239
0.0172291
0.0157901
0.0146024
0.0137407
0.013144
0.0127508
0.0124697
0.0123075
0.0120704
0.0118114
0.0114727
0.0110993
0.010658
0.0175156
0.0166925
0.015561
0.0143957
0.013437
0.0127451
0.0122608
0.0119312
0.0116995
0.0116359
0.0114485
0.0112322
0.0109269
0.0105826
0.0101715
0.0158394
0.0151283
0.0141981
0.013243
0.0124595
0.0118975
0.0115035
0.0112384
0.0110441
0.0109766
0.0108464
0.0106839
0.0104173
0.0101043
0.00972691
0.0144051
0.0137883
0.0130238
0.0122418
0.011603
0.0111493
0.0108295
0.0106093
0.0104142
0.0102935
0.0101119
0.0100541
0.00995332
0.00967491
0.00932368
0.0132556
0.0127224
0.0121116
0.0114898
0.0109847
0.0106296
0.0103852
0.0102436
0.0101083
0.0100551
0.00995196
0.00985914
0.00966797
0.00940855
0.0090737
0.0120847
0.011635
0.0111772
0.0107084
0.010325
0.0100557
0.0098676
0.00977525
0.00968677
0.00962553
0.00952971
0.00946438
0.00928559
0.00903468
0.00870348
0.0111318
0.0107488
0.0104108
0.0100654
0.00978153
0.00957936
0.0094326
0.00937492
0.00930297
0.00926738
0.00918388
0.0091218
0.00895781
0.00873541
0.00844439
0.0102078
0.00988862
0.00965439
0.00941059
0.00920972
0.00907326
0.00896467
0.00894117
0.0088821
0.0088708
0.00879496
0.0087563
0.00860631
0.00839808
0.00812296
0.00954998
0.00928269
0.00913633
0.00896972
0.00882498
0.008731
0.00864036
0.00862819
0.00862118
0.00864646
0.00857747
0.00854459
0.00840599
0.00821527
0.00795705
0.00874975
0.00853946
0.00849038
0.00841381
0.00834868
0.00834783
0.00831038
0.00832791
0.0082737
0.00828824
0.00821735
0.00821575
0.00809032
0.00791042
0.00766233
0.0082026
0.00802346
0.00802069
0.00801625
0.00802522
0.00800733
0.00796756
0.00797445
0.00800409
0.00796032
0.00789601
0.0078701
0.00775474
0.00759957
0.00737965
0.00767358
0.00752462
0.00756797
0.0075915
0.00759696
0.0075961
0.00756155
0.00751525
0.0075088
0.00752568
0.00746961
0.00746239
0.00736428
0.00723076
0.00703358
0.00731345
0.00717898
0.00723465
0.00727128
0.00728722
0.00729536
0.00726488
0.00722131
0.0072158
0.00723624
0.00718792
0.00717249
0.00708448
0.00696852
0.00679104
0.00695697
0.00683221
0.0068889
0.00692642
0.0069422
0.00695083
0.00692653
0.00689017
0.00687382
0.00689332
0.00684903
0.00683353
0.00675556
0.00665545
0.00649593
0.00663876
0.00651532
0.00655133
0.00656866
0.00656566
0.00655853
0.00653705
0.00649798
0.00648393
0.00649905
0.00645693
0.00644512
0.00637595
0.00628902
0.00614829
0.00652333
0.00637857
0.00635652
0.00631998
0.00628087
0.0062827
0.00624902
0.00622157
0.0062336
0.00621039