/*--------------------------------*- C++ -*----------------------------------*\
  =========                 |
  \\      /  F ield         | OpenFOAM: The Open Source CFD Toolbox
   \\    /   O peration     | Website:  https://openfoam.org
    \\  /    A nd           | Version:  7
     \\/     M anipulation  |
\*---------------------------------------------------------------------------*/
FoamFile
{
    version     2.0;
    format      ascii;
    class       volScalarField;
    location    "400";
    object      k;
}
// * * * * * * * * * * * * * * * * * * * * * * * * * * * * * * * * * * * * * //

dimensions      [0 2 -2 0 0 0 0];

internalField   nonuniform List<scalar> 
32100
(
1.36016e+08
1.35547e+08
1.34649e+08
1.33261e+08
1.31538e+08
1.29611e+08
1.27627e+08
1.25754e+08
1.24174e+08
1.23048e+08
1.22513e+08
1.22629e+08
1.23294e+08
1.24069e+08
1.23984e+08
1.32789e+08
1.32448e+08
1.31714e+08
1.30625e+08
1.29274e+08
1.27768e+08
1.26221e+08
1.24765e+08
1.23534e+08
1.22643e+08
1.22173e+08
1.22146e+08
1.22448e+08
1.22781e+08
1.22715e+08
1.30252e+08
1.29989e+08
1.29404e+08
1.28547e+08
1.27493e+08
1.26322e+08
1.25118e+08
1.23978e+08
1.22999e+08
1.22263e+08
1.21825e+08
1.21683e+08
1.21768e+08
1.21893e+08
1.21829e+08
1.28305e+08
1.28089e+08
1.2761e+08
1.26962e+08
1.26146e+08
1.25231e+08
1.24284e+08
1.23375e+08
1.22574e+08
1.21943e+08
1.21515e+08
1.21307e+08
1.21264e+08
1.21279e+08
1.21216e+08
1.26828e+08
1.26656e+08
1.26286e+08
1.25784e+08
1.25154e+08
1.2444e+08
1.23688e+08
1.22949e+08
1.22275e+08
1.21707e+08
1.21294e+08
1.21044e+08
1.20914e+08
1.20863e+08
1.20801e+08
1.25738e+08
1.25578e+08
1.25225e+08
1.24929e+08
1.24459e+08
1.23906e+08
1.23305e+08
1.22692e+08
1.22107e+08
1.2159e+08
1.21182e+08
1.20886e+08
1.20693e+08
1.20596e+08
1.20534e+08
1.24991e+08
1.24855e+08
1.24654e+08
1.24385e+08
1.2402e+08
1.236e+08
1.23121e+08
1.22606e+08
1.22087e+08
1.216e+08
1.21175e+08
1.20827e+08
1.20581e+08
1.2045e+08
1.20388e+08
1.24543e+08
1.24406e+08
1.2427e+08
1.24046e+08
1.238e+08
1.23505e+08
1.23127e+08
1.22683e+08
1.22219e+08
1.21745e+08
1.21279e+08
1.20867e+08
1.20566e+08
1.204e+08
1.20343e+08
1.24367e+08
1.242e+08
1.24048e+08
1.23909e+08
1.23773e+08
1.23612e+08
1.23321e+08
1.22931e+08
1.22506e+08
1.22045e+08
1.21517e+08
1.21005e+08
1.20636e+08
1.20419e+08
1.20372e+08
1.2455e+08
1.24219e+08
1.23982e+08
1.23916e+08
1.23905e+08
1.23926e+08
1.23712e+08
1.23353e+08
1.22969e+08
1.22518e+08
1.21923e+08
1.213e+08
1.20826e+08
1.20507e+08
1.20468e+08
1.25451e+08
1.24559e+08
1.24073e+08
1.24114e+08
1.24217e+08
1.24465e+08
1.24253e+08
1.23939e+08
1.23642e+08
1.23241e+08
1.2261e+08
1.21703e+08
1.21442e+08
1.2113e+08
1.21093e+08
1.2648e+08
1.26912e+08
1.30298e+08
1.28837e+08
1.25002e+08
1.25496e+08
1.25201e+08
1.24791e+08
1.24731e+08
1.24913e+08
1.24658e+08
1.22361e+08
1.22724e+08
1.23248e+08
1.23213e+08
1.27329e+08
1.36666e+08
1.75096e+08
1.40834e+08
1.29966e+08
1.28606e+08
1.28803e+08
1.26781e+08
1.27352e+08
1.36274e+08
1.71834e+08
1.68581e+08
1.32406e+08
1.45567e+08
1.45539e+08
1.73554e+08
3.13198e+08
3.77256e+08
3.44506e+08
2.83829e+08
1.59374e+08
1.76654e+08
1.48335e+08
1.44091e+08
1.7942e+08
2.78982e+08
2.82865e+08
1.56033e+08
2.56406e+08
2.56371e+08
4.90681e+08
5.19767e+08
5.18167e+08
5.10767e+08
4.65664e+08
4.26478e+08
3.92465e+08
3.79202e+08
3.79426e+08
3.35141e+08
3.75997e+08
3.90258e+08
3.63207e+08
3.38352e+08
3.38319e+08
6.09185e+08
6.52511e+08
6.49646e+08
6.31805e+08
5.96274e+08
5.37302e+08
5.09471e+08
4.90411e+08
4.76931e+08
4.30427e+08
4.28056e+08
4.31353e+08
4.27165e+08
3.99901e+08
3.99866e+08
6.77615e+08
6.98497e+08
6.87123e+08
6.70666e+08
6.29389e+08
5.87269e+08
5.57675e+08
5.47141e+08
5.24268e+08
4.84099e+08
4.63258e+08
4.65743e+08
4.6158e+08
4.41044e+08
4.41008e+08
7.2862e+08
7.35804e+08
7.22239e+08
7.05104e+08
6.65471e+08
6.24796e+08
5.85352e+08
5.66952e+08
5.51477e+08
5.22857e+08
4.91217e+08
4.90145e+08
4.89413e+08
4.73972e+08
4.73936e+08
7.75061e+08
7.76307e+08
7.73527e+08
7.53896e+08
7.14788e+08
6.71797e+08
6.29034e+08
5.8923e+08
5.76929e+08
5.52618e+08
5.21589e+08
5.20679e+08
5.20112e+08
5.11277e+08
5.11238e+08
8.26376e+08
8.26202e+08
8.42209e+08
8.31002e+08
7.79694e+08
7.35029e+08
6.933e+08
6.48125e+08
6.20599e+08
5.9104e+08
5.59256e+08
5.64685e+08
5.6364e+08
5.50458e+08
5.50418e+08
8.99153e+08
9.04875e+08
9.40763e+08
9.28349e+08
8.67006e+08
8.21811e+08
7.90937e+08
7.45132e+08
6.9503e+08
6.51922e+08
6.03542e+08
5.97334e+08
5.97973e+08
5.93912e+08
5.9387e+08
9.97077e+08
1.01301e+09
1.05412e+09
1.04107e+09
9.79585e+08
9.23285e+08
9.27896e+08
8.93004e+08
8.10106e+08
7.45259e+08
6.68613e+08
6.49424e+08
6.52385e+08
6.47484e+08
6.47438e+08
1.13017e+09
1.1535e+09
1.19654e+09
1.18755e+09
1.12332e+09
1.0531e+09
1.09189e+09
1.0658e+09
9.65996e+08
8.79739e+08
7.65093e+08
7.36042e+08
7.39936e+08
7.17598e+08
7.1755e+08
1.29963e+09
1.32766e+09
1.36172e+09
1.3663e+09
1.3073e+09
1.23693e+09
1.27083e+09
1.26309e+09
1.15546e+09
1.04465e+09
9.01898e+08
8.57773e+08
8.60047e+08
8.09903e+08
8.0985e+08
1.51043e+09
1.52613e+09
1.55165e+09
1.57546e+09
1.5208e+09
1.44376e+09
1.45977e+09
1.46384e+09
1.37406e+09
1.2313e+09
1.06284e+09
1.01638e+09
1.00737e+09
9.29475e+08
9.29417e+08
1.77374e+09
1.77439e+09
1.79975e+09
1.83505e+09
1.77135e+09
1.67258e+09
1.65516e+09
1.6453e+09
1.60035e+09
1.4446e+09
1.24152e+09
1.20579e+09
1.17596e+09
1.07906e+09
1.079e+09
2.06761e+09
2.06213e+09
2.0865e+09
2.12323e+09
2.05257e+09
1.92752e+09
1.87856e+09
1.84117e+09
1.82644e+09
1.67218e+09
1.42289e+09
1.38402e+09
1.35865e+09
1.26205e+09
1.26198e+09
2.38274e+09
2.36361e+09
2.38009e+09
2.40289e+09
2.3585e+09
2.21962e+09
2.1427e+09
2.06703e+09
2.04264e+09
1.94424e+09
1.61835e+09
1.56882e+09
1.55408e+09
1.49872e+09
1.49863e+09
2.75856e+09
2.67688e+09
2.66648e+09
2.68233e+09
2.68848e+09
2.56895e+09
2.46418e+09
2.33479e+09
2.29193e+09
2.22987e+09
1.88945e+09
1.82146e+09
1.8085e+09
1.82605e+09
1.82593e+09
3.29428e+09
3.12417e+09
3.03757e+09
3.0517e+09
3.11674e+09
3.02879e+09
2.90365e+09
2.70435e+09
2.66392e+09
2.64434e+09
2.26012e+09
2.11759e+09
2.1143e+09
2.25549e+09
2.25534e+09
4.14369e+09
3.93511e+09
3.72112e+09
3.57577e+09
3.65149e+09
3.59435e+09
3.4593e+09
3.24415e+09
3.20276e+09
3.21096e+09
2.76805e+09
2.46377e+09
2.49231e+09
2.81701e+09
2.81681e+09
5.34856e+09
5.28699e+09
5.25751e+09
4.28471e+09
4.35391e+09
4.28351e+09
4.10412e+09
4.0425e+09
4.0263e+09
3.92831e+09
3.43704e+09
2.99436e+09
3.1108e+09
3.56994e+09
3.56968e+09
6.66982e+09
6.68892e+09
6.72811e+09
5.41655e+09
5.3133e+09
5.10542e+09
4.82135e+09
4.94535e+09
4.97002e+09
4.78155e+09
4.29042e+09
3.97041e+09
4.09036e+09
4.51837e+09
4.51803e+09
8.00034e+09
7.58678e+09
7.57073e+09
7.096e+09
6.52962e+09
6.0683e+09
5.59697e+09
6.06643e+09
6.11511e+09
5.863e+09
5.39361e+09
5.25663e+09
5.3067e+09
5.658e+09
5.65755e+09
9.58642e+09
8.92869e+09
8.74501e+09
9.10695e+09
8.07947e+09
7.21696e+09
6.60691e+09
7.41657e+09
7.41649e+09
7.20891e+09
6.77693e+09
6.69853e+09
6.70336e+09
6.99073e+09
6.99016e+09
1.14592e+10
1.12254e+10
1.12159e+10
1.13826e+10
1.00536e+10
8.68861e+09
8.40789e+09
8.81603e+09
8.80597e+09
8.68987e+09
8.44949e+09
8.30911e+09
8.27751e+09
8.52498e+09
8.52426e+09
1.33e+10
1.33116e+10
1.32936e+10
1.29042e+10
1.21454e+10
1.07035e+10
1.02798e+10
1.03142e+10
1.04793e+10
1.03669e+10
1.03432e+10
1.00387e+10
1.00231e+10
1.02802e+10
1.02793e+10
1.49694e+10
1.5183e+10
1.52466e+10
1.42057e+10
1.39759e+10
1.35859e+10
1.24418e+10
1.19902e+10
1.27977e+10
1.26518e+10
1.27752e+10
1.20498e+10
1.20534e+10
1.2295e+10
1.22939e+10
1.6392e+10
1.6e+10
1.59808e+10
1.56341e+10
1.66314e+10
1.85487e+10
1.63088e+10
1.41454e+10
1.64397e+10
1.64357e+10
1.63634e+10
1.46747e+10
1.45408e+10
1.45799e+10
1.45786e+10
1.84394e+10
1.70993e+10
1.6852e+10
1.73624e+10
2.33288e+10
2.60157e+10
2.36531e+10
1.77195e+10
2.13933e+10
2.16458e+10
2.09107e+10
1.81858e+10
1.74117e+10
1.7025e+10
1.70234e+10
2.30989e+10
2.04968e+10
1.97638e+10
2.29543e+10
3.34701e+10
3.64092e+10
3.37949e+10
2.56718e+10
2.68631e+10
2.74009e+10
2.64848e+10
2.28917e+10
2.02758e+10
1.9301e+10
1.92991e+10
3.25496e+10
2.91654e+10
2.68708e+10
3.51272e+10
4.55753e+10
4.89716e+10
4.68166e+10
3.43098e+10
3.07425e+10
3.29762e+10
3.40946e+10
3.02484e+10
2.19972e+10
2.08105e+10
2.08086e+10
4.62239e+10
4.36708e+10
4.23083e+10
5.13975e+10
5.89518e+10
6.34785e+10
6.27617e+10
5.67033e+10
3.40536e+10
3.95904e+10
4.54385e+10
4.19065e+10
2.5269e+10
2.20077e+10
2.20059e+10
6.19232e+10
6.10797e+10
6.14913e+10
6.67802e+10
7.33297e+10
7.89809e+10
7.92445e+10
7.54213e+10
6.75676e+10
4.82428e+10
4.94842e+10
4.95608e+10
3.25268e+10
2.32609e+10
2.32593e+10
7.76957e+10
7.79593e+10
7.82513e+10
8.13172e+10
8.73126e+10
9.3976e+10
9.62095e+10
1.01765e+11
9.05434e+10
8.37066e+10
5.42367e+10
6.56874e+10
6.17289e+10
2.41091e+10
2.41079e+10
8.99009e+10
9.1132e+10
9.30725e+10
9.48266e+10
9.98953e+10
1.06484e+11
1.10357e+11
1.19129e+11
1.18523e+11
1.12347e+11
1.08867e+11
1.02855e+11
9.71344e+10
8.49676e+10
8.49616e+10
9.95213e+10
1.0134e+11
1.02191e+11
1.04196e+11
1.10555e+11
1.15929e+11
1.2026e+11
1.30464e+11
1.39681e+11
1.39796e+11
1.31744e+11
1.29134e+11
1.25139e+11
1.19423e+11
1.19415e+11
1.08156e+11
1.09856e+11
1.10239e+11
1.12403e+11
1.20503e+11
1.2559e+11
1.29784e+11
1.38346e+11
1.44403e+11
1.48017e+11
1.43105e+11
1.40994e+11
1.39441e+11
1.37749e+11
1.37738e+11
1.16052e+11
1.1856e+11
1.21167e+11
1.22489e+11
1.32398e+11
1.37993e+11
1.4019e+11
1.44148e+11
1.48681e+11
1.49364e+11
1.49106e+11
1.46966e+11
1.45901e+11
1.45643e+11
1.45623e+11
1.23563e+11
1.26934e+11
1.29375e+11
1.31235e+11
1.44371e+11
1.49354e+11
1.50489e+11
1.49581e+11
1.50695e+11
1.51243e+11
1.50594e+11
1.4958e+11
1.48796e+11
1.48752e+11
1.48711e+11
1.30023e+11
1.32646e+11
1.33153e+11
1.36865e+11
1.5432e+11
1.57677e+11
1.55673e+11
1.51609e+11
1.51239e+11
1.51272e+11
1.51253e+11
1.50759e+11
1.50147e+11
1.50128e+11
1.50036e+11
1.36747e+11
1.37359e+11
1.36103e+11
1.50105e+11
1.63474e+11
1.65531e+11
1.60544e+11
1.53875e+11
1.51396e+11
1.51333e+11
1.51318e+11
1.51161e+11
1.50805e+11
1.5079e+11
1.50512e+11
1.46252e+11
1.48087e+11
1.49154e+11
1.62493e+11
1.7225e+11
1.70928e+11
1.64877e+11
1.56378e+11
1.51922e+11
1.51492e+11
1.5148e+11
1.5145e+11
1.51253e+11
1.5124e+11
1.50304e+11
1.55443e+11
1.57112e+11
1.59487e+11
1.72689e+11
1.76016e+11
1.76633e+11
1.73802e+11
1.59313e+11
1.53002e+11
1.52051e+11
1.52037e+11
1.52058e+11
1.51783e+11
1.51771e+11
1.49543e+11
1.62542e+11
1.63945e+11
1.67426e+11
1.76697e+11
1.80209e+11
1.83233e+11
1.87889e+11
1.69489e+11
1.57478e+11
1.52917e+11
1.52905e+11
1.53578e+11
1.52785e+11
1.53094e+11
1.52846e+11
1.69314e+11
1.71696e+11
1.75615e+11
1.82702e+11
1.88358e+11
1.8962e+11
1.90244e+11
1.88517e+11
1.81097e+11
1.53465e+11
1.59168e+11
1.60839e+11
1.554e+11
2.98832e+11
2.98976e+11
1.7653e+11
1.79619e+11
1.84102e+11
1.90363e+11
1.97848e+11
1.98624e+11
1.93676e+11
2.09011e+11
2.20167e+11
2.19865e+11
2.1048e+11
1.96981e+11
2.08452e+11
4.94255e+11
4.9344e+11
1.84414e+11
1.8815e+11
1.94326e+11
2.00995e+11
2.13572e+11
2.14664e+11
2.19262e+11
2.47636e+11
2.75256e+11
2.7553e+11
3.10344e+11
3.40723e+11
4.2714e+11
6.94072e+11
6.91744e+11
1.96493e+11
1.99221e+11
2.06256e+11
2.15722e+11
2.34855e+11
2.36036e+11
2.49603e+11
3.03038e+11
3.52729e+11
3.55825e+11
4.28982e+11
4.78768e+11
4.89913e+11
8.84633e+11
8.80556e+11
2.197e+11
2.16615e+11
2.22885e+11
2.34144e+11
2.59137e+11
2.60186e+11
2.8382e+11
3.73727e+11
4.60571e+11
6.2326e+11
6.1068e+11
6.16476e+11
6.34418e+11
1.06027e+12
1.05503e+12
2.63609e+11
2.47888e+11
2.45206e+11
2.55752e+11
2.82916e+11
2.837e+11
3.17376e+11
4.46598e+11
5.72426e+11
6.77562e+11
6.77678e+11
6.71995e+11
7.69978e+11
1.2415e+12
1.23801e+12
3.30996e+11
3.05219e+11
2.7454e+11
2.81862e+11
3.03305e+11
3.03846e+11
3.46638e+11
5.08938e+11
6.77226e+11
6.77765e+11
6.77866e+11
6.78102e+11
7.85243e+11
1.48605e+12
1.48392e+12
4.15321e+11
3.89507e+11
3.2599e+11
3.16065e+11
3.19374e+11
3.19708e+11
3.67309e+11
5.17942e+11
6.57783e+11
6.77863e+11
6.78256e+11
6.82622e+11
9.90913e+11
1.78892e+12
1.787e+12
5.08057e+11
4.89337e+11
4.11325e+11
3.59904e+11
3.31561e+11
3.31225e+11
3.79608e+11
5.13703e+11
6.43468e+11
6.4933e+11
6.83058e+11
8.15313e+11
1.73259e+12
2.16579e+12
2.16361e+12
6.04171e+11
5.94677e+11
5.43496e+11
4.19411e+11
3.46085e+11
3.35264e+11
3.81209e+11
5.15198e+11
6.40483e+11
6.42571e+11
8.71772e+11
1.77314e+12
2.3827e+12
2.57165e+12
2.56921e+12
6.99916e+11
6.98644e+11
7.01948e+11
5.32837e+11
4.47505e+11
3.4129e+11
3.89565e+11
5.28344e+11
6.2889e+11
8.94874e+11
2.31606e+12
2.89298e+12
2.95986e+12
2.94801e+12
2.94545e+12
7.88195e+11
7.85921e+11
7.8472e+11
7.47071e+11
6.87869e+11
4.78712e+11
6.21354e+11
5.74871e+11
7.5497e+11
2.74004e+12
3.46767e+12
3.55053e+12
3.44994e+12
3.28531e+12
3.28246e+12
8.79848e+11
8.75091e+11
8.63959e+11
8.70886e+11
9.00222e+11
9.08081e+11
1.0889e+12
1.30754e+12
2.41508e+12
3.81701e+12
3.99775e+12
4.0009e+12
3.87711e+12
3.63431e+12
3.63054e+12
9.90666e+11
9.85205e+11
9.8586e+11
1.01131e+12
1.10315e+12
1.19922e+12
1.45878e+12
2.02765e+12
3.70067e+12
4.06879e+12
4.22439e+12
4.3025e+12
4.28266e+12
4.10093e+12
4.0919e+12
1.11164e+12
1.10107e+12
1.10863e+12
1.15292e+12
1.2938e+12
1.45112e+12
1.91824e+12
3.33573e+12
3.76872e+12
4.02354e+12
4.24607e+12
4.47182e+12
4.68031e+12
4.79923e+12
4.75283e+12
1.22986e+12
1.21485e+12
1.2197e+12
1.29181e+12
1.46954e+12
1.73968e+12
2.95053e+12
3.27009e+12
3.52686e+12
3.7915e+12
4.09584e+12
4.46986e+12
4.94162e+12
5.50996e+12
5.37831e+12
1.34171e+12
1.32845e+12
1.33011e+12
1.4209e+12
1.63668e+12
2.45524e+12
2.71848e+12
2.87433e+12
3.09271e+12
3.3996e+12
3.77094e+12
4.25e+12
4.91118e+12
5.66844e+12
5.52793e+12
1.43779e+12
1.43484e+12
1.44467e+12
1.51786e+12
1.98471e+12
2.1525e+12
2.25498e+12
2.37595e+12
2.57593e+12
2.88242e+12
3.26727e+12
3.77389e+12
4.50973e+12
5.49874e+12
5.43163e+12
1.498e+12
1.50199e+12
1.52254e+12
1.60039e+12
1.73363e+12
1.78721e+12
1.84084e+12
1.94103e+12
2.1019e+12
2.35003e+12
2.69021e+12
3.15755e+12
3.83273e+12
4.83594e+12
4.83375e+12
1.5234e+12
1.52736e+12
1.54186e+12
1.57861e+12
1.63727e+12
1.6733e+12
1.71731e+12
1.78331e+12
1.89172e+12
2.07911e+12
2.39551e+12
2.85486e+12
3.50139e+12
4.42999e+12
4.37084e+12
1.53595e+12
1.5392e+12
1.5497e+12
1.57303e+12
1.6075e+12
1.64063e+12
1.68127e+12
1.73922e+12
1.83507e+12
2.01417e+12
2.34476e+12
2.9129e+12
3.67671e+12
4.68115e+12
4.63427e+12
1.54119e+12
1.5437e+12
1.55127e+12
1.5686e+12
1.59578e+12
1.62696e+12
1.66598e+12
1.72386e+12
1.8276e+12
2.03263e+12
2.41885e+12
3.11861e+12
4.10914e+12
5.53109e+12
5.48257e+12
1.54253e+12
1.54457e+12
1.55082e+12
1.56514e+12
1.58916e+12
1.61946e+12
1.65853e+12
1.71961e+12
1.84037e+12
2.09516e+12
2.58185e+12
3.50653e+12
5.04493e+12
7.21763e+12
7.18622e+12
1.54182e+12
1.54347e+12
1.54894e+12
1.56145e+12
1.58341e+12
1.61324e+12
1.65335e+12
1.72049e+12
1.86965e+12
2.2094e+12
2.86583e+12
4.09078e+12
6.15238e+12
8.80616e+12
8.7936e+12
1.53919e+12
1.54049e+12
1.54535e+12
1.55643e+12
1.57652e+12
1.60596e+12
1.64754e+12
1.72283e+12
1.91359e+12
2.37797e+12
3.24672e+12
4.77884e+12
7.41533e+12
1.08694e+13
1.17576e+13
1.52571e+12
1.52597e+12
1.52894e+12
1.53627e+12
1.55105e+12
1.5771e+12
1.62042e+12
1.71422e+12
2.05854e+12
3.05202e+12
4.83479e+12
7.52782e+12
1.1921e+13
1.58252e+13
1.80292e+13
1.47088e+12
1.46995e+12
1.4698e+12
1.47028e+12
1.47169e+12
1.47454e+12
1.48065e+12
1.49754e+12
1.58632e+12
2.71632e+12
5.49285e+12
8.32151e+12
1.16695e+13
1.53654e+13
1.83677e+13
1.46897e+12
1.46801e+12
1.46798e+12
1.46865e+12
1.47006e+12
1.47241e+12
1.47624e+12
1.48312e+12
1.49787e+12
1.53393e+12
1.61638e+12
1.98006e+12
6.72335e+12
8.38817e+12
9.24159e+12
1.4676e+12
1.46713e+12
1.46742e+12
1.46837e+12
1.47007e+12
1.47274e+12
1.47703e+12
1.48416e+12
1.49775e+12
1.52882e+12
1.60164e+12
1.73405e+12
1.95253e+12
3.04467e+12
3.89146e+12
1.46324e+12
1.46358e+12
1.46487e+12
1.46675e+12
1.46916e+12
1.47238e+12
1.47717e+12
1.48511e+12
1.49978e+12
1.53043e+12
1.60274e+12
1.77068e+12
2.12458e+12
2.88667e+12
3.62208e+12
1.44853e+12
1.44949e+12
1.45186e+12
1.45547e+12
1.46038e+12
1.46725e+12
1.47775e+12
1.49523e+12
1.52883e+12
1.60642e+12
1.81255e+12
2.31949e+12
2.92899e+12
3.35797e+12
3.64922e+12
1.39997e+12
1.40196e+12
1.40666e+12
1.41417e+12
1.42509e+12
1.44108e+12
1.46484e+12
1.49802e+12
1.54838e+12
1.63811e+12
1.8436e+12
2.45178e+12
3.36378e+12
3.92318e+12
4.30431e+12
1.23976e+12
1.24136e+12
1.24561e+12
1.25331e+12
1.2669e+12
1.29202e+12
1.33809e+12
1.40156e+12
1.48076e+12
1.60618e+12
1.92543e+12
3.22908e+12
4.77079e+12
6.06679e+12
7.07636e+12
1.10511e+12
1.10531e+12
1.10609e+12
1.10812e+12
1.11246e+12
1.12064e+12
1.13525e+12
1.16222e+12
1.21932e+12
1.46199e+12
2.69234e+12
5.0676e+12
7.58915e+12
9.15102e+12
1.03905e+13
9.5806e+11
9.54996e+11
9.50421e+11
9.46663e+11
9.45867e+11
9.48848e+11
9.55892e+11
9.78821e+11
1.07696e+12
1.81745e+12
3.10614e+12
4.64651e+12
5.87255e+12
6.81101e+12
7.50192e+12
7.63796e+11
7.62506e+11
7.62692e+11
7.66214e+11
7.68211e+11
7.6951e+11
7.7188e+11
7.78033e+11
7.9668e+11
8.74634e+11
1.70141e+12
2.54798e+12
3.18116e+12
3.65975e+12
4.02696e+12
6.10926e+11
6.10706e+11
6.10978e+11
6.12873e+11
6.10609e+11
6.0291e+11
5.97297e+11
5.91586e+11
5.87093e+11
6.22993e+11
7.70812e+11
1.00506e+12
1.24106e+12
1.45361e+12
1.63311e+12
3.72987e+11
3.75761e+11
3.70055e+11
3.42788e+11
3.19474e+11
3.00155e+11
2.81703e+11
2.63544e+11
2.52542e+11
2.61184e+11
2.96157e+11
3.55714e+11
4.31519e+11
5.14265e+11
5.90701e+11
1.8115e+11
1.79184e+11
1.73852e+11
1.66024e+11
1.56503e+11
1.46227e+11
1.35219e+11
1.24032e+11
1.13482e+11
1.05498e+11
1.03272e+11
1.11012e+11
1.30729e+11
1.58886e+11
1.88176e+11
1.07767e+11
1.0642e+11
1.03732e+11
1.00182e+11
9.60796e+10
9.1798e+10
8.75627e+10
8.35979e+10
7.99858e+10
7.66316e+10
7.32425e+10
7.00032e+10
6.74507e+10
6.61553e+10
6.6319e+10
7.65792e+10
7.58248e+10
7.44862e+10
7.26934e+10
7.06462e+10
6.84055e+10
6.62815e+10
6.42877e+10
6.22287e+10
5.98742e+10
5.73782e+10
5.50409e+10
5.25824e+10
4.96478e+10
4.6507e+10
5.89815e+10
5.86152e+10
5.78558e+10
5.68135e+10
5.55655e+10
5.41741e+10
5.27192e+10
5.11633e+10
4.95604e+10
4.79461e+10
4.62777e+10
4.44097e+10
4.22882e+10
4.02152e+10
3.8806e+10
4.66554e+10
4.65297e+10
4.62506e+10
4.57838e+10
4.50137e+10
4.40545e+10
4.29906e+10
4.19397e+10
4.09517e+10
3.99378e+10
3.88464e+10
3.76493e+10
3.63653e+10
3.51481e+10
3.43904e+10
3.88051e+10
3.87053e+10
3.84999e+10
3.82146e+10
3.78337e+10
3.73842e+10
3.68989e+10
3.63961e+10
3.58142e+10
3.51451e+10
3.44472e+10
3.37275e+10
3.30127e+10
3.24123e+10
3.2021e+10
3.37937e+10
3.376e+10
3.36919e+10
3.36018e+10
3.34978e+10
3.33784e+10
3.32108e+10
3.296e+10
3.2617e+10
3.22351e+10
3.18418e+10
3.14307e+10
3.10038e+10
3.05992e+10
3.03037e+10
3.03531e+10
3.03441e+10
3.0328e+10
3.03048e+10
3.02664e+10
3.02223e+10
3.01899e+10
3.01663e+10
3.01117e+10
2.99895e+10
2.9785e+10
2.95298e+10
2.92422e+10
2.8971e+10
2.87677e+10
2.74252e+10
2.74283e+10
2.74359e+10
2.74438e+10
2.74463e+10
2.74368e+10
2.7435e+10
2.74626e+10
2.75362e+10
2.76559e+10
2.76968e+10
2.76268e+10
2.75026e+10
2.73668e+10
2.72493e+10
2.4667e+10
2.46684e+10
2.46733e+10
2.46792e+10
2.46868e+10
2.469e+10
2.4686e+10
2.46886e+10
2.47213e+10
2.48489e+10
2.51799e+10
2.55056e+10
2.55988e+10
2.55588e+10
2.54433e+10
2.23642e+10
2.23626e+10
2.23602e+10
2.23515e+10
2.2331e+10
2.22983e+10
2.22498e+10
2.21854e+10
2.21127e+10
2.20445e+10
2.2018e+10
2.21343e+10
2.24263e+10
2.28098e+10
2.31152e+10
2.04346e+10
2.04222e+10
2.0394e+10
2.03429e+10
2.02622e+10
2.01581e+10
2.00331e+10
1.9886e+10
1.97178e+10
1.95209e+10
1.92946e+10
1.90604e+10
1.88617e+10
1.87202e+10
1.86665e+10
1.81656e+10
1.81531e+10
1.81238e+10
1.80653e+10
1.79818e+10
1.78928e+10
1.77972e+10
1.76859e+10
1.75289e+10
1.73031e+10
1.70007e+10
1.6656e+10
1.63235e+10
1.60143e+10
1.57207e+10
1.59559e+10
1.59426e+10
1.59136e+10
1.58759e+10
1.58433e+10
1.58163e+10
1.5787e+10
1.57283e+10
1.55554e+10
1.52058e+10
1.478e+10
1.43735e+10
1.39921e+10
1.36099e+10
1.32109e+10
1.37668e+10
1.37595e+10
1.37496e+10
1.37455e+10
1.37468e+10
1.3736e+10
1.36864e+10
1.35445e+10
1.32455e+10
1.28407e+10
1.24475e+10
1.2083e+10
1.17223e+10
1.13479e+10
1.09506e+10
1.17244e+10
1.1722e+10
1.1722e+10
1.17247e+10
1.1723e+10
1.16966e+10
1.1622e+10
1.14716e+10
1.12268e+10
1.08789e+10
1.05133e+10
1.01665e+10
9.83238e+09
9.4886e+09
9.11953e+09
9.95999e+09
9.94767e+09
9.9296e+09
9.90996e+09
9.8858e+09
9.84945e+09
9.78621e+09
9.66303e+09
9.41365e+09
9.09125e+09
8.80458e+09
8.5411e+09
8.26596e+09
7.96473e+09
7.64025e+09
8.447e+09
8.44421e+09
8.43938e+09
8.42766e+09
8.40314e+09
8.35735e+09
8.28193e+09
8.16639e+09
7.97178e+09
7.703e+09
7.44304e+09
7.17583e+09
6.9002e+09
6.63005e+09
6.37989e+09
7.35886e+09
7.36074e+09
7.36292e+09
7.36032e+09
7.34822e+09
7.31884e+09
7.26169e+09
7.16819e+09
7.01086e+09
6.74836e+09
6.45406e+09
6.17981e+09
5.94702e+09
5.75134e+09
5.58753e+09
6.56373e+09
6.56529e+09
6.56831e+09
6.56989e+09
6.56485e+09
6.54253e+09
6.4843e+09
6.3757e+09
6.19244e+09
5.92622e+09
5.66343e+09
5.43459e+09
5.23459e+09
5.06152e+09
4.91771e+09
5.84403e+09
5.8432e+09
5.84299e+09
5.84301e+09
5.83811e+09
5.81328e+09
5.72631e+09
5.5351e+09
5.28934e+09
5.06106e+09
4.85215e+09
4.65028e+09
4.4579e+09
4.29866e+09
4.17637e+09
5.10595e+09
5.10146e+09
5.09376e+09
5.08143e+09
5.05849e+09
5.00871e+09
4.90024e+09
4.71881e+09
4.49498e+09
4.28114e+09
4.08942e+09
3.91586e+09
3.76907e+09
3.65156e+09
3.55877e+09
4.52196e+09
4.51876e+09
4.51176e+09
4.49945e+09
4.47753e+09
4.43443e+09
4.34152e+09
4.1604e+09
3.91912e+09
3.70658e+09
3.51974e+09
3.36412e+09
3.24774e+09
3.16037e+09
3.09384e+09
4.09208e+09
4.09045e+09
4.0856e+09
4.0757e+09
4.05625e+09
4.01388e+09
3.90701e+09
3.69206e+09
3.45503e+09
3.25514e+09
3.08603e+09
2.9595e+09
2.87199e+09
2.8081e+09
2.75842e+09
3.71326e+09
3.71068e+09
3.70488e+09
3.69415e+09
3.67391e+09
3.62922e+09
3.50699e+09
3.27879e+09
3.06822e+09
2.88336e+09
2.73389e+09
2.62781e+09
2.55252e+09
2.4937e+09
2.44441e+09
3.38991e+09
3.38652e+09
3.37935e+09
3.36727e+09
3.34693e+09
3.30784e+09
3.20728e+09
2.95767e+09
2.71992e+09
2.52144e+09
2.36992e+09
2.27115e+09
2.20342e+09
2.15003e+09
2.10521e+09
3.10386e+09
3.09963e+09
3.08979e+09
3.07249e+09
3.04169e+09
2.97676e+09
2.81775e+09
2.57744e+09
2.352e+09
2.16143e+09
2.03652e+09
1.96055e+09
1.90651e+09
1.86326e+09
1.82724e+09
2.76239e+09
2.75548e+09
2.73935e+09
2.71101e+09
2.66258e+09
2.57117e+09
2.39426e+09
2.17965e+09
1.99887e+09
1.85788e+09
1.7633e+09
1.70046e+09
1.65356e+09
1.6157e+09
1.58407e+09
2.41096e+09
2.40256e+09
2.37698e+09
2.32684e+09
2.23765e+09
2.09083e+09
1.93295e+09
1.79842e+09
1.68119e+09
1.58426e+09
1.51296e+09
1.46323e+09
1.42579e+09
1.39562e+09
1.37016e+09
1.90489e+09
1.89203e+09
1.86134e+09
1.80936e+09
1.73872e+09
1.65576e+09
1.56124e+09
1.46348e+09
1.38322e+09
1.32065e+09
1.27591e+09
1.24436e+09
1.219e+09
1.19695e+09
1.17707e+09
1.48889e+09
1.47818e+09
1.45308e+09
1.41273e+09
1.35919e+09
1.29953e+09
1.23776e+09
1.17773e+09
1.13028e+09
1.09683e+09
1.07353e+09
1.05498e+09
1.03851e+09
1.02311e+09
1.00872e+09
1.12871e+09
1.12088e+09
1.10325e+09
1.0766e+09
1.0463e+09
1.01646e+09
9.8751e+08
9.60988e+08
9.39113e+08
9.22505e+08
9.09644e+08
8.98421e+08
8.87684e+08
8.77072e+08
8.66523e+08
8.91308e+08
8.86792e+08
8.77471e+08
8.64778e+08
8.50881e+08
8.36424e+08
8.21579e+08
8.06587e+08
7.92969e+08
7.82145e+08
7.73235e+08
7.64988e+08
7.56769e+08
7.48382e+08
7.39854e+08
7.27925e+08
7.25765e+08
7.20969e+08
7.13935e+08
7.06138e+08
6.97606e+08
6.87962e+08
6.77736e+08
6.6874e+08
6.61451e+08
6.55214e+08
6.49308e+08
6.43318e+08
6.37166e+08
6.30869e+08
5.97415e+08
5.95902e+08
5.93123e+08
5.89895e+08
5.8656e+08
5.8265e+08
5.77952e+08
5.72559e+08
5.67232e+08
5.62926e+08
5.5917e+08
5.55402e+08
5.51336e+08
5.46901e+08
5.42121e+08
5.04876e+08
5.04164e+08
5.02821e+08
5.00849e+08
4.98147e+08
4.94686e+08
4.90515e+08
4.85857e+08
4.82061e+08
4.79609e+08
4.77449e+08
4.75124e+08
4.72449e+08
4.69342e+08
4.6575e+08
4.32551e+08
4.31839e+08
4.30302e+08
4.27972e+08
4.24859e+08
4.21042e+08
4.16588e+08
4.12044e+08
4.09332e+08
4.07501e+08
4.0587e+08
4.04131e+08
4.02098e+08
3.99612e+08
3.96572e+08
3.66852e+08
3.66263e+08
3.6502e+08
3.62949e+08
3.60077e+08
3.56417e+08
3.52143e+08
3.48619e+08
3.46852e+08
3.45621e+08
3.44459e+08
3.43123e+08
3.41452e+08
3.39353e+08
3.36843e+08
3.07214e+08
3.0657e+08
3.05241e+08
3.03193e+08
3.00796e+08
2.98345e+08
2.96043e+08
2.94536e+08
2.9384e+08
2.93359e+08
2.92761e+08
2.91934e+08
2.90807e+08
2.89355e+08
2.87664e+08
2.5788e+08
2.57461e+08
2.56674e+08
2.5555e+08
2.54182e+08
2.5253e+08
2.50728e+08
2.49846e+08
2.4961e+08
2.4944e+08
2.49125e+08
2.48639e+08
2.4794e+08
2.46984e+08
2.45759e+08
2.16198e+08
2.1613e+08
2.16005e+08
2.15706e+08
2.15156e+08
2.14332e+08
2.13684e+08
2.13401e+08
2.13246e+08
2.13016e+08
2.12612e+08
2.12046e+08
2.113e+08
2.10362e+08
2.09213e+08
1.83668e+08
1.837e+08
1.83768e+08
1.83636e+08
1.83344e+08
1.83018e+08
1.82833e+08
1.82798e+08
1.82594e+08
1.82168e+08
1.81559e+08
1.80801e+08
1.7988e+08
1.78775e+08
1.77465e+08
1.57803e+08
1.57673e+08
1.57462e+08
1.57129e+08
1.56606e+08
1.55923e+08
1.5557e+08
1.55557e+08
1.55507e+08
1.55233e+08
1.54763e+08
1.54082e+08
1.53168e+08
1.52009e+08
1.50618e+08
1.35258e+08
1.34907e+08
1.34246e+08
1.33484e+08
1.32724e+08
1.32212e+08
1.3221e+08
1.32424e+08
1.32579e+08
1.32526e+08
1.32244e+08
1.31695e+08
1.30874e+08
1.29797e+08
1.28507e+08
1.12741e+08
1.1195e+08
1.11085e+08
1.10864e+08
1.11204e+08
1.11772e+08
1.12163e+08
1.12443e+08
1.12615e+08
1.12642e+08
1.12459e+08
1.12047e+08
1.114e+08
1.10543e+08
1.09514e+08
9.17892e+07
9.19834e+07
9.24075e+07
9.29976e+07
9.37403e+07
9.46027e+07
9.53118e+07
9.56419e+07
9.57729e+07
9.57578e+07
9.55787e+07
9.52217e+07
9.46857e+07
9.39872e+07
9.31544e+07
7.94298e+07
7.95376e+07
7.97432e+07
8.00076e+07
8.03305e+07
8.07144e+07
8.11652e+07
8.14557e+07
8.1597e+07
8.15914e+07
8.14301e+07
8.11034e+07
8.0603e+07
7.99404e+07
7.91453e+07
6.83289e+07
6.83536e+07
6.83883e+07
6.84012e+07
6.83863e+07
6.83454e+07
6.82347e+07
6.82372e+07
6.82686e+07
6.82524e+07
6.81427e+07
6.79015e+07
6.74999e+07
6.69564e+07
6.63172e+07
5.77624e+07
5.7729e+07
5.76693e+07
5.75507e+07
5.73527e+07
5.70581e+07
5.67678e+07
5.65862e+07
5.64298e+07
5.62817e+07
5.61211e+07
5.59251e+07
5.56969e+07
5.54526e+07
5.52343e+07
4.88e+07
4.87438e+07
4.865e+07
4.85022e+07
4.83104e+07
4.81026e+07
4.79231e+07
4.77132e+07
4.74934e+07
4.72816e+07
4.70723e+07
4.68767e+07
4.67279e+07
4.66367e+07
4.66317e+07
4.15567e+07
4.15048e+07
4.14222e+07
4.13004e+07
4.11515e+07
4.0996e+07
4.08534e+07
4.07003e+07
4.05316e+07
4.03636e+07
4.02095e+07
4.00816e+07
3.99956e+07
3.99611e+07
3.99963e+07
3.56381e+07
3.55948e+07
3.55281e+07
3.54302e+07
3.53122e+07
3.51935e+07
3.50781e+07
3.49489e+07
3.48219e+07
3.47128e+07
3.46294e+07
3.45825e+07
3.45763e+07
3.46144e+07
3.46928e+07
3.08428e+07
3.08138e+07
3.07739e+07
3.07093e+07
3.06195e+07
3.05087e+07
3.04006e+07
3.03054e+07
3.02231e+07
3.01549e+07
3.01071e+07
3.00929e+07
3.01159e+07
3.01798e+07
3.02725e+07
2.68271e+07
2.68037e+07
2.67742e+07
2.67288e+07
2.66732e+07
2.66168e+07
2.65696e+07
2.65175e+07
2.64612e+07
2.64107e+07
2.63751e+07
2.63632e+07
2.63747e+07
2.64154e+07
2.6476e+07
2.34334e+07
2.34114e+07
2.33836e+07
2.33407e+07
2.32864e+07
2.32286e+07
2.31792e+07
2.31396e+07
2.31047e+07
2.30766e+07
2.30657e+07
2.30739e+07
2.30977e+07
2.31337e+07
2.31741e+07
2.05266e+07
2.05045e+07
2.04747e+07
2.04291e+07
2.0372e+07
2.03148e+07
2.02696e+07
2.02321e+07
2.01987e+07
2.01753e+07
2.01695e+07
2.01805e+07
2.02086e+07
2.02431e+07
2.02748e+07
1.79831e+07
1.79652e+07
1.79421e+07
1.79053e+07
1.78567e+07
1.78028e+07
1.77514e+07
1.77058e+07
1.76696e+07
1.76489e+07
1.76435e+07
1.76505e+07
1.76682e+07
1.76954e+07
1.77196e+07
1.56728e+07
1.56576e+07
1.56384e+07
1.56072e+07
1.55665e+07
1.5524e+07
1.5486e+07
1.54539e+07
1.54286e+07
1.54102e+07
1.54016e+07
1.54029e+07
1.5412e+07
1.5428e+07
1.54437e+07
1.36013e+07
1.35877e+07
1.35709e+07
1.3544e+07
1.35125e+07
1.34858e+07
1.34673e+07
1.34541e+07
1.34421e+07
1.34277e+07
1.34122e+07
1.34004e+07
1.3396e+07
1.33929e+07
1.33905e+07
1.17564e+07
1.17455e+07
1.17333e+07
1.17158e+07
1.16986e+07
1.16871e+07
1.16821e+07
1.16804e+07
1.16776e+07
1.16669e+07
1.16497e+07
1.16278e+07
1.16045e+07
1.15799e+07
1.15576e+07
1.01273e+07
1.01185e+07
1.01103e+07
1.01012e+07
1.00974e+07
1.01001e+07
1.01054e+07
1.0108e+07
1.01056e+07
1.00982e+07
1.00868e+07
1.0064e+07
1.00317e+07
9.99466e+06
9.96084e+06
8.71046e+06
8.7053e+06
8.70354e+06
8.70201e+06
8.70324e+06
8.70754e+06
8.7119e+06
8.71322e+06
8.71151e+06
8.70968e+06
8.70105e+06
8.67859e+06
8.64541e+06
8.60783e+06
8.57196e+06
7.46202e+06
7.45817e+06
7.45784e+06
7.45733e+06
7.45791e+06
7.45994e+06
7.46188e+06
7.46118e+06
7.45682e+06
7.44997e+06
7.43879e+06
7.42698e+06
7.41072e+06
7.39166e+06
7.36704e+06
6.37425e+06
6.37105e+06
6.37089e+06
6.37039e+06
6.37081e+06
6.37283e+06
6.37579e+06
6.37749e+06
6.37575e+06
6.36918e+06
6.36026e+06
6.35352e+06
6.347e+06
6.34007e+06
6.32726e+06
5.42116e+06
5.42078e+06
5.42557e+06
5.43145e+06
5.43871e+06
5.44675e+06
5.45403e+06
5.45882e+06
5.45991e+06
5.45806e+06
5.45282e+06
5.44514e+06
5.43693e+06
5.42813e+06
5.41708e+06
4.63313e+06
4.63344e+06
4.63844e+06
4.64399e+06
4.65006e+06
4.65593e+06
4.66029e+06
4.66214e+06
4.66083e+06
4.65599e+06
4.64689e+06
4.63653e+06
4.6259e+06
4.61255e+06
4.59595e+06
3.95825e+06
3.95871e+06
3.96353e+06
3.96888e+06
3.97427e+06
3.97885e+06
3.98172e+06
3.98249e+06
3.98075e+06
3.9754e+06
3.96541e+06
3.95132e+06
3.93406e+06
3.91353e+06
3.89077e+06
3.38808e+06
3.38822e+06
3.39177e+06
3.39517e+06
3.39791e+06
3.39947e+06
3.39945e+06
3.39772e+06
3.39406e+06
3.38725e+06
3.37618e+06
3.36162e+06
3.34513e+06
3.32703e+06
3.30783e+06
2.8877e+06
2.88737e+06
2.88952e+06
2.89077e+06
2.89041e+06
2.88801e+06
2.88352e+06
2.87716e+06
2.86937e+06
2.86043e+06
2.85118e+06
2.84078e+06
2.82838e+06
2.81372e+06
2.79696e+06
2.44217e+06
2.44117e+06
2.4417e+06
2.44124e+06
2.4394e+06
2.4358e+06
2.43027e+06
2.4232e+06
2.41564e+06
2.40852e+06
2.40214e+06
2.3948e+06
2.38497e+06
2.37268e+06
2.35832e+06
2.06189e+06
2.06062e+06
2.06023e+06
2.0587e+06
2.05599e+06
2.05225e+06
2.04781e+06
2.04305e+06
2.0382e+06
2.03312e+06
2.02718e+06
2.02011e+06
2.01147e+06
2.00117e+06
1.98943e+06
1.73393e+06
1.73278e+06
1.73242e+06
1.7313e+06
1.72947e+06
1.72704e+06