/*--------------------------------*- C++ -*----------------------------------*\
  =========                 |
  \\      /  F ield         | OpenFOAM: The Open Source CFD Toolbox
   \\    /   O peration     | Website:  https://openfoam.org
    \\  /    A nd           | Version:  7
     \\/     M anipulation  |
\*---------------------------------------------------------------------------*/
FoamFile
{
    version     2.0;
    format      ascii;
    class       volScalarField;
    location    "400";
    object      nut;
}
// * * * * * * * * * * * * * * * * * * * * * * * * * * * * * * * * * * * * * //

dimensions      [0 2 -1 0 0 0 0];

internalField   nonuniform List<scalar> 
32100
(
1.33007e+17
1.2814e+17
1.30145e+17
1.26958e+17
1.23859e+17
1.20294e+17
1.16325e+17
1.1214e+17
1.08863e+17
1.0649e+17
1.06234e+17
1.06112e+17
1.09084e+17
1.09428e+17
2.0679
1.3704e+17
1.38724e+17
1.33476e+17
1.32573e+17
1.30202e+17
1.27351e+17
1.24725e+17
1.23191e+17
1.21571e+17
1.20472e+17
1.18415e+17
1.1904e+17
1.17071e+17
1.18874e+17
2.05718
1.54649e+17
1.45669e+17
1.49554e+17
1.45834e+17
1.44084e+17
1.41627e+17
1.39069e+17
1.37218e+17
1.35425e+17
1.33039e+17
1.33572e+17
1.2616e+17
1.31737e+17
1.31351e+17
2.04966
1.60123e+17
1.56544e+17
1.48305e+17
1.54541e+17
1.5382e+17
1.51866e+17
1.49395e+17
1.47376e+17
1.4621e+17
1.47115e+17
1.39284e+17
1.52799e+17
1.43274e+17
1.44178e+17
2.04442
1.75161e+17
1.64052e+17
1.8064e+17
1.65753e+17
1.6634e+17
1.65355e+17
1.63199e+17
1.61063e+17
1.5845e+17
1.5249e+17
1.75907e+17
1.65e+17
1.57937e+17
1.57321e+17
2.04086
1.78486e+17
1.62451e+17
1.38483e+17
1.7202e+17
1.73723e+17
1.73302e+17
1.71709e+17
1.69889e+17
1.70666e+17
1.81786e+17
1.88781e+17
1.80704e+17
1.67863e+17
1.68126e+17
2.03855
1.94301e+17
1.90373e+17
3.4792e+17
1.7967e+17
1.82545e+17
1.83329e+17
1.82545e+17
1.80682e+17
1.74499e+17
1.92205e+17
1.95066e+17
1.82606e+17
1.80894e+17
1.89192e+17
2.03727
1.9003e+17
1.48267e+17
8.36725e+16
1.8738e+17
1.90542e+17
1.90313e+17
1.89685e+17
1.8791e+17
1.98338e+17
2.01071e+17
2.09778e+17
1.9276e+17
1.8191e+17
2.05835e+17
2.03686
2.11302e+17
3.20855e+17
3.37006e+17
1.88458e+17
1.9265e+17
1.95844e+17
1.95577e+17
1.94358e+17
2.0386e+17
2.05758e+17
1.81778e+17
1.47673e+17
2.02817e+17
8.28623e+16
2.03709
1.89998e+17
9.72243e+16
2.57854e+16
2.03792e+17
2.05213e+17
1.9944e+17
1.98396e+17
1.95276e+17
2.02469e+17
2.01788e+17
1.50464e+17
1.14865e+17
3.8056e+16
1.00671e+16
2.03786
6.05764e+16
1.63154e+15
1.83614e+14
4.42846e+15
1.07139e+17
2.14837e+17
2.48587e+17
1.98233e+17
1.89665e+17
1.68435e+17
8.608e+16
5.96259e+16
2.94316e+16
1.84736e+15
2.04302
2.55766e+17
5.87316e+15
3.42552e+14
6.18403e+15
8.54629e+15
1.295e+17
9.57595e+16
1.27088e+17
1.15036e+17
2.50295e+16
1.66635e+15
4.85734e+14
3.71767e+15
2.17278e+14
2.06049
4.02218e+15
2.85377e+14
3.56599e+13
2.29088e+14
2.48984e+14
1.43349e+16
8.12327e+15
1.19581e+16
1.54821e+16
5.96468e+15
2.22659e+15
3.72359e+14
8.2856e+14
2.65318e+13
2.23655
7.40522e+13
1.02635e+14
9.57516e+13
1.45293e+14
8.77119e+13
1.42477e+14
2.69368e+14
1.03042e+14
2.25146e+14
8.91238e+14
7.09966e+14
1.20438e+14
1.18766e+13
6.74714e+13
2.96444
4.4365e+14
2.27089e+14
1.55471e+14
3.36964e+14
2.43038e+14
1.46368e+15
1.6243e+15
1.00429e+15
8.08551e+14
6.21423e+14
3.22819e+15
4.91088e+14
2.98433e+13
1.00611e+14
3.40475
7.44888e+14
3.39259e+14
1.25157e+14
4.24214e+14
3.87454e+14
2.62368e+15
1.63528e+15
1.15829e+15
2.00214e+15
7.78707e+14
4.91519e+15
1.8402e+15
3.06419e+13
9.90315e+13
3.7013
5.38053e+14
1.69312e+15
9.84301e+14
2.23749e+15
4.40207e+15
6.19383e+15
5.78465e+15
3.04708e+15
4.73974e+15
7.79489e+14
6.67171e+15
1.34305e+15
2.97647e+13
1.61372e+14
3.88698
3.66311e+14
1.70498e+15
6.86612e+14
4.29004e+15
3.20717e+15
5.36523e+15
3.42691e+15
1.13728e+16
8.20615e+15
7.77865e+14
5.21585e+15
3.62656e+15
2.08787e+13
1.11409e+14
4.02943
3.51723e+14
2.05311e+15
1.0961e+15
2.87688e+15
3.46733e+15
4.52543e+15
2.08519e+15
3.01567e+15
5.50902e+15
4.89783e+14
3.21805e+15
2.58061e+14
1.95302e+13
1.05293e+14
4.18496
2.49651e+14
1.1313e+15
7.99535e+14
2.95421e+15
2.74014e+15
2.84048e+15
1.34096e+15
1.84148e+15
3.11725e+15
2.50776e+14
2.32189e+15
2.41226e+15
1.93486e+13
8.84804e+13
4.34233
1.77563e+14
6.4112e+14
8.69359e+14
3.07686e+15
1.96488e+15
2.35153e+15
8.76794e+14
1.1626e+15
1.82315e+15
1.36562e+14
1.32614e+15
1.56798e+15
1.79137e+13
7.16931e+13
4.51044
9.76433e+13
3.53666e+14
9.88729e+14
3.41899e+15
1.43607e+15
1.79139e+15
7.28828e+14
1.03131e+15
1.1788e+15
7.82669e+13
8.23702e+14
7.6854e+14
1.74652e+13
5.49269e+13
4.70944
5.70072e+13
1.92873e+14
8.44465e+14
2.51717e+15
1.00914e+15
8.24316e+14
8.26479e+14
1.21166e+15
7.90356e+14
4.81758e+13
4.69935e+14
4.68349e+14
1.82706e+13
3.92122e+13
4.95784
3.36505e+13
1.07207e+14
9.29055e+14
2.95929e+15
7.48187e+14
5.57692e+14
8.95884e+14
1.13464e+15
5.62462e+14
3.28808e+13
3.50345e+14
3.04485e+14
1.97063e+13
2.57814e+13
5.26702
2.2272e+13
5.91533e+13
6.27077e+14
2.31505e+15
5.58511e+14
3.6694e+14
8.86289e+14
1.58529e+15
3.96526e+14
2.22142e+13
2.85618e+14
2.04793e+14
2.05721e+13
1.56063e+13
5.64242
1.78694e+13
3.46855e+13
4.37324e+14
2.36255e+15
4.38495e+14
2.94923e+14
8.55716e+14
1.93328e+15
3.17425e+14
1.78795e+13
2.22307e+14
1.72309e+14
1.6899e+13
8.83562e+12
6.07951
1.77886e+13
2.23244e+13
3.14677e+14
2.31386e+15
3.15355e+14
2.18317e+14
6.91658e+14
1.52531e+15
3.15294e+14
2.02321e+13
1.98484e+14
2.07145e+14
1.01596e+13
4.88734e+12
6.57479
1.59695e+13
1.61699e+13
2.55551e+14
2.99411e+15
2.33669e+14
2.08444e+14
7.00738e+14
1.38134e+15
4.09074e+14
2.28139e+13
1.09068e+14
1.33694e+14
5.96404e+12
2.85388e+12
7.16475
1.38691e+13
1.20099e+13
1.98596e+14
2.69683e+15
1.86709e+14
1.72788e+14
5.92621e+14
9.04187e+14
2.26448e+14
2.40145e+13
6.44388e+13
9.73253e+13
3.62258e+12
1.97562e+12
7.90852
1.10616e+13
8.86431e+12
8.51374e+13
1.62972e+15
2.05627e+14
1.63057e+14
4.93735e+14
5.95288e+14
1.63136e+14
2.61808e+13
4.07235e+13
8.44332e+13
2.21759e+12
1.71527e+12
8.7894
8.74694e+12
6.91146e+12
4.61298e+13
1.31347e+15
2.33143e+14
1.57127e+14
4.95824e+14
2.88776e+14
8.42422e+13
2.91132e+13
3.01768e+13
4.78582e+13
1.41935e+12
1.45227e+12
9.82279
7.94677e+12
6.49568e+12
7.67201e+13
6.67854e+14
1.8674e+14
1.54685e+14
4.2981e+14
2.27963e+14
6.87877e+13
3.24122e+13
2.29463e+13
1.69839e+13
1.05243e+12
1.36757e+12
11.058
7.8351e+12
7.12302e+12
3.10046e+14
3.03598e+14
1.58796e+14
1.57119e+14
3.69816e+14
2.12392e+14
6.75035e+13
2.92685e+13
1.42626e+13
8.99163e+12
8.80057e+11
1.29763e+12
12.4407
7.49623e+12
6.35899e+12
8.96691e+14
1.76502e+14
1.24584e+14
1.57124e+14
2.43393e+14
1.66908e+14
5.50718e+13
2.13319e+13
9.03224e+12
7.53085e+12
7.0949e+11
1.20102e+12
13.9217
9.07873e+12
7.35684e+12
2.13599e+14
1.64996e+14
9.48096e+13
1.40701e+14
5.51431e+13
2.05236e+14
6.35432e+13
1.80434e+13
5.68811e+12
6.22209e+12
5.54623e+11
1.09479e+12
15.4749
1.09531e+13
9.04897e+12
2.77545e+14
2.22418e+14
7.34825e+13
7.54783e+13
2.71834e+13
2.1714e+14
5.34962e+13
1.59953e+13
3.99774e+12
5.7316e+12
4.19772e+11
9.91101e+11
17.0892
1.19851e+13
8.95432e+12
2.83261e+14
5.16759e+14
5.6364e+13
4.74492e+13
1.96607e+13
2.06247e+14
4.53833e+13
1.33015e+13
3.75327e+12
5.04869e+12
3.07989e+11
8.9119e+11
18.7664
1.30368e+13
1.27628e+13
3.98985e+14
4.35766e+14
3.3536e+13
2.15233e+13
1.34927e+13
1.62069e+14
3.51992e+13
7.00124e+12
2.71584e+12
3.63219e+12
2.25265e+11
7.99492e+11
20.5235
1.22281e+13
2.11999e+13
2.08139e+15
2.34427e+14
1.53489e+13
2.06022e+13
1.04882e+13
7.2616e+13
3.59572e+13
4.3809e+12
2.41643e+12
2.24061e+12
1.64852e+11
7.30778e+11
22.3496
1.13776e+13
2.1582e+13
5.30436e+14
5.00656e+13
1.44628e+13
1.57209e+13
9.88868e+12
1.36772e+13
3.8067e+13
3.90804e+12
2.40284e+12
1.21153e+12
1.17508e+11
7.02407e+11
24.1512
7.92187e+12
1.10909e+13
1.77037e+14
2.27736e+13
1.68737e+13
1.6409e+13
9.03471e+12
6.09303e+12
4.26969e+13
4.78311e+12
2.00446e+12
5.48688e+11
5.81708e+10
7.76237e+11
25.7151
6.70062e+12
8.93042e+12
5.43395e+13
1.41016e+13
1.92528e+13
1.59504e+13
8.12732e+12
2.75661e+12
7.41993e+13
6.72453e+12
1.43706e+12
1.29131e+11
4.62695e+10
1.22163e+12
26.7019
7.17819e+12
7.60947e+12
2.7849e+13
1.64086e+13
1.92977e+13
1.71998e+13
8.67427e+12
3.86483e+12
1.04693e+12
1.42837e+13
1.46819e+12
1.27865e+11
2.82552e+10
7.5921e+11
27.4595
7.28142e+12
7.01543e+12
2.54702e+13
1.70591e+13
1.82216e+13
1.87468e+13
9.3037e+12
5.16878e+12
3.73754e+12
6.81282e+11
1.73657e+13
9.68264e+10
1.27099e+10
2.49103e+11
28.2307
7.80609e+12
7.2908e+12
2.81328e+13
1.61122e+13
1.9391e+13
2.38344e+13
9.87332e+12
1.56227e+12
3.62208e+12
1.61086e+12
5.00679e+11
1.027e+11
7.82873e+09
6.87763e+08
28.7411
1.12468e+13
1.0616e+13
2.73804e+13
1.52878e+13
1.75789e+13
3.35813e+13
1.30599e+13
1.18193e+13
2.07379e+12
1.67734e+12
4.88212e+11
6.89735e+10
7.28993e+09
4.01408e+08
53.9581
9.90776e+12
9.01607e+12
6.09519e+13
2.38099e+13
1.64208e+13
4.73331e+13
1.65766e+13
1.71193e+13
5.75598e+12
1.47993e+12
1.77677e+12
1.23235e+11
5.94125e+09
1.8574e+08
63.9733
9.42118e+12
1.18226e+13
2.94988e+13
1.26392e+13
1.32527e+13
3.16278e+13
8.86838e+12
2.98268e+13
4.8512e+13
1.05987e+13
1.97718e+12
1.38541e+11
5.04364e+09
6.02488e+07
68.7064
7.06478e+12
8.79964e+12
3.28039e+13
9.70052e+12
9.00556e+12
3.02593e+13
5.90845e+12
1.82545e+13
3.45864e+13
1.56235e+14
9.96299e+11
6.98681e+10
4.47139e+09
1.84999e+07
70.6458
4.90818e+12
6.55011e+12
5.06689e+13
7.43138e+12
1.01411e+13
4.13172e+13
7.73562e+12
1.90384e+13
1.63552e+14
6.60493e+12
4.61358e+11
3.28561e+10
3.92494e+09
6.67244e+06
71.3913
3.048e+12
4.03351e+12
1.26769e+14
5.61448e+12
9.27425e+12
6.51011e+13
2.61598e+13
2.76692e+13
6.64092e+14
1.76278e+16
2.30972e+11
1.65638e+10
3.41241e+09
2.61247e+06
71.7088
1.82201e+12
2.09675e+12
1.11879e+13
5.10585e+12
9.60517e+12
7.19328e+13
1.58966e+13
2.85611e+13
3.32018e+14
1.30899e+16
1.21795e+11
8.77336e+09
2.88393e+09
813488
71.8224
1.33564e+12
1.55746e+12
9.63295e+12
5.45397e+12
9.50129e+12
1.80932e+14
2.14714e+13
1.44371e+14
1.72079e+14
2.73463e+15
6.14408e+10
4.4333e+09
2.41128e+09
244594
71.7729
1.31285e+12
2.18755e+12
5.96322e+12
7.75511e+12
8.337e+13
1.49557e+14
1.3799e+13
3.75306e+13
8.91965e+13
1.37229e+15
3.07004e+10
2.21667e+09
1.14932e+09
99079.2
71.5908
1.29173e+12
1.31358e+12
2.59784e+12
5.17202e+12
1.0982e+13
1.80341e+14
2.00235e+13
2.23308e+13
4.79358e+13
7.0371e+14
1.45129e+10
1.05685e+09
3.73541e+08
86075.7
72.3668
8.62503e+11
8.59768e+11
1.50086e+12
3.18115e+12
5.28439e+12
1.21957e+14
5.14326e+14
1.3661e+13
3.19345e+13
6.12658e+10
4.6247e+09
3.40871e+08
860603
275934
100.954
5.62747e+11
7.25358e+11
7.14885e+11
1.76876e+12
2.33375e+12
7.73372e+13
3.10158e+13
8.23706e+12
2.36724e+13
1.25556e+10
8.07327e+08
5.10409e+07
279887
339330
129.707
2.33732e+11
4.2396e+11
5.31875e+11
8.39964e+11
1.0868e+12
5.25364e+13
2.12353e+13
5.65092e+12
1.84792e+13
1.63343e+10
1.454e+09
5.54909e+06
651976
563575
153.58
9.10379e+10
2.01158e+11
2.95458e+11
4.18007e+11
5.26605e+11
3.76438e+13
1.48635e+13
4.12659e+12
1.50388e+13
2.42806e+10
2.47628e+09
1.92217e+08
930757
783014
173.276
4.58376e+10
8.72232e+10
1.50263e+11
2.12586e+11
2.5877e+11
2.76382e+13
1.09607e+13
3.09092e+12
1.25213e+13
5.65241e+10
3.80939e+09
2.80324e+08
1.67501e+06
966314
189.711
3.48418e+10
3.95058e+10
1.04484e+11
1.09922e+11
1.25369e+11
1.99408e+13
7.74491e+12
2.16013e+12
9.28687e+12
1.68723e+13
7.23975e+08
5.22747e+07
2.65621e+06
1.69921e+06
205.592
3.38877e+10
2.57286e+10
4.0657e+10
6.00661e+10
5.90418e+10
1.2169e+13
4.7759e+12
1.3474e+12
6.12324e+12
8.24927e+15
7.56224e+10
5.46099e+07
1.65014e+06
2.97925e+06
225.15
3.79451e+10
2.52274e+10
1.8546e+10
3.62844e+10
2.70948e+10
5.3782e+12
2.66097e+12
6.59646e+11
2.67618e+12
6.95551e+10
4.46115e+09
2.68696e+07
952682
3.71155e+06
247.112
4.29251e+10
2.69594e+10
6.85345e+09
2.86282e+10
1.22115e+10
1.90254e+12
1.14531e+12
2.95242e+11
7.96755e+11
2.37797e+08
9.3056e+07
4.48632e+06
1.98035e+06
3.78133e+06
271.942
4.59217e+10
3.12918e+10
8.06451e+09
1.41523e+10
5.63841e+09
2.0987e+11
5.32566e+10
3.5418e+10
1.17433e+10
1.13134e+07
5.64819e+06
1.97466e+06
2.40618e+06
3.77064e+06
296.38
4.72536e+10
3.4638e+10
7.20144e+09
2.89115e+09
1.63433e+09
5.30099e+09
5.77533e+08
5.12771e+09
3.35031e+08
8.93071e+06
3.70103e+06
3.7635e+06
2.59219e+06
3.74633e+06
317.391
5.04633e+10
3.96617e+10
3.21795e+10
2.81682e+09
1.79597e+09
5.54808e+08
1.81816e+08
1.52764e+08
8.98338e+06
6.6645e+06
6.84745e+06
4.75552e+06
2.64429e+06
3.01238e+06
335.117
4.08582e+10
3.07704e+10
1.56443e+10
1.93048e+09
1.55671e+09
5.82989e+08
2.57645e+08
1.00366e+08
7.80786e+06
1.24746e+07
9.22027e+06
5.26174e+06
2.40865e+06
1.65262e+06
352.508
3.35289e+10
2.6892e+10
1.20425e+10
1.40303e+09
1.31502e+09
5.11634e+08
2.21047e+08
1.49058e+07
2.34954e+07
1.77018e+07
1.09401e+07
5.09156e+06
1.78893e+06
711336
374.306
3.30327e+10
2.5368e+10
1.22245e+10
1.19712e+09
1.07767e+09
4.06443e+08
2.75811e+07
4.33843e+07
3.39924e+07
2.30755e+07
1.19451e+07
4.48591e+06
1.2165e+06
325463
403.397
3.52256e+10
2.28504e+10
1.04357e+10
1.20205e+09
8.46963e+08
3.90305e+07
7.48329e+07
5.84085e+07
3.93163e+07
2.58347e+07
1.21823e+07
3.92967e+06
945308
197049
428.985
3.85581e+10
1.98957e+10
6.3008e+09
1.6501e+09
9.99991e+07
1.00622e+08
9.32095e+07
7.74981e+07
4.86999e+07
2.7352e+07
1.16328e+07
3.48062e+06
954801
190060
434.684
4.72804e+10
1.93715e+10
3.1339e+09
1.6164e+08
2.39089e+08
1.87885e+08
1.57386e+08
1.16046e+08
6.29204e+07
2.81752e+07
1.05045e+07
2.81405e+06
552836
299620
430.707
7.92494e+10
3.37742e+10
6.51835e+09
9.84213e+08
4.26071e+08
3.40045e+08
2.76251e+08
1.86158e+08
8.93554e+07
3.33727e+07
1.16147e+07
2.93001e+06
549909
100157
406.205
1.70932e+11
7.73927e+10
1.549e+10
2.05011e+09
2.07008e+09
1.81217e+09
1.46123e+09
7.57825e+08
2.75657e+08
8.33764e+07
2.83502e+07
6.3274e+06
1.02165e+06
220500
386.383
1.89601e+11
8.69489e+10
2.59907e+10
9.36449e+09
7.87317e+09
6.83023e+09
5.0985e+09
2.59147e+09
8.71688e+08
2.47574e+08
6.98135e+07
2.04616e+07
4.04169e+06
984081
397.952
4.12308e+11
2.00111e+11
6.5551e+10
2.92988e+10
2.20071e+10
1.76567e+10
1.16181e+10
5.31582e+09
1.81225e+09
5.42106e+08
1.47599e+08
5.27308e+07
1.14851e+07
2.00218e+06
432.88
5.42939e+11
3.2668e+11
1.3626e+11
6.47358e+10
4.54169e+10
3.58851e+10
2.30583e+10
9.79455e+09
3.25497e+09
9.87331e+08
2.51512e+08
6.50093e+07
1.56277e+07
4.52552e+06
495.607
5.36154e+11
3.69913e+11
1.88287e+11
9.93255e+10
6.68472e+10
5.0647e+10
3.13535e+10
1.23961e+10
4.14277e+09
1.38221e+09
3.98872e+08
1.26042e+08
3.57608e+07
1.42098e+07
548.252
4.84684e+11
3.5876e+11
2.09927e+11
1.18487e+11
7.08905e+10
5.04797e+10
3.04351e+10
1.14775e+10
3.93214e+09
1.61177e+09
5.72771e+08
1.87021e+08
6.28954e+07
2.53551e+07
634.006
4.8147e+11
4.00796e+11
2.49553e+11
1.36517e+11
7.3115e+10
4.20814e+10
2.09347e+10
5.00408e+09
1.41926e+09
7.00225e+08
4.44748e+08
2.12376e+08
8.37398e+07
1.66366e+08
1.42576e+07
7.26604e+11
6.37155e+11
3.68771e+11
1.89185e+11
8.93072e+10
3.86284e+10
1.47392e+10
4.16587e+09
4.78975e+08
3.5019e+08
6.1336e+08
4.04717e+08
2.46531e+08
2.77217e+08
2.49053e+08
4.91826e+13
4.46792e+13
2.90609e+13
1.72491e+13
9.38269e+12
4.462e+12
1.49166e+12
3.23281e+11
8.79193e+10
1.93472e+10
2.59066e+09
2.43316e+08
1.2907e+09
1.03521e+09
7.75942e+08
1.0293e+15
9.63986e+14
7.43493e+14
5.43618e+14
3.74094e+14
2.15183e+14
1.13893e+14
5.02635e+13
1.67475e+13
4.70212e+12
1.6124e+12
3.41258e+11
6.39037e+09
6.52816e+09
6.46732e+09
3.21942e+15
3.35035e+15
3.76141e+15
4.0302e+15
3.70542e+15
2.64561e+15
1.48501e+15
6.98643e+14
2.81439e+14
9.50409e+13
3.01552e+13
1.06477e+13
2.29568e+12
1.06878e+12
1.00161e+12
5.10692e+15
5.17635e+15
4.61132e+15
3.83352e+15
2.91979e+15
1.86779e+15
1.07679e+15
5.43226e+14
2.23695e+14
7.85516e+13
2.47123e+13
1.24083e+13
1.39873e+13
1.48286e+13
1.59707e+13
2.63427e+15
2.43468e+15
1.72758e+15
1.04886e+15
5.83849e+14
2.98689e+14
2.02569e+14
1.43005e+14
8.60541e+13
3.853e+13
1.06959e+13
3.17365e+12
4.31961e+12
4.59633e+12
4.44455e+12
1.26542e+15
1.09726e+15
6.55662e+14
3.45893e+14
1.6881e+14
8.6135e+13
5.08037e+13
3.98872e+13
2.54248e+13
1.04825e+13
1.58206e+12
9.11235e+11
7.62974e+11
7.85146e+11
7.58702e+11
4.09036e+15
3.65965e+15
2.33769e+15
1.29594e+15
6.64016e+14
3.20476e+14
1.33403e+14
4.92705e+13
8.25936e+12
9.99335e+11
4.81951e+11
2.07154e+11
3.98898e+11
4.46748e+11
4.30638e+11
1.07329e+15
9.22406e+14
6.57166e+14
3.87147e+14
1.91002e+14
8.15713e+13
2.96865e+13
7.15897e+12
7.38864e+11
4.29536e+11
2.54011e+11
3.11957e+11
3.68711e+11
4.28001e+11
4.05645e+11
2.02072e+15
2.32665e+15
1.88267e+15
1.28992e+15
6.90291e+14
3.09126e+14
1.40168e+14
4.65096e+13
1.11335e+13
5.48864e+11
3.92915e+11
4.27966e+11
5.74498e+11
5.62452e+11
4.80066e+11
9.80956e+14
2.12961e+15
2.1795e+15
2.85064e+14
1.41372e+14
1.0448e+14
5.32853e+13
1.5258e+13
2.53529e+12
1.47547e+12
9.3305e+11
9.25662e+11
8.8594e+11
7.04367e+11
5.44633e+11
8.72661e+14
8.29401e+14
5.89796e+14
3.82942e+14
2.60614e+14
1.50442e+14
6.74517e+13
2.93873e+13
1.3795e+13
7.72819e+12
5.03541e+12
3.61216e+12
2.69253e+12
2.12348e+12
1.81881e+12
2.04068e+15
1.86521e+15
1.3449e+15
1.00323e+15
7.68113e+14
5.568e+14
3.32245e+14
1.6717e+14
7.7901e+13
3.56014e+13
1.75295e+13
1.03855e+13
7.42309e+12
5.86562e+12
5.00686e+12
2.91543e+15
2.6665e+15
2.74906e+15
2.12668e+15
1.97997e+15
1.7866e+15
1.60243e+15
1.19125e+15
7.95421e+14
4.82826e+14
2.54886e+14
1.19652e+14
5.44789e+13
2.70214e+13
1.67603e+13
2.61619e+15
2.94024e+15
3.52238e+15
3.60194e+15
3.2385e+15
3.17213e+15
3.38942e+15
3.18447e+15
2.2314e+15
1.35502e+15
1.03911e+15
7.57667e+14
4.52395e+14
2.42827e+14
1.61047e+14
1.28045e+15
1.41432e+15
1.80354e+15
2.69693e+15
2.93953e+15
3.26586e+15
3.3443e+15
3.45878e+15
3.33478e+15
2.81663e+15
2.08868e+15
1.41876e+15
1.06959e+15
1.00163e+15
1.4082e+15
2.28353e+15
2.39617e+15
2.30479e+15
2.23535e+15
2.3187e+15
2.81204e+15
3.09683e+15
3.82455e+15
4.43069e+15
4.43206e+15
3.9303e+15
3.23273e+15
2.70008e+15
2.66077e+15
4.32581e+15
1.40807e+15
1.50671e+15
1.65029e+15
1.68453e+15
1.73607e+15
2.35976e+15
3.42863e+15
4.3527e+15
4.45983e+15
4.99865e+15
5.38035e+15
5.41272e+15
5.64757e+15
7.31578e+15
1.16307e+16
2.90155e+15
3.12434e+15
3.23553e+15
3.07533e+15
2.66932e+15
2.33156e+15
2.34432e+15
2.77817e+15
3.15503e+15
4.11658e+15
4.81684e+15
5.15391e+15
5.27648e+15
6.24106e+15
1.03691e+16
1.83296e+15
2.02957e+15
2.52906e+15
2.81624e+15
2.69342e+15
2.44437e+15
2.19625e+15
2.01862e+15
1.89781e+15
2.22292e+15
2.7394e+15
3.10249e+15
3.32699e+15
4.45597e+15
6.96652e+15
3.38293e+15
3.6424e+15
3.73851e+15
3.34288e+15
3.10394e+15
3.05082e+15
2.83204e+15
2.31134e+15
1.51732e+15
9.78683e+14
1.41697e+15
2.0539e+15
2.55491e+15
3.56397e+15
5.72852e+15
2.25506e+15
2.4534e+15
2.78626e+15
2.79962e+15
2.39457e+15
2.59496e+15
2.78069e+15
2.51946e+15
1.76507e+15
9.36061e+14
4.61102e+14
5.87417e+14
8.7851e+14
1.35935e+15
2.47736e+15
4.49337e+15
4.87935e+15
4.98972e+15
4.47584e+15
3.86963e+15
3.62508e+15
3.61935e+15
3.3664e+15
2.72711e+15
1.60022e+15
7.27473e+14
4.65144e+14
3.86716e+14
3.4219e+14
3.3678e+14
3.22147e+15
3.46687e+15
3.501e+15
3.07582e+15
2.46579e+15
2.36038e+15
2.48373e+15
2.67554e+15
2.57244e+15
2.12418e+15
1.47706e+15
1.14932e+15
9.06342e+14
6.59256e+14
4.61316e+14
2.34863e+15
2.52236e+15
2.51975e+15
2.38461e+15
2.42416e+15
2.2244e+15
2.2001e+15
2.37559e+15
2.38957e+15
2.14137e+15
1.74698e+15
1.64774e+15
1.61018e+15
1.47565e+15
1.25283e+15
2.62869e+15
2.75119e+15
2.44485e+15
2.14529e+15
2.18247e+15
2.25237e+15
2.06835e+15
1.39238e+15
8.99076e+14
8.79365e+14
1.01925e+15
1.20928e+15
1.32561e+15
1.31112e+15
1.26523e+15
1.52456e+15
1.72586e+15
2.11127e+15
2.38844e+15
2.41701e+15
1.99806e+15
1.4162e+15
7.57287e+14
5.21582e+14
5.58768e+14
7.42483e+14
9.24632e+14
1.07529e+15
1.15905e+15
1.19595e+15
2.60701e+15
2.83617e+15
2.74174e+15
2.4552e+15
1.96487e+15
1.51024e+15
1.14075e+15
8.49825e+14
5.37367e+14
4.69773e+14
5.13249e+14
6.13417e+14
7.44961e+14
8.39962e+14
9.10872e+14
1.93882e+15
2.3734e+15
2.78065e+15
2.74859e+15
2.22977e+15
1.52596e+15
8.62045e+14
4.64124e+14
3.26133e+14
3.72157e+14
4.68543e+14
5.09527e+14
5.09775e+14
5.24285e+14
5.45621e+14
2.45736e+15
3.04984e+15
3.36308e+15
3.2055e+15
2.56484e+15
1.88396e+15
1.28925e+15
6.8955e+14
3.57562e+14
3.88385e+14
4.26596e+14
4.44248e+14
4.78025e+14
5.2692e+14
6.22732e+14
3.23083e+15
4.02812e+15
4.30738e+15
3.93292e+15
3.00624e+15
2.1257e+15
1.55528e+15
9.76682e+14
4.412e+14
3.30612e+14
3.27901e+14
3.81597e+14
4.84365e+14
5.95757e+14
7.43358e+14
4.82528e+15
5.59254e+15
5.29095e+15
4.40333e+15
3.01056e+15
1.8004e+15
1.22733e+15
8.33663e+14
4.34247e+14
3.44741e+14
3.45208e+14
3.56035e+14
3.8073e+14
4.30047e+14
5.11561e+14
4.4081e+15
5.17724e+15
4.8065e+15
3.55974e+15
1.97923e+15
8.3271e+14
4.17833e+14
3.20108e+14
3.48495e+14
3.69946e+14
3.68931e+14
3.34963e+14
3.41128e+14
4.0988e+14
5.03929e+14
4.13594e+15
5.06382e+15
4.75584e+15
3.39993e+15
1.7975e+15
7.45982e+14
3.89146e+14
2.75507e+14
2.68874e+14
3.12949e+14
3.54316e+14
4.00356e+14
4.74476e+14
5.56402e+14
6.62057e+14
4.71871e+15
6.23961e+15
6.09658e+15
4.5225e+15
2.48224e+15
1.05495e+15
4.75137e+14
2.50251e+14
2.52346e+14
2.80731e+14
3.03409e+14
3.9013e+14
5.26858e+14
6.78671e+14
8.73159e+14
4.99826e+15
6.20537e+15
5.91469e+15
4.29545e+15
2.32456e+15
8.85269e+14
3.52344e+14
2.2935e+14
2.51738e+14
2.78825e+14
3.17199e+14
4.45393e+14
6.20072e+14
8.19453e+14
1.03464e+15
4.46181e+15
5.27908e+15
4.80877e+15
3.32272e+15
1.67007e+15
5.57879e+14
1.95706e+14
1.92189e+14
2.0157e+14
2.19861e+14
2.72495e+14
3.76426e+14
4.68736e+14
5.50166e+14
6.41723e+14
4.32518e+15
5.48452e+15
5.23993e+15
3.82027e+15
2.09836e+15
7.66169e+14
1.77878e+14
1.44664e+14
1.51953e+14
1.71427e+14
2.22669e+14
3.46272e+14
4.57248e+14
5.61885e+14
6.78602e+14
2.35747e+15
2.9088e+15
2.78018e+15
2.01752e+15
1.06548e+15
3.7417e+14
1.58483e+14
1.4201e+14
1.31673e+14
1.53672e+14
2.40936e+14
3.50527e+14
4.35971e+14
5.25208e+14
6.32099e+14
1.46479e+15
1.86795e+15
1.84481e+15
1.40339e+15
8.10482e+14
3.33519e+14
1.7541e+14
1.74408e+14
1.78939e+14
2.14513e+14
3.01882e+14
3.9471e+14
4.69583e+14
5.46718e+14
6.39571e+14
5.57529e+14
5.88258e+14
5.48207e+14
4.35822e+14
2.55507e+14
1.85587e+14
1.97129e+14
2.07588e+14
2.09232e+14
2.29201e+14
2.95992e+14
3.69614e+14
4.41324e+14
5.16826e+14
6.03185e+14
3.51577e+14
3.68031e+14
3.25368e+14
2.9541e+14
2.64962e+14
2.10518e+14
1.7239e+14
1.7349e+14
2.31859e+14
2.53797e+14
3.59286e+14
4.26192e+14
4.73736e+14
5.15121e+14
5.72944e+14
1.8873e+14
1.94888e+14
1.72769e+14
1.53468e+14
1.53965e+14
1.53035e+14
1.44504e+14
1.45812e+14
2.03549e+14
2.94305e+14
3.86048e+14
4.48864e+14
4.81195e+14
5.20606e+14
5.80134e+14
1.45045e+14
1.49772e+14
1.33998e+14
1.22382e+14
1.44786e+14
1.63554e+14
1.78216e+14
1.9546e+14
2.39177e+14
3.24376e+14
4.19975e+14
4.79734e+14
5.10305e+14
5.34683e+14
5.6559e+14
1.13273e+14
1.23145e+14
1.27668e+14
1.32454e+14
1.52142e+14
1.72224e+14
1.91049e+14
2.02256e+14
2.43384e+14
3.13768e+14
3.82961e+14
4.35494e+14
4.59242e+14
4.81075e+14
5.04724e+14
9.32928e+13
9.76917e+13
9.1294e+13
9.04897e+13
1.05294e+14
1.17285e+14
1.34354e+14
1.69622e+14
2.37119e+14
3.16166e+14
3.89825e+14
4.49304e+14
4.89042e+14
5.18956e+14
5.45614e+14
7.97028e+13
8.6021e+13
9.7687e+13
1.13905e+14
1.25462e+14
1.30465e+14
1.33587e+14
1.5939e+14
2.3002e+14
3.21075e+14
3.90079e+14
4.43343e+14
4.81389e+14
5.14125e+14
5.47574e+14
8.88658e+13
1.00127e+14
1.06769e+14
1.15136e+14
1.19303e+14
1.1959e+14
1.14268e+14
1.22601e+14
2.20305e+14
3.09496e+14
3.64975e+14
4.03665e+14
4.3387e+14
4.58159e+14
4.7843e+14
6.93958e+13
7.57184e+13
8.45161e+13
9.36775e+13
1.03586e+14
1.13545e+14
1.17937e+14
1.34414e+14
2.49639e+14
3.22476e+14
3.6165e+14
3.88289e+14
4.03264e+14
4.13794e+14
4.22447e+14
5.65066e+13
6.04814e+13
6.28438e+13
6.58902e+13
6.74175e+13
6.98741e+13
8.03409e+13
1.33377e+14
2.33148e+14
3.24741e+14
3.65743e+14
3.84881e+14
3.90264e+14
3.93461e+14
4.03651e+14
4.58823e+13
4.85063e+13
5.09199e+13
5.8047e+13
6.74031e+13
7.58245e+13
8.97005e+13
1.57797e+14
2.67428e+14
3.38657e+14
3.6522e+14
3.75348e+14
3.78491e+14
3.89395e+14
4.18343e+14
4.04505e+13
4.33707e+13
4.25083e+13
5.10501e+13
6.20428e+13
7.06048e+13
8.9511e+13
1.69537e+14
2.70532e+14
3.3773e+14
3.61323e+14
3.65228e+14
3.5725e+14
3.57332e+14
3.73091e+14
3.42476e+13
3.82638e+13
4.04185e+13
4.47435e+13
4.93824e+13
5.58643e+13
1.13813e+14
2.2352e+14
3.18247e+14
3.58611e+14
3.73595e+14
3.68211e+14
3.50537e+14
3.39768e+14
3.44766e+14
5.09239e+13
5.23836e+13
4.66297e+13
5.06903e+13
5.78377e+13
6.8419e+13
1.00293e+14
1.89075e+14
2.70268e+14
3.14469e+14
3.40792e+14
3.43073e+14
3.31011e+14
3.16506e+14
3.12913e+14
4.83669e+13
4.77303e+13
3.81008e+13
4.10111e+13
4.75069e+13
5.83668e+13
1.21154e+14
1.89577e+14
2.54117e+14
2.9764e+14
3.30897e+14
3.34655e+14
3.21582e+14
3.05366e+14
2.98151e+14
4.0632e+13
4.41004e+13
3.84779e+13
3.66392e+13
3.96409e+13
6.74768e+13
1.30662e+14
1.94632e+14
2.28204e+14
2.62979e+14
2.80569e+14
2.8438e+14
2.78582e+14
2.71371e+14
2.68533e+14
7.21964e+12
9.48229e+12
1.68543e+13
2.6974e+13
4.1152e+13
8.55231e+13
1.67519e+14
1.9862e+14
2.0986e+14
2.25981e+14
2.33793e+14
2.33164e+14
2.28498e+14
2.25734e+14
2.26641e+14
2.71304e+13
3.75462e+13
5.10212e+13
6.7413e+13
8.24181e+13
9.76577e+13
1.52522e+14
1.94958e+14
2.09401e+14
2.16171e+14
2.18095e+14
2.15993e+14
2.13235e+14
2.10427e+14
2.11533e+14
4.69542e+13
6.05042e+13
7.83012e+13
9.72114e+13
1.12139e+14
1.35946e+14
1.49776e+14
1.70328e+14
1.7689e+14
1.81833e+14
1.81472e+14
1.77176e+14
1.73579e+14
1.72519e+14
1.75584e+14
4.60083e+13
5.44417e+13
7.03598e+13
8.97675e+13
1.10669e+14
1.31677e+14
1.1735e+14
1.41408e+14
1.39648e+14
1.35944e+14
1.32617e+14
1.28819e+14
1.29009e+14
1.31284e+14
1.40664e+14
4.39916e+13
4.96947e+13
6.22804e+13
7.52742e+13
8.64766e+13
1.01237e+14
1.69952e+14
1.79462e+14
1.61924e+14
1.52628e+14
1.39962e+14
1.25631e+14
1.23048e+14
1.28262e+14
1.50972e+14
4.03985e+13
4.49484e+13
5.59281e+13
6.86412e+13
8.32409e+13
1.10234e+14
1.53017e+14
1.82e+14
1.81488e+14
1.72516e+14
1.62241e+14
1.55832e+14
1.54285e+14
1.59265e+14
2.06886e+14
3.44922e+13
3.81977e+13
4.74216e+13
5.84878e+13
6.91202e+13
8.9239e+13
1.41269e+14
1.73789e+14
1.80458e+14
1.77237e+14
1.73369e+14
1.74254e+14
1.75739e+14
1.94312e+14
2.71726e+14
2.90203e+13
3.20671e+13
4.03573e+13
5.23081e+13
6.74607e+13
8.87306e+13
1.18293e+14
1.49307e+14
1.67652e+14
1.72759e+14
1.71496e+14
1.77265e+14
1.84081e+14
2.12898e+14
3.25128e+14
2.41245e+13
2.64057e+13
3.24443e+13
4.04994e+13
5.0652e+13
6.6628e+13
1.0862e+14
1.53322e+14
1.79035e+14
1.87501e+14
1.92468e+14
1.96739e+14
2.02025e+14
2.34955e+14
3.47722e+14
1.98409e+13
2.16452e+13
2.65558e+13
3.34845e+13
4.26151e+13
5.77224e+13
8.34586e+13
1.18451e+14
1.4578e+14
1.61211e+14
1.76979e+14
1.88956e+14
2.04145e+14
2.42152e+14
3.25962e+14
1.58068e+13
1.72256e+13
2.10367e+13
2.64462e+13
3.36717e+13
4.53447e+13
6.94924e+13
1.00856e+14
1.28879e+14
1.45555e+14
1.62401e+14
1.69899e+14
1.89502e+14
2.23446e+14
2.92164e+14
1.17721e+13
1.28421e+13
1.57334e+13
1.99742e+13
2.65924e+13
3.8987e+13
5.97919e+13
8.62937e+13
1.10885e+14
1.35132e+14
1.53531e+14
1.60032e+14
1.71325e+14
1.97075e+14
2.49925e+14
8.36534e+12
9.09052e+12
1.10514e+13
1.38237e+13
1.83841e+13
2.76791e+13
4.45848e+13
6.7873e+13
9.68283e+13
1.21193e+14
1.38199e+14
1.46366e+14
1.51584e+14
1.6797e+14
2.05088e+14
6.13927e+12
6.64316e+12
7.98771e+12
9.78561e+12
1.26825e+13
1.93483e+13
3.30117e+13
5.44412e+13
8.15746e+13
1.06513e+14
1.21535e+14
1.25014e+14
1.35956e+14
1.41219e+14
1.65113e+14
4.55042e+12
4.90823e+12
5.88858e+12
7.35316e+12
1.00215e+13
1.55883e+13
2.61752e+13
4.2625e+13
6.56128e+13
9.02632e+13
1.07023e+14
1.11471e+14
1.14811e+14
1.17154e+14
1.30986e+14
3.40804e+12
3.65968e+12
4.35609e+12
5.4106e+12
7.57347e+12
1.24461e+13
2.20666e+13
3.55183e+13
5.06278e+13
6.70199e+13
8.44583e+13
9.34345e+13
9.62294e+13
9.92187e+13
1.09822e+14
2.69143e+12
2.9236e+12
3.64705e+12
4.85474e+12
6.97779e+12
1.11868e+13
1.8575e+13
2.84415e+13
3.92741e+13
5.49672e+13
6.63519e+13
7.28042e+13
7.70823e+13
8.31873e+13
9.27639e+13
2.07118e+12
2.25306e+12
2.88462e+12
3.98016e+12
5.88569e+12
9.38529e+12
1.51665e+13
2.30894e+13
3.15531e+13
4.14988e+13
4.50538e+13
5.17236e+13
5.74094e+13
6.8226e+13
7.72241e+13
1.83096e+12
2.01795e+12
2.60993e+12
3.60681e+12
5.24881e+12
7.99801e+12
1.23367e+13
1.84363e+13
2.65675e+13
3.35186e+13
3.44813e+13
3.85989e+13
4.35202e+13
5.29708e+13
5.92265e+13
1.38137e+12
1.51754e+12
2.01103e+12
2.87367e+12
4.38812e+12
6.96586e+12
1.07302e+13
1.56437e+13
2.14479e+13
2.87379e+13
3.39262e+13
3.59284e+13
3.82089e+13
4.12912e+13
4.50713e+13
1.34214e+12
1.49606e+12
1.98621e+12
2.82124e+12
4.22135e+12
6.42991e+12
9.33052e+12
1.28278e+13
1.73305e+13
2.28737e+13
2.55228e+13
2.73549e+13
3.04127e+13
3.22809e+13
3.45197e+13
1.20602e+12
1.3377e+12
1.77906e+12
2.54817e+12
3.79225e+12
5.59485e+12
7.81336e+12
1.04357e+13
1.39275e+13
1.81141e+13
2.18618e+13
2.40046e+13
2.51715e+13
2.56202e+13
2.74376e+13
1.13771e+12
1.25919e+12
1.6558e+12
2.33548e+12
3.38237e+12
4.83101e+12
6.57563e+12
8.52115e+12
1.10055e+13
1.39761e+13
1.6945e+13
1.88996e+13
1.98764e+13
2.06513e+13
2.26137e+13
1.03879e+12
1.14703e+12
1.49947e+12
2.08103e+12
2.91426e+12
3.99483e+12
5.26557e+12
6.62942e+12
8.13799e+12
9.72738e+12
1.19106e+13
1.39509e+13
1.51883e+13
1.60538e+13
1.71529e+13
8.67779e+11
9.43955e+11
1.19012e+12
1.59658e+12
2.19918e+12
3.02222e+12
4.01497e+12
5.04751e+12
6.10938e+12
7.23039e+12
8.9569e+12
1.08547e+13
1.17376e+13
1.23717e+13
1.32199e+13
7.62413e+11
8.26553e+11
1.0206e+12
1.32343e+12
1.74133e+12
2.30043e+12
3.04014e+12
3.99357e+12
5.16463e+12
6.48707e+12
7.55084e+12
8.45166e+12
9.11164e+12
9.565e+12
1.0326e+13
6.22625e+11
6.68703e+11
8.09819e+11
1.03861e+12
1.37439e+12
1.83813e+12
2.45056e+12
3.22841e+12
4.12636e+12
5.06123e+12
5.81186e+12
6.60575e+12
7.08331e+12
7.47757e+12
8.01839e+12
5.13592e+11
5.49684e+11
6.56963e+11
8.2723e+11
1.07052e+12
1.41865e+12
1.91543e+12
2.5706e+12
3.34055e+12
4.1006e+12
4.70371e+12
5.13855e+12
5.5116e+12
5.75125e+12
6.16081e+12
4.24471e+11
4.53675e+11
5.41068e+11
6.85529e+11
9.0366e+11
1.21306e+12
1.61409e+12
2.08354e+12
2.58072e+12
3.04024e+12
3.44528e+12
3.86548e+12
4.14899e+12
4.39209e+12
4.69857e+12
3.55134e+11
3.79161e+11
4.50231e+11
5.67069e+11
7.37838e+11
9.70942e+11
1.27218e+12
1.63536e+12
2.0456e+12
2.47237e+12
2.7923e+12