/*--------------------------------*- C++ -*----------------------------------*\
  =========                 |
  \\      /  F ield         | OpenFOAM: The Open Source CFD Toolbox
   \\    /   O peration     | Website:  https://openfoam.org
    \\  /    A nd           | Version:  7
     \\/     M anipulation  |
\*---------------------------------------------------------------------------*/
FoamFile
{
    version     2.0;
    format      ascii;
    class       surfaceScalarField;
    location    "400";
    object      phi;
}
// * * * * * * * * * * * * * * * * * * * * * * * * * * * * * * * * * * * * * //

dimensions      [0 3 -1 0 0 0 0];

internalField   nonuniform List<scalar> 
63695
(
-1.67728e-05
-0.000213743
-6.89178e-05
-0.00063267
-0.000153021
-0.00101669
-0.00026553
-0.00133833
-0.000397702
-0.00157358
-0.0005424
-0.00169789
-0.000688676
-0.00168722
-0.000823511
-0.00151863
-0.000931292
-0.00116755
-0.000987531
-0.000604184
-0.000946048
0.000208438
-0.000705312
0.00130578
-2.60383e-05
0.00270562
0.00172487
0.00436694
0.00615949
-1.73638e-05
-0.000199117
-7.30214e-05
-0.000589881
-0.000162359
-0.000947886
-0.000282271
-0.00125078
-0.000426214
-0.00147542
-0.000587357
-0.0015993
-0.000756396
-0.00160017
-0.000922159
-0.00145577
-0.001071
-0.00114188
-0.00118283
-0.000631426
-0.00122538
0.000107147
-0.00114698
0.00111118
-0.000883849
0.00244307
-0.000769219
0.00432953
0.00719795
-1.86185e-05
-0.000203552
-7.88562e-05
-0.000603013
-0.000175524
-0.000970525
-0.000306112
-0.00128376
-0.000465595
-0.00151943
-0.000648001
-0.00165508
-0.00084584
-0.00166825
-0.00105012
-0.00153594
-0.0012501
-0.00123361
-0.00143287
-0.000734242
-0.0015821
-6.06363e-06
-0.00168535
0.000992189
-0.00176513
0.0023326
-0.00195966
0.00417731
0.00667026
-2.031e-05
-0.000209408
-8.61306e-05
-0.000620699
-0.000192253
-0.00100073
-0.000336756
-0.00132746
-0.000515448
-0.00157708
-0.000723531
-0.00172741
-0.000955086
-0.00175581
-0.0012033
-0.00163885
-0.00146092
-0.00135169
-0.00172037
-0.000867154
-0.00197819
-0.000153945
-0.00224132
0.000828619
-0.0025452
0.00214329
-0.0029544
0.00388236
0.00601844
-2.23193e-05
-0.000217621
-9.47675e-05
-0.000645543
-0.000211896
-0.00104225
-0.000372546
-0.0013875
-0.000573371
-0.00165515
-0.000810431
-0.00182361
-0.00107922
-0.00187019
-0.00137486
-0.00177117
-0.00169249
-0.00150152
-0.00202991
-0.00103405
-0.00239025
-0.000339032
-0.00278322
0.000620728
-0.00323802
0.00189401
-0.00378505
0.00352218
0.00542421
-2.45395e-05
-0.000227978
-0.000104213
-0.000677134
-0.00023368
-0.00109563
-0.000412544
-0.00146306
-0.000637683
-0.00175192
-0.000906206
-0.00194186
-0.00121471
-0.00200979
-0.00155985
-0.00193169
-0.00193904
-0.00168234
-0.00235294
-0.00123563
-0.00280545
-0.000563414
-0.00330514
0.000367773
-0.00387266
0.00159423
-0.00452194
0.00312914
0.00488427
-2.70293e-05
-0.000240258
-0.000114825
-0.000714555
-0.000257564
-0.00116038
-0.000455701
-0.00155258
-0.000706987
-0.0018666
-0.00100878
-0.00208149
-0.00135872
-0.00217412
-0.00175456
-0.00212021
-0.00219539
-0.00189448
-0.00268246
-0.00147241
-0.00321886
-0.000827405
-0.00381095
7.1124e-05
-0.00447131
0.00125213
-0.00520676
0.00271548
0.0043796
-2.95201e-05
-0.00025439
-0.00012586
-0.000758201
-0.000283239
-0.00123495
-0.000501957
-0.00165587
-0.000780419
-0.00199867
-0.00111679
-0.00224202
-0.0015093
-0.00236289
-0.0019565
-0.00233657
-0.00245821
-0.00213792
-0.00301566
-0.00174405
-0.00363085
-0.00113006
-0.00430729
-0.000266412
-0.00505103
0.000871972
-0.00586698
0.00228151
0.00388783
-3.19895e-05
-0.000269919
-0.000136737
-0.000807743
-0.000309527
-0.00131961
-0.000550237
-0.00177294
-0.000857094
-0.00214801
-0.00122907
-0.00242316
-0.00166507
-0.00257594
-0.00216407
-0.00258072
-0.00272594
-0.0024123
-0.00335167
-0.00204957
-0.00404243
-0.00146988
-0.00479998
-0.000642101
-0.0056241
0.000456411
-0.00652005
0.00182169
0.00338415
-3.39347e-05
-0.000286116
-0.000147501
-0.000860861
-0.00033725
-0.00141212
-0.000600857
-0.00190181
-0.000936585
-0.00231347
-0.00134482
-0.00262475
-0.00182507
-0.00281401
-0.00237613
-0.00285297
-0.00299752
-0.00271731
-0.00368987
-0.00238855
-0.00445426
-0.00184509
-0.00529177
-0.00105456
-0.00619495
5.04419e-07
-0.00718003
0.00130101
0.00278298
-3.53616e-05
-0.000302945
-0.000156906
-0.000912512
-0.000364971
-0.00151617
-0.000652857
-0.00205044
-0.00101801
-0.00249517
-0.00146352
-0.00284615
-0.00198907
-0.00307637
-0.00259254
-0.00315176
-0.00327291
-0.00305089
-0.00403025
-0.00275561
-0.00486596
-0.00224229
-0.00577667
-0.00149349
-0.00675799
-0.000478354
-0.00783406
0.000729707
0.00193498
-3.58533e-05
-0.000320798
-0.000160068
-0.000977961
-0.000383121
-0.00170373
-0.000702088
-0.00223528
-0.00109998
-0.00269999
-0.00158407
-0.00308942
-0.00215643
-0.00336409
-0.00281328
-0.00347527
-0.00355204
-0.00341011
-0.00437092
-0.00312024
-0.00527691
-0.00244435
-0.00625656
-0.0016796
-0.00728421
-0.000912081
-0.00834102
0.00039135
0.00122244
-3.7573e-05
-0.00035609
-0.000170097
-0.00124282
-0.000405487
-0.00223762
-0.000745574
-0.00286996
-0.00117452
-0.00330034
-0.00170557
-0.0034159
-0.00232801
-0.00375108
-0.00304066
-0.00384252
-0.00384636
-0.00379781
-0.00470415
-0.00342928
-0.00556789
-0.00223266
-0.00659039
-0.00111222
-0.00764292
-0.0011583
-0.00818053
0.0016508
0.00283891
-4.11417e-05
-0.000510969
-0.00018426
-0.00171866
-0.000402438
-0.00292348
-0.000729964
-0.00382546
-0.001203
-0.00431283
-0.001825
-0.00435163
-0.00251494
-0.00454891
-0.00329448
-0.0044721
-0.00421076
-0.00417935
-0.00513989
-0.00355173
-0.00598224
-0.00190424
-0.00700817
-7.6262e-05
-0.00800461
0.000640076
-0.0082358
0.00378955
0.00619556
-7.40795e-05
-0.000692919
-0.000243506
-0.00215158
-0.000450826
-0.00351316
-0.000776019
-0.00460285
-0.00130698
-0.00525845
-0.00210932
-0.00548355
-0.00301432
-0.00549451
-0.00396101
-0.00523247
-0.00494489
-0.00460549
-0.00592961
-0.00368548
-0.00690284
-0.00190976
-0.00787832
0.000374941
-0.00885695
0.00284149
-0.00948503
0.00516828
0.00869877
-7.47636e-05
-0.00078892
-0.000275174
-0.00243306
-0.000544258
-0.00397217
-0.000965705
-0.00516329
-0.00161514
-0.00592162
-0.00248798
-0.00619155
-0.00347849
-0.00620638
-0.00455341
-0.00588667
-0.00567885
-0.00513922
-0.00681952
-0.00406685
-0.00800698
-0.00224728
-0.00923982
0.000184723
-0.0103007
0.00311523
-0.0111342
0.00593404
0.0101057
-7.28657e-05
-0.000871899
-0.000311209
-0.00262862
-0.000682468
-0.00427357
-0.00123166
-0.00556583
-0.00199344
-0.00641292
-0.00294261
-0.0068078
-0.00402551
-0.00685805
-0.00522006
-0.006542
-0.00649282
-0.00575398
-0.00779767
-0.00459276
-0.00918313
-0.00274441
-0.0106529
-0.000213899
-0.0118871
0.00284747
-0.0130094
0.00619383
0.0107144
-8.17395e-05
-0.000951662
-0.000361607
-0.00282963
-0.000824749
-0.00459837
-0.00149742
-0.00599571
-0.00237464
-0.00696119
-0.00342389
-0.00744974
-0.0046123
-0.00754419
-0.00594012
-0.00722868
-0.00738052
-0.00643488
-0.00885222
-0.00520928
-0.0104057
-0.00332567
-0.0121052
-0.000702646
-0.0135404
0.0025063
-0.0148818
0.00627232
0.0110492
-9.46498e-05
-0.00103175
-0.000423009
-0.00305523
-0.000975326
-0.00498675
-0.00176519
-0.00652216
-0.00277242
-0.00759698
-0.00395376
-0.00817141
-0.00525612
-0.00832054
-0.00670163
-0.00800049
-0.00830557
-0.00717042
-0.0099522
-0.00588072
-0.0116735
-0.0039488
-0.0135099
-0.00113025
-0.0151819
0.00227392
-0.0168314
0.00628803
0.0112695
-0.000107582
-0.00112083
-0.000483905
-0.00332681
-0.00112837
-0.00546063
-0.00205076
-0.00715155
-0.00320417
-0.00833311
-0.00453421
-0.0089977
-0.00598001
-0.00921062
-0.00756261
-0.0088772
-0.00932188
-0.00795355
-0.011147
-0.00656219
-0.0130716
-0.00462543
-0.0151747
-0.00168133
-0.0170633
0.001941
-0.0188946
0.00625067
0.0113663
-0.000119561
-0.00122828
-0.000548117
-0.003665
-0.00129954
-0.00601712
-0.00236821
-0.00787123
-0.00368026
-0.00918718
-0.00518219
-0.0099377
-0.00680432
-0.010239
-0.00855307
-0.00984186
-0.0104842
-0.00876831
-0.0124694
-0.00722017
-0.0145511
-0.00530666
-0.0168554
-0.00228274
-0.0189504
0.00165512
-0.0209585
0.00629973
0.0115655
-0.00013094
-0.00135925
-0.000618147
-0.00407214
-0.00149468
-0.00665252
-0.00272885
-0.00869716
-0.00421114
-0.0101699
-0.00589487
-0.0110093
-0.00774024
-0.0114186
-0.00971711
-0.0108913
-0.0118451
-0.00960814
-0.0139656
-0.00783303
-0.0161577
-0.00589571
-0.0185696
-0.0025961
-0.0208365
0.00190884
-0.0230178
0.00662284
0.0121852
-0.000144892
-0.00151766
-0.000699472
-0.00455388
-0.00171595
-0.00738452
-0.0031383
-0.0096573
-0.00480687
-0.0113103
-0.00667107
-0.0122898
-0.00878338
-0.0127445
-0.0110761
-0.0120323
-0.0134611
-0.0104882
-0.0157141
-0.00843421
-0.0179965
-0.00632625
-0.0205213
-0.00254359
-0.022892
0.00274685
-0.0251277
0.00742801
0.0136294
-0.000162373
-0.00170506
-0.000794113
-0.0051027
-0.00197099
-0.00821564
-0.00361146
-0.0107553
-0.00549299
-0.0126248
-0.00756127
-0.0138076
-0.009978
-0.0142426
-0.0126456
-0.0133111
-0.0153417
-0.0114295
-0.0177657
-0.00910115
-0.0201865
-0.00664025
-0.0228583
-0.00213963
-0.0252655
0.00401529
-0.0274281
0.00890983
0.0162929
-0.000184968
-0.00192491
-0.000902309
-0.00572939
-0.00225439
-0.00918168
-0.00413839
-0.0120161
-0.00626265
-0.0141233
-0.00857441
-0.015555
-0.0113496
-0.0159536
-0.0144718
-0.0147914
-0.0175342
-0.0124726
-0.0201522
-0.0098262
-0.022783
-0.00694226
-0.0256763
-0.00143387
-0.0281209
0.00556228
-0.0301854
0.0111622
0.0202389
-0.000213936
-0.00217261
-0.00102766
-0.00645029
-0.00257749
-0.0103034
-0.00474176
-0.0134551
-0.007146
-0.0158226
-0.00974451
-0.017551
-0.0129252
-0.0179011
-0.0165583
-0.0165054
-0.0200884
-0.0136932
-0.0229651
-0.0105929
-0.0258491
-0.00735129
-0.0290874
-0.00081887
-0.031664
0.00727226
-0.0336998
0.014131
0.0250608
-0.000253735
-0.00243781
-0.00118684
-0.00724075
-0.00295293
-0.0115453
-0.00542761
-0.0150454
-0.00815431
-0.0177449
-0.0110938
-0.019824
-0.0147339
-0.0201182
-0.0189052
-0.0184853
-0.0229939
-0.0152062
-0.0262159
-0.0112771
-0.0293709
-0.00791532
-0.0331165
-0.000523057
-0.035959
0.00907648
-0.0379618
0.0179684
0.0307069
-0.000299912
-0.00272404
-0.00137642
-0.00807101
-0.00337705
-0.0128702
-0.00619608
-0.0167766
-0.00929822
-0.0199202
-0.0126518
-0.0223749
-0.0168321
-0.0226101
-0.0215796
-0.0207452
-0.0264049
-0.0170261
-0.0300394
-0.012169
-0.0333277
-0.00846494
-0.0375736
-9.77201e-05
-0.0407444
0.0113216
-0.0426684
0.0232402
0.0380025
-0.000343397
-0.0030528
-0.00156527
-0.00899195
-0.00381961
-0.0143315
-0.00701177
-0.0187123
-0.0105733
-0.0223937
-0.0144497
-0.025218
-0.0192287
-0.0254076
-0.0245993
-0.0232975
-0.0300707
-0.019059
-0.0342691
-0.0133863
-0.0380284
-0.00889029
-0.042819
0.000514055
-0.0462789
0.0141092
-0.0480291
0.0301887
0.0475623
-0.000376015
-0.00346097
-0.00172286
-0.0101716
-0.00425863
-0.0161475
-0.00786874
-0.0209721
-0.0120008
-0.0251752
-0.0165517
-0.0283986
-0.0220174
-0.0285609
-0.0281307
-0.026181
-0.0343787
-0.0213415
-0.039308
-0.0147873
-0.0436273
-0.00910523
-0.0490437
0.00103675
-0.0527977
0.0174167
-0.0542755
0.0389213
0.0602617
-0.000402189
-0.00397281
-0.00186573
-0.0117554
-0.00473087
-0.0185815
-0.00882728
-0.0235982
-0.013601
-0.0283081
-0.0189496
-0.0319528
-0.0252602
-0.0321353
-0.0322478
-0.0295103
-0.0393399
-0.0239858
-0.0452016
-0.016465
-0.0501899
-0.00896599
-0.0560326
0.00212701
-0.0602341
0.0227076
-0.0616058
0.0499554
0.0777711
-0.000440029
-0.004556
-0.00206684
-0.0135962
-0.00533416
-0.0213164
-0.00995862
-0.0266822
-0.0154059
-0.0319594
-0.0216373
-0.0359381
-0.0289937
-0.0362515
-0.037153
-0.0335023
-0.0452856
-0.0272499
-0.0521986
-0.0184719
-0.0580342
-0.00865436
-0.0642827
0.00520166
-0.0693933
0.0307941
-0.0715223
0.0628031
0.0996304
-0.000548013
-0.00515307
-0.00254819
-0.0152953
-0.00628101
-0.0238586
-0.0113629
-0.0303576
-0.0174795
-0.0361758
-0.0246358
-0.0403726
-0.0331267
-0.0409907
-0.0426425
-0.0383454
-0.0521441
-0.0314013
-0.0604987
-0.0211021
-0.0679512
-0.00873207
-0.0755576
0.00948464
-0.0820389
0.0396392
-0.0857512
0.075815
0.122825
-0.000686658
-0.00576382
-0.00311168
-0.0168766
-0.0073643
-0.026412
-0.0130211
-0.0345309
-0.0198441
-0.0408702
-0.0279388
-0.0452599
-0.0376429
-0.0465669
-0.0487552
-0.0442724
-0.0600406
-0.0366521
-0.0704346
-0.0246957
-0.0802039
-0.00983577
-0.0900768
0.0123219
-0.0986076
0.0467167
-0.104728
0.0873988
0.144379
-0.000776787
-0.0064269
-0.00354161
-0.0187974
-0.00844275
-0.0295961
-0.0148728
-0.0390641
-0.0225781
-0.0460006
-0.0315975
-0.0508085
-0.0425706
-0.0537358
-0.0555306
-0.0514016
-0.0690884
-0.0432404
-0.0820876
-0.0298573
-0.0945165
-0.0127204
-0.107252
0.0124146
-0.118736
0.0508341
-0.128218
0.0962362
0.162173
-0.000876891
-0.00714831
-0.00398629
-0.0210725
-0.00958423
-0.0332955
-0.017024
-0.0437704
-0.0257196
-0.0515817
-0.0357506
-0.0574017
-0.0481078
-0.0624677
-0.0628872
-0.0597058
-0.0788965
-0.0513692
-0.094953
-0.037092
-0.110587
-0.0182678
-0.126719
0.00928563
-0.141958
0.0512837
-0.155726
0.101268
0.174806
-0.00103108
-0.00791179
-0.00458394
-0.0234411
-0.0108269
-0.0370767
-0.0193572
-0.0486299
-0.0291942
-0.0577129
-0.0402448
-0.0654416
-0.0540941
-0.0721701
-0.070911
-0.0692542
-0.0895083
-0.0613853
-0.108715
-0.0465746
-0.127866
-0.0271433
-0.147974
0.00257701
-0.167737
0.0475053
-0.186645
0.101686
0.181386
-0.00120253
-0.00870544
-0.00525943
-0.0258118
-0.012179
-0.0409385
-0.021739
-0.0539639
-0.0328041
-0.0650068
-0.0450393
-0.0756957
-0.0604399
-0.0830304
-0.0795594
-0.0802304
-0.101088
-0.0740106
-0.123575
-0.0591017
-0.146377
-0.039792
-0.17082
-0.00780612
-0.195672
0.0391102
-0.220461
0.0968378
0.18116
-0.00137568
-0.0095258
-0.00594672
-0.0281506
-0.0135781
-0.0449152
-0.0241514
-0.0599466
-0.0365732
-0.0749122
-0.0504382
-0.0883913
-0.0674186
-0.096116
-0.0887831
-0.0932909
-0.113886
-0.0898702
-0.140153
-0.0760027
-0.166754
-0.0566563
-0.195641
-0.0223408
-0.225674
0.0249646
-0.256702
0.08617
0.173734
-0.00149593
-0.0104487
-0.00651499
-0.0307198
-0.0149202
-0.04944
-0.0264355
-0.0674044
-0.0403328
-0.0875059
-0.056432
-0.10341
-0.0751188
-0.112537
-0.0982424
-0.110698
-0.126879
-0.108655
-0.157349
-0.0973551
-0.188606
-0.0784462
-0.222333
-0.0424286
-0.257317
0.00281684
-0.294702
0.0694215
0.160329
-0.00153639
-0.0116222
-0.00687122
-0.0340409
-0.0160805
-0.0550936
-0.0285075
-0.0773392
-0.0439903
-0.101436
-0.0626249
-0.12058
-0.0834444
-0.132572
-0.108148
-0.132202
-0.139352
-0.12864
-0.174299
-0.121989
-0.21141
-0.10713
-0.250372
-0.0719806
-0.290266
-0.0295682
-0.334248
0.0468502
0.142747
-0.00152956
-0.0131012
-0.00703006
-0.03845
-0.0168694
-0.0626176
-0.0301354
-0.0893138
-0.0471584
-0.116147
-0.0682984
-0.139516
-0.0913037
-0.156232
-0.117541
-0.161341
-0.15098
-0.148645
-0.190374
-0.149476
-0.234406
-0.146064
-0.279141
-0.11858
-0.324894
-0.0695863
-0.376495
0.0197414
0.122928
-0.00155455
-0.0148046
-0.00714756
-0.043774
-0.0173526
-0.0719441
-0.0313922
-0.101869
-0.0496784
-0.131588
-0.0727271
-0.159835
-0.0989796
-0.182178
-0.127248
-0.195488
-0.160719
-0.187878
-0.2031
-0.17996
-0.252406
-0.183949
-0.306786
-0.172777
-0.363671
-0.118138
-0.422434
-0.0112633
0.102899
-0.00159914
-0.0166274
-0.0073188
-0.0494954
-0.0177974
-0.0816777
-0.0323247
-0.114298
-0.0513705
-0.147416
-0.0755381
-0.180677
-0.103269
-0.209102
-0.133362
-0.23314
-0.168146
-0.238283
-0.211277
-0.231038
-0.261558
-0.215148
-0.328204
-0.232808
-0.404767
-0.202213
-0.474066
-0.0470864
0.0528308
-0.00167452
-0.0183991
-0.00759473
-0.0550353
-0.0182777
-0.0911374
-0.0329396
-0.126805
-0.0521512
-0.163117
-0.0767264
-0.200818
-0.104196
-0.234821
-0.134529
-0.270354
-0.171239
-0.285545
-0.217225
-0.292664
-0.27616
-0.284284
-0.353063
-0.318648
-0.446152
-0.334095
-0.58027
-0.24978
-0.272938
-0.00177644
-0.0200291
-0.00794809
-0.0601625
-0.0187739
-0.0998085
-0.0333642
-0.138713
-0.0522544
-0.178499
-0.0761408
-0.21934
-0.102358
-0.256897
-0.131257
-0.297685
-0.166454
-0.329347
-0.209244
-0.341571
-0.267372
-0.3609
-0.34658
-0.402055
-0.450059
-0.458868
-0.617439
-0.529668
-0.725508
-0.0018172
-0.0216102
-0.00815342
-0.0650591
-0.0192697
-0.107747
-0.0338287
-0.149875
-0.0524064
-0.19397
-0.0757906
-0.23747
-0.100503
-0.27684
-0.124841
-0.318836
-0.153638
-0.355587
-0.194721
-0.37447
-0.246445
-0.397278
-0.30568
-0.443081
-0.37729
-0.510713
-0.46609
-0.623142
-0.850462
-0.00189952
-0.0231861
-0.00849675
-0.069966
-0.0197678
-0.116337
-0.0342405
-0.16185
-0.052841
-0.210859
-0.0759692
-0.257771
-0.0996666
-0.299141
-0.124946
-0.339401
-0.154038
-0.373793
-0.190771
-0.393658
-0.234154
-0.416621
-0.275713
-0.451129
-0.310769
-0.496745
-0.328822
-0.569935
-0.686653
-0.00194726
-0.0247631
-0.00880447
-0.0749534
-0.020552
-0.125283
-0.035117
-0.174817
-0.0539406
-0.229403
-0.0779756
-0.279719
-0.101843
-0.324974
-0.127454
-0.363346
-0.159755
-0.394047
-0.196459
-0.409141
-0.23403
-0.426947
-0.268133
-0.445688
-0.290655
-0.462629
-0.286602
-0.471237
-0.464807
-0.00199444
-0.0263408
-0.00906621
-0.0797023
-0.0212046
-0.133261
-0.0361616
-0.187518
-0.0555883
-0.248087
-0.0809726
-0.300519
-0.106254
-0.348471
-0.13413
-0.388224
-0.168932
-0.414886
-0.207404
-0.426688
-0.246473
-0.436156
-0.281754
-0.441332
-0.309214
-0.438121
-0.318471
-0.401315
-0.324025
-0.00202263
-0.0279943
-0.00912458
-0.0844102
-0.0214756
-0.140516
-0.0373168
-0.201638
-0.0578766
-0.266246
-0.0848579
-0.319978
-0.113348
-0.368149
-0.145341
-0.409601
-0.184038
-0.435373
-0.227344
-0.448596
-0.271562
-0.453492
-0.31283
-0.451315
-0.35275
-0.436741
-0.38917
-0.385207
-0.294754
-0.00195586
-0.0299074
-0.00889788
-0.0901813
-0.0215342
-0.149971
-0.0388571
-0.217503
-0.061409
-0.28399
-0.0900408
-0.338561
-0.121845
-0.388009
-0.157868
-0.428957
-0.199752
-0.456564
-0.246416
-0.471663
-0.296331
-0.478416
-0.34611
-0.473341
-0.397668
-0.452681
-0.453907
-0.403307
-0.327045
-0.00195193
-0.031988
-0.00902492
-0.0965235
-0.0224386
-0.161188
-0.0414671
-0.233156
-0.0658762
-0.299725
-0.0960807
-0.35639
-0.130752
-0.408398
-0.170326
-0.449448
-0.215551
-0.479747
-0.265883
-0.49659
-0.320608
-0.50484
-0.377262
-0.499344
-0.436843
-0.475479
-0.499967
-0.42452
-0.351586
-0.002088
-0.0339349
-0.00944202
-0.102283
-0.0232684
-0.171497
-0.0437712
-0.246465
-0.0700534
-0.314204
-0.102309
-0.374765
-0.139735
-0.430091
-0.182749
-0.472719
-0.231677
-0.505619
-0.285987
-0.523745
-0.345644
-0.533353
-0.40892
-0.525853
-0.474697
-0.499585
-0.537494
-0.429594
-0.428188
-0.00222436
-0.0357274
-0.00982908
-0.10789
-0.0239565
-0.181527
-0.0456209
-0.258439
-0.0739338
-0.330648
-0.108371
-0.394426
-0.14852
-0.452387
-0.195185
-0.499677
-0.248246
-0.536476
-0.306662
-0.552783
-0.373363
-0.570819
-0.446932
-0.566979
-0.522592
-0.531849
-0.633935
-0.576189
-0.947779
-0.00234663
-0.0374867
-0.0103481
-0.113554
-0.0250004
-0.191609
-0.0478045
-0.271747
-0.0780704
-0.3492
-0.11459
-0.41561
-0.157002
-0.474303
-0.206591
-0.52641
-0.26444
-0.575124
-0.33445
-0.620259
-0.417717
-0.64901
-0.504551
-0.678912
-0.518305
-0.785662
-0.589605
-0.824442
-1.77298
-0.00242443
-0.0391845
-0.0107755
-0.119037
-0.025965
-0.201707
-0.0497633
-0.286276
-0.0820409
-0.370341
-0.120985
-0.439771
-0.16446
-0.501432
-0.213246
-0.554522
-0.273813
-0.617597
-0.348834
-0.711086
-0.439086
-0.757292
-0.572885
-0.91652
-0.371367
-1.18742
-0.0896715
-0.804304
-1.98168
-0.00242128
-0.0407371
-0.0110128
-0.124259
-0.0268112
-0.211784
-0.0516484
-0.302415
-0.086367
-0.395532
-0.128438
-0.468179
-0.171048
-0.535827
-0.210197
-0.594478
-0.261127
-0.654558
-0.297448
-0.740779
-0.295759
-0.754312
-0.196375
-0.911416
0.191607
-1.3548
0.652225
-0.245624
-0.918191
-0.00239225
-0.0417944
-0.0110318
-0.128719
-0.0274202
-0.221457
-0.053885
-0.319831
-0.0916609
-0.42431
-0.137444
-0.500749
-0.179009
-0.576938
-0.204117
-0.658314
-0.236299
-0.672902
-0.202255
-0.501968
-0.0362103
-0.431374
0.238605
-0.312615
0.63375
-0.437932
1.23653
0.963135
1.56569
-0.0023702
-0.0414511
-0.0109498
-0.130806
-0.0279294
-0.229677
-0.0568013
-0.336824
-0.0986087
-0.453883
-0.148934
-0.536741
-0.194438
-0.627629
-0.225856
-0.760468
-0.193448
-0.712114
-0.105371
-0.23452
0.0717114
0.185283
0.469839
0.571929
0.720747
1.41671
1.13571
2.29722
4.31788
-0.00216228
-0.0387845
-0.0103203
-0.126752
-0.027653
-0.234271
-0.0599945
-0.350556
-0.10664
-0.47962
-0.16229
-0.574652
-0.228712
-0.68948
-0.317275
-0.899441
-0.375163
-0.875943
-0.407936
-0.23698
-0.321223
0.582048
-0.0302626
1.43869
-0.050649
2.83574
-0.092711
2.80388
5.22722
-0.00118989
-0.0336122
-0.00757827
-0.113774
-0.0251265
-0.230687
-0.06178
-0.357039
-0.112908
-0.497528
-0.173457
-0.612767
-0.283045
-0.76065
-0.47857
-1.01914
-0.679583
-1.02035
-0.839083
-0.316599
-1.00342
0.532243
-1.05104
1.71165
-1.17021
2.85623
-1.55151
2.29744
3.93569
0.00112498
-0.0262415
-0.000526151
-0.0927689
-0.0174466
-0.210988
-0.058491
-0.353863
-0.113014
-0.505645
-0.175486
-0.649397
-0.32121
-0.839304
-0.6047
-1.12401
-0.957139
-1.12728
-1.27773
-0.655404
-1.56826
0.351343
-1.81664
1.36417
-1.94691
1.70343
-2.40587
1.24822
1.63706
0.0050516
-0.0167206
0.012965
-0.0648813
0.000753665
-0.168176
-0.0443784
-0.34243
-0.102212
-0.506025
-0.161971
-0.682377
-0.32733
-0.922871
-0.690112
-1.27049
-1.07563
-1.31617
-1.51179
-1.22548
-1.94807
0.10154
-1.95852
0.751242
-1.963
0.600861
-2.57877
0.0274239
-0.862939
0.0102499
-0.00476478
0.0356327
-0.0296483
0.040278
-0.106034
-0.00708268
-0.314447
-0.0712837
-0.491572
-0.12285
-0.710422
-0.296326
-1.01371
-0.731557
-1.45617
-1.17333
-1.54745
-1.68202
-1.70228
-1.83592
-0.266982
-1.42863
0.110177
-1.49539
-0.125941
-2.11937
-1.10136
-3.12603
0.0164823
0.00982694
0.0664549
0.0138168
0.108243
-0.0361524
0.084845
-0.224857
0.00729908
-0.431286
-0.062814
-0.733603
-0.246728
-1.10394
-0.696199
-1.66277
-1.08214
-1.82048
-1.0365
-1.31325
-0.685929
-0.203867
-0.48787
-0.083492
-0.669604
-0.568175
-1.1308
-1.94206
-4.87797
0.0228213
0.0272276
0.0952138
0.0656339
0.199754
0.0421685
0.261307
-0.0889472
0.201733
-0.305264
0.136584
-0.658271
-0.0806334
-1.08891
-0.555626
-1.69462
-0.452646
-1.67426
0.126865
-0.135818
0.4104
0.424909
0.518683
0.206431
0.437886
-0.596763
0.241359
-2.38513
-6.10041
0.0298497
0.0483835
0.126002
0.129561
0.273796
0.150194
0.405945
0.0761759
0.483802
-0.1086
0.556392
-0.441433
0.492835
-0.889271
0.53568
-1.23689
0.820858
-0.309824
1.06236
1.01714
1.33803
1.30544
1.5932
0.953165
1.77169
-0.0842286
1.98574
-2.23489
-6.52969
0.0367331
0.0736705
0.156888
0.207744
0.348088
0.293916
0.544134
0.302126
0.718347
0.16305
0.894125
-0.131962
0.992107
-0.402467
1.11673
0.199501
1.35535
1.42578
1.67764
2.18591
2.11597
2.46771
2.66412
2.19388
3.29661
1.21814
4.21068
-0.951454
-5.01467
0.0420179
0.101928
0.180763
0.296413
0.408107
0.459091
0.66332
0.580879
0.915546
0.504782
1.15738
0.349951
1.20817
0.812044
1.25582
1.88652
1.54631
2.68722
1.99858
3.39383
2.66085
3.84415
3.57466
3.92172
4.81165
3.49507
6.69154
2.13142
-0.307819
0.0447545
0.13189
0.193263
0.392798
0.440622
0.640926
0.743323
0.887528
1.04759
0.974112
1.09884
1.35904
0.985014
2.21786
1.14778
3.02641
1.47946
3.81804
2.02496
4.589
2.84718
5.32463
4.03829
5.95422
5.75787
6.40201
8.37898
6.74514
6.83635
0.043699
0.161868
0.189871
0.49363
0.43646
0.849211
0.747949
1.23758
0.826634
1.64577
0.661718
2.40672
0.668617
3.10005
0.846973
3.88466
1.19569
4.74752
1.75618
5.67936
2.59984
6.76255
3.83716
8.01527
5.64272
9.34454
8.2974
11.1824
13.99
0.0362569
0.187742
0.158162
0.581707
0.361313
1.0416
0.465247
1.59203
0.366522
2.22587
0.295127
2.91359
0.305606
3.62644
0.444393
4.43846
0.729133
5.39462
1.19709
6.52341
1.91446
7.94675
2.99228
9.78291
4.58608
12.0164
6.85498
14.6807
19.4137
0.0234181
0.205372
0.0970234
0.637874
0.192264
1.14954
0.192476
1.77928
0.0684232
2.42961
-0.0242587
3.09529
-0.048817
3.83038
0.0053692
4.68116
0.153673
5.70558
0.425693
6.96981
0.867946
8.61037
1.56782
10.8268
2.75023
13.7508
4.73556
17.3738
23.2786
0.0122556
0.21592
0.0470505
0.667491
0.0719757
1.18632
0.0220125
1.79567
-0.0904128
2.42502
-0.18599
3.091
-0.259685
3.83501
-0.304778
4.70435
-0.308686
5.75342
-0.247481
7.06218
-0.111897
8.77229
0.115495
11.1123
0.520922
14.2753
1.42253
18.5458
24.6734
0.00308585
0.221163
0.00772955
0.679964
-0.00914668
1.19058
-0.0765306
1.76664
-0.183838
2.37905
-0.299903
3.03713
-0.418631
3.77831
-0.538668
4.64343
-0.656898
5.68479
-0.766137
6.98603
-0.874488
8.69131
-1.00386
11.028
-1.13712
14.2033
-1.22495
18.5347
24.4649
-0.00339748
0.221705
-0.0184925
0.678664
-0.0589327
1.1765
-0.14075
1.72647
-0.259697
2.31877
-0.40167
2.96368
-0.563329
3.6922
-0.747783
4.54057
-0.961984
5.55795
-1.21834
6.82835
-1.55339
8.49527
-2.02171
10.7854
-2.65113
13.9134
-3.23893
18.1901
24.5862
-0.00812586
0.219351
-0.0373221
0.669168
-0.0951969
1.15222
-0.192265
1.67922
-0.328239
2.24956
-0.497252
2.87513
-0.699607
3.58264
-0.943927
4.40393
-1.24931
5.38333
-1.64944
6.6016
-2.22153
8.19692
-3.10095
10.3732
-4.41491
13.3196
-5.66777
17.3883
24.491
-0.0117922
0.215033
-0.0520842
0.654299
-0.124792
1.12106
-0.237556
1.62552
-0.392338
2.17167
-0.588379
2.77218
-0.829385
3.45073
-1.13066
4.23452
-1.52692
5.16048
-2.07741
6.30105
-2.90386
7.78201
-4.23534
9.75093
-6.38252
12.2763
-8.55669
15.676
22.0126
-0.0147612
0.209135
-0.0642791
0.635151
-0.150226
1.08403
-0.27876
1.56521
-0.453113
2.08441
-0.675495
2.65404
-0.952396
3.29511
-1.30669
4.03009
-1.79233
4.88838
-2.49401
5.92524
-3.56472
7.24264
-5.33256
8.90452
-8.42755
10.7629
-12.6681
13.03
17.1437
-0.108573
0.164028
-0.46735
0.498274
-1.06788
0.831439
-1.93212
1.1652
-3.07994
1.50006
-4.54241
1.84214
-6.38281
2.20454
-8.82973
2.60636
-12.5037
3.09082
-18.2339
3.76596
-26.8815
4.22479
-40.9461
4.28817
-61.045
3.45556
-83.5148
0.888643
-3.12466
-121.499
-0.131544
0.105768
-0.579068
0.32117
-1.32246
0.522662
-2.34653
0.704894
-3.6335
0.861905
-5.15513
0.992785
-6.8493
1.10353
-8.60799
1.21341
-11.2486
1.38363
-17.2563
1.77218
-26.9336
2.00078
-40.2657
2.06499
-55.6786
-0.293328
-67.4433
-4.72797
-11.7707
-72.3958
-0.112015
0.0534127
-0.478293
0.158502
-1.07963
0.250437
-1.92008
0.321612
-3.00046
0.365138
-4.33102
0.376019
-5.93946
0.350533
-7.89385
0.2903
-10.397
0.216514
-14.0816
0.174221
-20.692
0.194862
-34.105
0.310226
-50.0726
-1.78067
-59.889
-6.10268
-12.9005
-61.7647
-0.0832245
0.0140249
-0.35504
0.0385829
-0.802252
0.0505686
-1.4321
0.0416631
-2.25014
0.00369079
-3.26946
-0.0712091
-4.51588
-0.191776
-6.04769
-0.368128
-8.02444
-0.612893
-10.8251
-0.946376
-15.0413
-1.42192
-21.9562
-2.17926
-36.6869
-3.52562
-47.6778
-7.25014
-12.2533
-42.992
-0.0557748
-0.0133239
-0.237308
-0.0436907
-0.534432
-0.0863625
-0.950182
-0.149811
-1.48604
-0.242965
-2.14662
-0.375275
-2.94191
-0.558333
-3.89198
-0.806974
-5.04002
-1.1431
-6.48679
-1.61004
-8.44163
-2.31794
-11.2609
-3.53437
-15.0887
-5.43236
-17.4884
-8.3174
-11.7222
-16.0604
-0.0267031
-0.0289744
-0.113589
-0.0907162
-0.255223
-0.164431
-0.451668
-0.258472
-0.700942
-0.381834
-0.999981
-0.544108
-1.34481
-0.757132
-1.72882
-1.03585
-2.13484
-1.40428
-2.50781
-1.91035
-2.70322
-2.682
-2.73469
-4.11932
-2.73028
-6.31619
-2.43855
-8.71424
-11.2993
-1.61744
0.00133845
-0.0314642
0.00656703
-0.0971532
0.0196257
-0.170874
0.0492204
-0.25838
0.11014
-0.366361
0.225329
-0.503173
0.417582
-0.681198
0.710656
-0.910264
1.15529
-1.2014
1.87658
-1.58413
3.22829
-2.16912
5.23954
-3.53225
6.95781
-5.6369
7.83243
-7.8757
-10.1838
7.93562
0.0209497
-0.0237919
0.0911597
-0.0723115
0.213844
-0.122773
0.403761
-0.176336
0.682567
-0.234524
1.08433
-0.300099
1.64606
-0.378598
2.39859
-0.471432
3.39556
-0.577588
4.75959
-0.724106
6.63537
-1.06072
8.65967
-2.09955
9.54621
-3.58718
8.55484
-5.04921
-6.51523
5.25235
0.019889
-0.0135076
0.0861414
-0.0401645
0.19828
-0.064911
0.363716
-0.0859532
0.592135
-0.101166
0.900176
-0.107583
1.31384
-0.100827
1.87163
-0.0746555
2.62781
-0.0170259
3.29481
0.106887
2.73388
0.18635
0.354394
0.0323721
-3.16837
-0.310373
-7.2506
-0.481913
-0.558232
-13.6647
0.0120884
-0.00671049
0.051853
-0.0193894
0.116498
-0.0293307
0.20758
-0.034343
0.325116
-0.0315484
0.470095
-0.0173845
0.642634
0.012858
0.829667
0.0658333
0.766176
0.158163
0.0796131
0.364923
-1.61615
0.8806
-3.76517
1.45246
-6.18195
1.92297
-8.96435
2.44167
3.14541
-12.8957
0.00209404
-0.00461184
0.00931485
-0.0133894
0.0204361
-0.0204385
0.0337076
-0.0245272
0.0448812
-0.0231763
0.0492265
-0.0149778
0.0411964
0.00169915
0.0147304
0.0293416
-0.0378146
0.0747621
-0.117188
0.165679
-0.239085
0.527015
-0.478399
0.960526
-0.793232
1.36544
-1.16358
1.79014
2.33708
-1.39595
-0.00238657
-0.0043353
-0.00913726
-0.0129104
-0.0209247
-0.0209308
-0.0469212
-0.0278593
-0.0959775
-0.0329934
-0.162627
-0.0369063
-0.24744
-0.0396052
-0.334087
-0.0406508
-0.29569
-0.0382961
-0.0370477
-0.0191747
0.416096
0.0366714
0.928654
0.128029
1.58558
0.22467
2.53344
0.316394
0.416495
4.24853
-0.00196515
-0.00433905
-0.00816571
-0.013077
-0.0178182
-0.0218273
-0.0310422
-0.030366
-0.0494802
-0.0390923
-0.071386
-0.0485285
-0.0910562
-0.0588532
-0.0922606
-0.0699188
-0.0437677
-0.0815224
0.095842
-0.092013
0.377758
-0.0995826
0.845764
-0.108264
1.62233
-0.13125
2.78534
-0.182955
-0.270263
4.5243
-0.000656105
-0.00428566
-0.00276295
-0.0128893
-0.00620667
-0.0215709
-0.0109333
-0.0303661
-0.016673
-0.0393541
-0.0227441
-0.0486654
-0.0281926
-0.05838
-0.0312418
-0.0684888
-0.0277351
-0.0788888
-0.00864184
-0.0895546
0.0514299
-0.101325
0.186562
-0.117899
0.451943
-0.146584
0.850746
-0.197187
-0.279261
1.41893
-0.000375382
-0.00439409
-0.00158408
-0.0131889
-0.00352282
-0.0220165
-0.00616291
-0.030907
-0.00940358
-0.0399031
-0.0130614
-0.049043
-0.016963
-0.0583539
-0.0209597
-0.0678522
-0.0249582
-0.0775726
-0.0290083
-0.0875811
-0.0328953
-0.0979944
-0.036077
-0.109184
-0.0354241
-0.122546
-0.0303935
-0.142428
-0.177098
-0.00928512
-0.000279593
-0.00446476
-0.00117449
-0.0133937
-0.00260197
-0.0223414
-0.00455832
-0.0313232
-0.00703434
-0.0403599
-0.0099867
-0.0494709
-0.0133702
-0.0586758
-0.0172398
-0.0679824
-0.0218726
-0.0774237
-0.0277036
-0.0870976
-0.0350382
-0.0971857
-0.0444817
-0.107921
-0.0574432
-0.119812
-0.0753024
-0.133953
-0.151954
-0.0923011
-0.000236969
-0.00448113
-0.000994791
-0.0134407
-0.00217982
-0.0224171
-0.00375762
-0.0314241
-0.00572822
-0.040463
-0.0080834
-0.0495386
-0.0108149