/*--------------------------------*- C++ -*----------------------------------*\
  =========                 |
  \\      /  F ield         | OpenFOAM: The Open Source CFD Toolbox
   \\    /   O peration     | Website:  https://openfoam.org
    \\  /    A nd           | Version:  7
     \\/     M anipulation  |
\*---------------------------------------------------------------------------*/
FoamFile
{
    version     2.0;
    format      ascii;
    class       volVectorField;
    location    "400";
    object      U;
}
// * * * * * * * * * * * * * * * * * * * * * * * * * * * * * * * * * * * * * //

dimensions      [0 1 -1 0 0 0 0];

internalField   nonuniform List<vector> 
32100
(
(-64.6504 -8.7088e-10 -1900.66)
(-165.431 -2.47853e-09 -1873.74)
(-264.504 -4.1054e-09 -1808.07)
(-364.323 -5.73692e-09 -1697.96)
(-450.221 -7.36974e-09 -1550.48)
(-523.885 -9.00287e-09 -1366.05)
(-582.015 -1.06361e-08 -1145.23)
(-620.69 -1.22694e-08 -889.327)
(-637.091 -1.39028e-08 -598.544)
(-626.725 -1.55359e-08 -269.755)
(-578.78 -1.71689e-08 102.74)
(-470.146 -1.88018e-08 520.703)
(-244.687 -2.04344e-08 968.438)
(226.27 -2.20668e-08 1336.84)
(1291.43 -2.36992e-08 1402.26)
(-65.0559 -8.71309e-10 -1624.13)
(-174.381 -2.47799e-09 -1604)
(-281.335 -4.10548e-09 -1545.12)
(-385.785 -5.73685e-09 -1454.9)
(-480.247 -7.36968e-09 -1332.81)
(-563.852 -9.00285e-09 -1179.36)
(-633.911 -1.06361e-08 -995.038)
(-687.322 -1.22694e-08 -780.23)
(-721.459 -1.39027e-08 -534.031)
(-732.373 -1.55359e-08 -254.637)
(-712.163 -1.71689e-08 60.941)
(-647.627 -1.88018e-08 415.527)
(-518.141 -2.04344e-08 816.271)
(-309.686 -2.20668e-08 1330.35)
(-362.104 -2.36991e-08 2100.31)
(-69.1579 -8.70628e-10 -1659.46)
(-187.979 -2.47741e-09 -1638.53)
(-304.217 -4.10515e-09 -1581.15)
(-416.986 -5.73674e-09 -1491.71)
(-522.315 -7.36955e-09 -1370.61)
(-618.416 -9.0028e-09 -1218.25)
(-703.225 -1.06361e-08 -1034.81)
(-774.52 -1.22694e-08 -820.219)
(-830.091 -1.39027e-08 -573.648)
(-867.325 -1.55359e-08 -293.401)
(-883.244 -1.71689e-08 23.1991)
(-873.516 -1.88017e-08 381.176)
(-841.638 -2.04344e-08 795.251)
(-816.635 -2.20668e-08 1313.99)
(-894.15 -2.36994e-08 1992.78)
(-75.4334 -8.70784e-10 -1697.27)
(-205.071 -2.47714e-09 -1676.18)
(-332.58 -4.10483e-09 -1619.79)
(-457.439 -5.73657e-09 -1532.61)
(-576.007 -7.36949e-09 -1413.44)
(-687.023 -9.00277e-09 -1262.99)
(-788.868 -1.06361e-08 -1081.4)
(-879.994 -1.22693e-08 -868.369)
(-959.013 -1.39026e-08 -623.013)
(-1025.07 -1.55358e-08 -343.874)
(-1077.3 -1.71688e-08 -27.9608)
(-1120.11 -1.88017e-08 330.213)
(-1162.02 -2.04343e-08 743.403)
(-1230.44 -2.20667e-08 1237.38)
(-1348.77 -2.36988e-08 1800.24)
(-82.8003 -8.70162e-10 -1756.03)
(-225.518 -2.47647e-09 -1735.75)
(-366.07 -4.10437e-09 -1680.76)
(-504.726 -5.73614e-09 -1594.64)
(-638.671 -7.36936e-09 -1476.24)
(-766.435 -9.0027e-09 -1326.68)
(-886.895 -1.0636e-08 -1145.87)
(-999.089 -1.22692e-08 -933.354)
(-1102.38 -1.39025e-08 -688.189)
(-1196.54 -1.55357e-08 -408.76)
(-1284.55 -1.71687e-08 -92.928)
(-1371.11 -1.88017e-08 263.898)
(-1463.35 -2.04342e-08 670.375)
(-1580.75 -2.20666e-08 1133.84)
(-1723.51 -2.36988e-08 1622.13)
(-91.0674 -8.69471e-10 -1832.71)
(-247.9 -2.47589e-09 -1812.75)
(-402.668 -4.10395e-09 -1756.74)
(-557.779 -5.73597e-09 -1674.07)
(-708.48 -7.36925e-09 -1556.49)
(-854.357 -9.00254e-09 -1407.2)
(-994.514 -1.06358e-08 -1226.5)
(-1128.43 -1.22691e-08 -1013.84)
(-1256.01 -1.39024e-08 -768.349)
(-1378.05 -1.55356e-08 -488.724)
(-1498.16 -1.71686e-08 -173.305)
(-1619.1 -1.88016e-08 181.158)
(-1747.14 -2.04342e-08 578.97)
(-1893.67 -2.20666e-08 1017.4)
(-2053.76 -2.36989e-08 1462.33)
(-100.278 -8.70099e-10 -1926.82)
(-273.101 -2.4766e-09 -1909.4)
(-443.725 -4.10352e-09 -1856.82)
(-614.899 -5.73529e-09 -1772.64)
(-783.935 -7.36914e-09 -1653.57)
(-948.861 -9.00253e-09 -1503.96)
(-1109.41 -1.06358e-08 -1322.96)
(-1265.38 -1.22689e-08 -1109.82)
(-1416.88 -1.39023e-08 -863.599)
(-1565.6 -1.55355e-08 -583.724)
(-1713.6 -1.71685e-08 -269.13)
(-1863.18 -1.88015e-08 82.5321)
(-2018.33 -2.0434e-08 472.631)
(-2185.26 -2.20665e-08 893.785)
(-2359.87 -2.36991e-08 1315.1)
(-109.432 -8.67712e-10 -2035.21)
(-298.412 -2.47179e-09 -2018.45)
(-487.489 -4.10214e-09 -1970.29)
(-676.718 -5.73554e-09 -1884.96)
(-864.158 -7.36916e-09 -1766.61)
(-1048.7 -9.00256e-09 -1616.53)
(-1230.05 -1.06357e-08 -1434.96)
(-1408.04 -1.22687e-08 -1221.1)
(-1583.04 -1.39021e-08 -974.132)
(-1756.62 -1.55353e-08 -694.234)
(-1930.02 -1.71684e-08 -380.61)
(-2104.65 -1.88014e-08 -31.5369)
(-2282.42 -2.04338e-08 353.312)
(-2466.11 -2.20664e-08 764.75)
(-2655.24 -2.36994e-08 1175.35)
(-118.972 -8.70386e-10 -2159.87)
(-322.732 -2.47043e-09 -2149.32)
(-531.385 -4.1004e-09 -2102.75)
(-741.039 -5.73491e-09 -2015.97)
(-948.113 -7.36918e-09 -1895.57)
(-1152.75 -9.00267e-09 -1744.62)
(-1355.18 -1.06357e-08 -1562.42)
(-1555.26 -1.22685e-08 -1347.69)
(-1753.26 -1.39018e-08 -1099.75)
(-1950.23 -1.55351e-08 -819.486)
(-2147.27 -1.71682e-08 -506.8)
(-2344.81 -1.88012e-08 -159.478)
(-2544.09 -2.04337e-08 221.867)
(-2743.12 -2.20663e-08 628.724)
(-2948.25 -2.36984e-08 1035.45)
(-124.893 -8.52089e-10 -2291.3)
(-344.544 -2.45197e-09 -2290.78)
(-577.528 -4.09917e-09 -2249.52)
(-809.04 -5.73609e-09 -2160.77)
(-1035.52 -7.36965e-09 -2040.25)
(-1260.22 -9.00284e-09 -1888.09)
(-1483.98 -1.06358e-08 -1705.22)
(-1706.19 -1.22684e-08 -1489.51)
(-1926.59 -1.39016e-08 -1240.29)
(-2145.91 -1.55347e-08 -959.41)
(-2365.07 -1.71679e-08 -647.462)
(-2584.67 -1.8801e-08 -300.902)
(-2805.15 -2.04335e-08 79.196)
(-3018.65 -2.20662e-08 483.907)
(-3248.87 -2.36987e-08 888.935)
(-129.393 -8.0271e-10 -2426.98)
(-360.285 -2.38843e-09 -2441.3)
(-621.825 -4.09349e-09 -2407.85)
(-879.103 -5.73666e-09 -2319.57)
(-1125.09 -7.3705e-09 -2198.74)
(-1370.26 -9.0031e-09 -2046.83)
(-1616.21 -1.06356e-08 -1864.41)
(-1860.68 -1.22682e-08 -1647)
(-2103 -1.39013e-08 -1395.62)
(-2343.67 -1.55343e-08 -1113.69)
(-2583.44 -1.71676e-08 -801.436)
(-2823.81 -1.88007e-08 -455.207)
(-3059.84 -2.0433e-08 -78.8633)
(-3293.27 -2.20656e-08 310.709)
(-3545.16 -2.36981e-08 693.602)
(-130.97 -7.28006e-10 -2568.81)
(-365.667 -2.06816e-09 -2574.7)
(-636.613 -3.84611e-09 -2592.69)
(-940.931 -5.71656e-09 -2510.9)
(-1214.79 -7.37065e-09 -2373.18)
(-1481.56 -9.00297e-09 -2220)
(-1751.01 -1.06354e-08 -2038.03)
(-2018.49 -1.2268e-08 -1818)
(-2282.69 -1.39009e-08 -1563.88)
(-2543.21 -1.55336e-08 -1277.99)
(-2800.33 -1.71666e-08 -959.377)
(-3063.62 -1.88004e-08 -615.608)
(-3308.64 -2.04324e-08 -236.674)
(-3538.89 -2.20644e-08 134.973)
(-3741.29 -2.36965e-08 406.721)
(-130.352 -7.2764e-10 -2721.4)
(-394.705 -2.0846e-09 -2801.08)
(-669.141 -3.85832e-09 -3026.46)
(-1001.07 -5.7147e-09 -2755.02)
(-1288.01 -7.37066e-09 -2574.03)
(-1591.7 -9.0025e-09 -2411.54)
(-1889 -1.06346e-08 -2229.39)
(-2180.49 -1.22673e-08 -2002.65)
(-2468.4 -1.39002e-08 -1744.07)
(-2757.5 -1.5529e-08 -1430.17)
(-2992.74 -1.71465e-08 -960.109)
(-3193.39 -1.87793e-08 -588.648)
(-3519.83 -2.04276e-08 -364.963)
(-3663.65 -2.20518e-08 104.051)
(-3471.8 -2.36827e-08 288.416)
(-123.03 -7.46592e-10 -3150.8)
(-465.031 -2.26365e-09 -4030.6)
(-679.909 -3.98422e-09 -4353.56)
(-975.805 -5.69412e-09 -4006.11)
(-1265.73 -7.34666e-09 -3473.2)
(-1687.54 -8.99712e-09 -2709.45)
(-2037.79 -1.0624e-08 -2528.93)
(-2358.61 -1.22617e-08 -2221.75)
(-2678.5 -1.38954e-08 -1939.98)
(-3043.4 -1.55128e-08 -1546.23)
(-3238.44 -1.71021e-08 -793.142)
(-3407.34 -1.87274e-08 -208.804)
(-3731.13 -2.04157e-08 -399.09)
(-3791.13 -2.19911e-08 904.206)
(-3390.05 -2.36176e-08 1325.92)
(-302.263 -8.29847e-10 -5275.47)
(-702.773 -2.38642e-09 -5416.76)
(-792.654 -4.03252e-09 -5288.54)
(-1058.35 -5.68672e-09 -5005.99)
(-1322.75 -7.32254e-09 -4429.23)
(-1889.46 -8.9505e-09 -3814.34)
(-2419.77 -1.0578e-08 -3241.45)
(-2850.71 -1.22021e-08 -2694.8)
(-3204.87 -1.38231e-08 -2114.18)
(-3512.37 -1.5457e-08 -1536.45)
(-3734.59 -1.70628e-08 -702.205)
(-3933.97 -1.86789e-08 154.125)
(-4087.9 -2.03127e-08 821.304)
(-4236.39 -2.1948e-08 1410.33)
(-4037.18 -2.35713e-08 2197.17)
(-286.399 -8.5269e-10 -6151.28)
(-740.357 -2.43806e-09 -6410.28)
(-960.315 -4.05986e-09 -6298.41)
(-1273.88 -5.68406e-09 -5837.51)
(-1693.07 -7.3059e-09 -5205.85)
(-2272.41 -8.93127e-09 -4406.38)
(-2807.88 -1.05531e-08 -3728.44)
(-3273.44 -1.21733e-08 -3057.7)
(-3687.94 -1.37939e-08 -2353.36)
(-4026.04 -1.54243e-08 -1662.31)
(-4308.99 -1.70429e-08 -797.478)
(-4586.89 -1.86611e-08 114.704)
(-4822.04 -2.02822e-08 1053.03)
(-4857.41 -2.19159e-08 1746.29)
(-4857.48 -2.3537e-08 2749.36)
(-256.067 -8.81898e-10 -6858.61)
(-759.999 -2.457e-09 -6964.08)
(-1178.85 -4.06686e-09 -6802.42)
(-1625.81 -5.68298e-09 -6326.3)
(-2158.16 -7.3021e-09 -5644.38)
(-2731.34 -8.92291e-09 -4875.75)
(-3274.73 -1.05427e-08 -4144.48)
(-3761.68 -1.21591e-08 -3414.01)
(-4218.52 -1.37808e-08 -2631.92)
(-4601.07 -1.54076e-08 -1867.45)
(-4929.58 -1.70303e-08 -967.251)
(-5273.42 -1.86473e-08 17.7405)
(-5574.92 -2.02666e-08 1001.87)
(-5594.95 -2.18952e-08 1878.04)
(-5758.08 -2.35138e-08 2997.23)
(-284.177 -8.97994e-10 -7519.68)
(-857.676 -2.46126e-09 -7485.25)
(-1400.23 -4.06843e-09 -7292.45)
(-1992.13 -5.68066e-09 -6785.82)
(-2606.92 -7.29829e-09 -6106.06)
(-3215.06 -8.91717e-09 -5330.23)
(-3771.22 -1.0537e-08 -4555.09)
(-4289.93 -1.21547e-08 -3778.16)
(-4790.66 -1.3774e-08 -2949.7)
(-5234.92 -1.53967e-08 -2118.77)
(-5584.25 -1.70209e-08 -1187.87)
(-5977.09 -1.86382e-08 -171.104)
(-6350.54 -2.02565e-08 876.412)
(-6372.87 -2.18799e-08 1904.97)
(-6614.77 -2.34969e-08 3095.47)
(-330.709 -9.06711e-10 -8173.96)
(-990.397 -2.46438e-09 -8068.98)
(-1653.49 -4.0679e-09 -7873.69)
(-2358.5 -5.67772e-09 -7339)
(-3062.04 -7.2935e-09 -6648.98)
(-3733.89 -8.91105e-09 -5838.12)
(-4332.33 -1.05303e-08 -5014.87)
(-4852.35 -1.21504e-08 -4168.93)
(-5391.81 -1.37681e-08 -3292.42)
(-5890.32 -1.53884e-08 -2402.54)
(-6273.08 -1.70117e-08 -1423.7)
(-6696.69 -1.86282e-08 -332.686)
(-7060.71 -2.0244e-08 776.819)
(-7206.72 -2.1864e-08 1925.97)
(-7482.42 -2.348e-08 3187.61)
(-376.31 -9.01078e-10 -8840.36)
(-1125.03 -2.46547e-09 -8725.37)
(-1901.06 -4.06558e-09 -8573.37)
(-2741.95 -5.67207e-09 -8026.07)
(-3555.37 -7.28746e-09 -7271.02)
(-4297.74 -8.90363e-09 -6412.13)
(-4951.79 -1.05213e-08 -5539.9)
(-5496.73 -1.21404e-08 -4626.68)
(-6062.65 -1.37596e-08 -3663.21)
(-6599.6 -1.53806e-08 -2701.54)
(-7024.03 -1.70011e-08 -1677.19)
(-7499.02 -1.86143e-08 -477.693)
(-7954.35 -2.023e-08 723.125)
(-8080.68 -2.18492e-08 1914.56)
(-8409.25 -2.34637e-08 3220.78)
(-415.657 -8.94173e-10 -9642.97)
(-1254.55 -2.46359e-09 -9561.86)
(-2177.04 -4.06077e-09 -9436.63)
(-3171.82 -5.66551e-09 -8821.72)
(-4099.83 -7.27961e-09 -7997.8)
(-4919.01 -8.89401e-09 -7076.87)
(-5651.95 -1.05082e-08 -6143.96)
(-6235.97 -1.21262e-08 -5132.77)
(-6836.49 -1.37469e-08 -4052.09)
(-7403.85 -1.53672e-08 -2994.02)
(-7835.26 -1.69904e-08 -1955.04)
(-8331.14 -1.86055e-08 -727.801)
(-8833.82 -2.02194e-08 557.218)
(-8974.63 -2.18346e-08 1903.15)
(-9316.27 -2.34512e-08 3242.65)
(-449.115 -8.9245e-10 -10612.3)
(-1384.13 -2.46248e-09 -10584.4)
(-2492.04 -4.05423e-09 -10408.7)
(-3661.43 -5.65795e-09 -9721.51)
(-4716.99 -7.27014e-09 -8835.94)
(-5601.03 -8.88309e-09 -7821.34)
(-6423.38 -1.0491e-08 -6844.41)
(-7099.98 -1.21048e-08 -5687.22)
(-7750.93 -1.37282e-08 -4453.56)
(-8336.9 -1.53511e-08 -3272.62)
(-8729.21 -1.69766e-08 -2212.15)
(-9221.27 -1.8593e-08 -908.904)
(-9688.14 -2.02048e-08 534.549)
(-9893.39 -2.18184e-08 1944.53)
(-10193.9 -2.3429e-08 3334.05)
(-493.011 -8.89238e-10 -11802.8)
(-1538.19 -2.46002e-09 -11799.9)
(-2853.54 -4.04742e-09 -11532.3)
(-4211.83 -5.64853e-09 -10767.5)
(-5423.63 -7.25832e-09 -9798.44)
(-6351.26 -8.86962e-09 -8683.44)
(-7255.7 -1.04714e-08 -7640.31)
(-8091.81 -1.20806e-08 -6286.54)
(-8836.05 -1.37032e-08 -4866.77)
(-9445.62 -1.53275e-08 -3525.94)
(-9754.94 -1.69575e-08 -2417.6)
(-10237.3 -1.85741e-08 -952.473)
(-10658.1 -2.01836e-08 724.58)
(-10854.8 -2.17998e-08 2100.5)
(-11072.4 -2.34134e-08 3595.01)
(-555.259 -8.86822e-10 -13224.7)
(-1719.17 -2.45761e-09 -13232.4)
(-3272.22 -4.04108e-09 -12823)
(-4843.91 -5.63763e-09 -11983.4)
(-6244.54 -7.24295e-09 -10925.5)
(-7207.8 -8.85107e-09 -9740.88)
(-8214.39 -1.045e-08 -8526.31)
(-9221.92 -1.20538e-08 -6941.53)
(-10105.5 -1.36741e-08 -5307.27)
(-10728.8 -1.52996e-08 -3794.41)
(-10976.7 -1.69319e-08 -2550.24)
(-11447.3 -1.85487e-08 -871.252)
(-11826.5 -2.01568e-08 1087.33)
(-11915.2 -2.17769e-08 2436.3)
(-12017.8 -2.33857e-08 4155.29)
(-644.905 -8.79483e-10 -14893.1)
(-1937.77 -2.4518e-09 -14816.7)
(-3736.8 -4.03336e-09 -14273.5)
(-5547.03 -5.62663e-09 -13354.2)
(-7159.59 -7.22806e-09 -12206.9)
(-8174.83 -8.83218e-09 -10958.9)
(-9313.7 -1.04286e-08 -9540.78)
(-10520.9 -1.20278e-08 -7692.46)
(-11599 -1.36409e-08 -5779.86)
(-12210.9 -1.52674e-08 -4104.8)
(-12409.1 -1.69026e-08 -2664.17)
(-12898.7 -1.85174e-08 -662.844)
(-13243.3 -2.01258e-08 1561.28)
(-13179.5 -2.17494e-08 3005.55)
(-13157.8 -2.3355e-08 5109.63)
(-770.757 -8.71193e-10 -16850.2)
(-2199.81 -2.44976e-09 -16677.3)
(-4264.54 -4.02541e-09 -16009.1)
(-6350.82 -5.61152e-09 -14953.7)
(-8208.84 -7.2086e-09 -13671.2)
(-9285.76 -8.81132e-09 -12360.6)
(-10589.6 -1.04072e-08 -10696.6)
(-11999.3 -1.20045e-08 -8569.02)
(-13311.4 -1.36082e-08 -6319.15)
(-13966 -1.52306e-08 -4423.7)
(-14088.8 -1.68713e-08 -2787.41)
(-14624.5 -1.84816e-08 -365.226)
(-14990.1 -2.00915e-08 2107.76)
(-14759.8 -2.17164e-08 3811.95)
(-14642.8 -2.3325e-08 6399.14)
(-939.426 -8.62185e-10 -18977.9)
(-2566.92 -2.44367e-09 -18779.4)
(-4893.42 -4.01316e-09 -17973.2)
(-7267.26 -5.59542e-09 -16744.1)
(-9398.51 -7.19051e-09 -15320.6)
(-10562.4 -8.78992e-09 -13951.1)
(-12065.6 -1.03856e-08 -12011.2)
(-13684.7 -1.19811e-08 -9576.81)
(-15214 -1.3578e-08 -6963.91)
(-16009.6 -1.51994e-08 -4770.24)
(-16014.2 -1.6842e-08 -2985.37)
(-16610.9 -1.84497e-08 -221.896)
(-17106.9 -2.00545e-08 2689.24)
(-16676.3 -2.16774e-08 4818.82)
(-16443.6 -2.32797e-08 7851.58)
(-1115.5 -8.5681e-10 -21223.5)
(-3025.55 -2.43732e-09 -21022.4)
(-5616.73 -4.0046e-09 -20105.1)
(-8288.05 -5.58368e-09 -18700.2)
(-10738.1 -7.17292e-09 -17193.5)
(-12021.5 -8.76927e-09 -15768.3)
(-13785.6 -1.03617e-08 -13509.1)
(-15631.6 -1.19582e-08 -10745.6)
(-17354.9 -1.35535e-08 -7786.82)
(-18504.9 -1.51591e-08 -5017.58)
(-18183.9 -1.6812e-08 -3230.33)
(-18836 -1.84189e-08 -153.13)
(-19420.1 -2.00193e-08 3297.88)
(-18858 -2.16318e-08 6155.71)
(-18365.4 -2.32281e-08 9609.8)
(-1279.56 -8.54441e-10 -23698.1)
(-3460.38 -2.42921e-09 -23343.3)
(-6363.72 -3.99007e-09 -22342.7)
(-9361.93 -5.57004e-09 -20822.4)
(-12170.5 -7.15629e-09 -19306.4)
(-13713 -8.74486e-09 -17775.3)
(-15762.5 -1.03359e-08 -15172.2)
(-17842.5 -1.19333e-08 -12061.3)
(-19758.8 -1.35258e-08 -8729.27)
(-21079.7 -1.51241e-08 -5544.33)
(-20776.3 -1.67737e-08 -3416.98)
(-21464.3 -1.83796e-08 83.0661)
(-22132.6 -1.99767e-08 4170.2)
(-21343 -2.15739e-08 8038.67)
(-20554.2 -2.31701e-08 12000.2)
(-1416.09 -8.51499e-10 -26644.9)
(-3764.08 -2.4208e-09 -26084.7)
(-7058.07 -3.98428e-09 -24924.6)
(-10479.6 -5.55379e-09 -23260.6)
(-13686.8 -7.12782e-09 -21725.6)
(-15700.1 -8.71523e-09 -20030.5)
(-18063.9 -1.03013e-08 -17057.9)
(-20414.1 -1.18987e-08 -13551.6)
(-22584.8 -1.34883e-08 -9758.86)
(-24104.4 -1.50784e-08 -6074.08)
(-23908.5 -1.6724e-08 -3564.34)
(-24548.9 -1.83368e-08 285.506)
(-25386.7 -1.99335e-08 5136.67)
(-24209.2 -2.15039e-08 10399.6)
(-23134.8 -2.30936e-08 15046)
(-1541.29 -8.47112e-10 -30429.1)
(-3981.72 -2.40603e-09 -29827.9)
(-7756.75 -3.96096e-09 -28332.3)
(-11735.9 -5.53232e-09 -26146)
(-15376.1 -7.10286e-09 -24403.1)
(-17938.7 -8.67808e-09 -22543.6)
(-20718.7 -1.02592e-08 -19172.2)
(-23426.7 -1.18504e-08 -15231.3)
(-25864.1 -1.34323e-08 -10943.4)
(-27562.1 -1.50146e-08 -6760.34)
(-27655 -1.66608e-08 -3585.76)
(-28087 -1.82893e-08 457.834)
(-28963.5 -1.98747e-08 6351.9)
(-27617.8 -2.14149e-08 13372.3)
(-26117 -2.29982e-08 19221.7)
(-1709.45 -8.409e-10 -35085.6)
(-4317.75 -2.39534e-09 -34790.9)
(-8704.68 -3.9312e-09 -32952.5)
(-13278.8 -5.50683e-09 -29447.1)
(-17304.6 -7.06869e-09 -27466.1)
(-20439.1 -8.6381e-09 -25358.8)
(-23703.8 -1.02109e-08 -21592.1)
(-26970.2 -1.17795e-08 -17211.8)
(-29819.2 -1.33509e-08 -12324)
(-31679.9 -1.49359e-08 -7530.25)
(-32089.6 -1.65795e-08 -3455)
(-32360.9 -1.82188e-08 1067.21)
(-33085.6 -1.97831e-08 8626.72)
(-32106.8 -2.12998e-08 17138.9)
(-30276.5 -2.28706e-08 25002.6)
(-2066.93 -8.37249e-10 -40046.3)
(-5480.69 -2.3761e-09 -39946.3)
(-10543.1 -3.8868e-09 -37352.3)
(-15306.7 -5.46496e-09 -33411.6)
(-19575.4 -7.02457e-09 -31093.3)
(-23252.5 -8.58783e-09 -28518.1)
(-27008.8 -1.0159e-08 -24393.6)
(-30892.2 -1.17053e-08 -19620.1)
(-34290.7 -1.32607e-08 -14109.7)
(-36524.2 -1.48436e-08 -8502.2)
(-37391.7 -1.64775e-08 -3341.04)
(-38077.8 -1.80924e-08 2662.33)
(-38846.6 -1.96457e-08 11686)
(-38232.9 -2.11594e-08 21219.3)
(-36567.5 -2.27268e-08 31651.9)
(-2529.6 -8.24843e-10 -44931.7)
(-6967.71 -2.36329e-09 -44130.5)
(-12544.5 -3.85958e-09 -41337.1)
(-17741.3 -5.39858e-09 -38105.5)
(-22213.5 -6.97028e-09 -35191.8)
(-26408.8 -8.53377e-09 -32006.8)
(-30588.9 -1.01025e-08 -27603.9)
(-35210.8 -1.16123e-08 -22536.3)
(-39320.7 -1.3157e-08 -16351)
(-42224.3 -1.47329e-08 -9813.02)
(-43841.2 -1.63472e-08 -3516.03)
(-45245.7 -1.79291e-08 4138.07)
(-46464.8 -1.94788e-08 14461.2)
(-46187.7 -2.09944e-08 25086.1)
(-45178.6 -2.25433e-08 38192.3)
(-2908.18 -8.12819e-10 -50118)
(-7804.69 -2.32344e-09 -48638.9)
(-14428.5 -3.82751e-09 -45773.7)
(-20286.6 -5.32875e-09 -43243.1)
(-25348.1 -6.90166e-09 -39694.9)
(-29968.1 -8.47186e-09 -35845.1)
(-34487.8 -1.00343e-08 -31467.1)
(-39930.7 -1.15031e-08 -26136.2)
(-44965.6 -1.30356e-08 -19203.1)
(-48878.4 -1.45946e-08 -11621.3)
(-51437.5 -1.61886e-08 -4207.76)
(-53554.2 -1.77525e-08 4696.6)
(-55652.1 -1.92912e-08 16354.5)
(-55920.6 -2.08073e-08 28294.3)
(-55953.8 -2.23431e-08 43908.3)
(-3315.78 -7.95603e-10 -55866.6)
(-8755.78 -2.28516e-09 -54688.8)
(-16274.8 -3.77433e-09 -51838.7)
(-23146.7 -5.25945e-09 -48785.1)
(-29095.3 -6.81226e-09 -44592.3)
(-33902 -8.38876e-09 -40325)
(-39026.3 -9.91108e-09 -36697.8)
(-45069.2 -1.13938e-08 -30373.9)
(-51080.6 -1.29135e-08 -22742)
(-56096 -1.445e-08 -14292.9)
(-59957.2 -1.60121e-08 -5781.25)
(-62893 -1.75652e-08 4204.55)
(-66146.1 -1.90954e-08 17177.2)
(-67258.4 -2.05999e-08 30483.8)
(-68633.2 -2.21177e-08 48311)
(-3872.28 -7.98198e-10 -62014.5)
(-10339.6 -2.25254e-09 -61145)
(-18389.6 -3.71355e-09 -57975)
(-26142.7 -5.19077e-09 -54330.4)
(-33274.8 -6.69575e-09 -49921.2)
(-38215.8 -8.27392e-09 -45729.4)
(-43877.2 -9.78868e-09 -42543.7)
(-50683 -1.12833e-08 -35265.7)
(-57740.4 -1.2774e-08 -27088.4)
(-63859.8 -1.42945e-08 -17900.5)
(-69026 -1.58206e-08 -8564.02)
(-73028.7 -1.73718e-08 2453.15)
(-77665.7 -1.8881e-08 16651.1)
(-79977.1 -2.03704e-08 31367.7)
(-82911 -2.18744e-08 51092.1)
(-4477.27 -7.82082e-10 -68457)
(-12123.7 -2.20731e-09 -67708.8)
(-20786.8 -3.64823e-09 -64309.6)
(-29294.4 -5.13724e-09 -60233.1)
(-37439.7 -6.62522e-09 -55826.6)
(-42887.1 -8.11949e-09 -52378.1)
(-48979.1 -9.65482e-09 -49005.6)
(-56676.3 -1.11625e-08 -40871.3)
(-64978.6 -1.25885e-08 -32458.1)
(-72362 -1.40864e-08 -22523.2)
(-78695.7 -1.55781e-08 -12751)
(-83933.9 -1.71569e-08 -605.463)
(-90037.1 -1.86474e-08 14684.8)
(-93874.6 -2.01148e-08 30738.7)
(-98539.7 -2.15934e-08 52052.6)
(-5098.81 -7.88895e-10 -75102.3)
(-13908 -2.20004e-09 -74176.7)
(-23263.2 -3.62386e-09 -70711.8)
(-32560.4 -5.0821e-09 -66896.3)
(-41578 -6.48195e-09 -63285.8)
(-47989.7 -7.8626e-09 -61102)
(-54890.7 -9.43508e-09 -56320.2)
(-62951.7 -1.10144e-08 -47332.8)
(-72819.8 -1.22988e-08 -39335.6)
(-81923.5 -1.3751e-08 -28773.2)
(-89404.1 -1.52374e-08 -18496.7)
(-95872.9 -1.68845e-08 -4991.45)
(-103384 -1.83769e-08 11113.4)
(-108738 -1.98338e-08 28406.9)
(-115320 -2.12988e-08 50963.6)
(-5549.72 -7.75562e-10 -81985.4)
(-15114.9 -2.18621e-09 -80565.1)
(-25632.8 -3.6032e-09 -77425.3)
(-35700 -5.00427e-09 -74327.3)
(-45444.5 -6.18022e-09 -73976.4)
(-53359.1 -7.47966e-09 -71410.8)
(-61766.3 -9.02235e-09 -65605)
(-69505.7 -1.07714e-08 -55229.8)
(-80738.2 -1.19197e-08 -47842.6)
(-91672.9 -1.33173e-08 -37192.2)
(-100685 -1.4818e-08 -25994.1)
(-108884 -1.65227e-08 -11026.7)
(-117560 -1.80566e-08 5354)
(-124313 -1.95404e-08 24223.1)
(-132924 -2.09803e-08 47829.6)
(-5699.66 -7.68758e-10 -90322.1)
(-15524 -2.1514e-09 -88299.1)
(-27535.2 -3.52655e-09 -85635.3)
(-38578.2 -4.78053e-09 -84465.7)
(-48919.5 -5.73147e-09 -86361.3)
(-58888.9 -6.94892e-09 -83617.4)
(-68889.4 -8.43901e-09 -77150.6)
(-76918.1 -1.02441e-08 -66470)
(-88457.2 -1.15164e-08 -57557.9)
(-100912 -1.28405e-08 -47305.7)
(-112190 -1.43012e-08 -35607.7)
(-122739 -1.60468e-08 -19394.2)
(-132259 -1.77371e-08 -3495.92)
(-140594 -1.92756e-08 18177.4)
(-151172 -2.07033e-08 43341)
(-5679.66 -7.0533e-10 -101337)
(-15446.1 -2.00522e-09 -98821)
(-28695.9 -3.30254e-09 -96071.7)
(-40684.6 -4.33025e-09 -97731.9)
(-51817.9 -5.21623e-09 -99499.8)
(-63798.4 -6.32462e-09 -97151.5)
(-75580.4 -7.69022e-09 -91020.2)
(-83950.2 -9.68431e-09 -78871.2)
(-95772.9 -1.12343e-08 -67228.3)
(-109401 -1.23722e-08 -58572.5)
(-123382 -1.35919e-08 -48519)
(-137132 -1.53128e-08 -32215.2)
(-147158 -1.75507e-08 -16008.2)
(-158270 -1.91049e-08 10437.3)
(-170377 -2.05338e-08 37831.8)
(-5809.96 -6.22909e-10 -114712)
(-15636 -1.77863e-09 -112536)
(-29257.4 -2.93423e-09 -110451)
(-42142.3 -3.80829e-09 -112676)
(-54239.5 -4.67538e-09 -113317)
(-67579.3 -5.61271e-09 -112005)
(-80858 -6.76974e-09 -107163)
(-92137.3 -8.28363e-09 -98504.6)
(-102375 -1.09981e-08 -76963.9)
(-116017 -1.18142e-08 -71162.8)
(-132351 -1.25621e-08 -66181.2)
(-148184 -1.41508e-08 -52805.5)
(-164333 -1.72314e-08 -29893.1)
(-177558 -1.89716e-08 1620.14)
(-191189 -2.03496e-08 32070.6)
(-6015.66 -5.31403e-10 -129427)
(-16019.4 -1.53016e-09 -128087)
(-29947.7 -2.49534e-09 -126832)
(-43289.5 -3.34165e-09 -127309)
(-55964.4 -4.10815e-09 -127793)
(-70012.3 -4.85712e-09 -127613)
(-84172.5 -5.81902e-09 -123933)
(-96328 -7.06214e-09 -116412)
(-107540 -8.66067e-09 -105287)
(-120927 -1.11448e-08 -85030.5)
(-137431 -1.2208e-08 -78269.1)
(-153267 -1.33626e-08 -71073.7)
(-181217 -1.64601e-08 -48034.4)
(-199353 -1.88389e-08 -8499.43)
(-214463 -2.02166e-08 26442.4)
(-6301.14 -4.54168e-10 -144771)
(-16771.3 -1.30896e-09 -143985)
(-30899.3 -2.15888e-09 -142554)
(-44296.4 -2.918e-09 -141956)
(-56829.3 -3.57942e-09 -142320)
(-71060.8 -4.13716e-09 -143251)
(-85552.5 -4.8206e-09 -141316)
(-96539.4 -5.30449e-09 -139899)
(-109139 -6.98126e-09 -125859)
(-123545 -8.38236e-09 -115496)
(-142114 -1.17935e-08 -90681.2)
(-164905 -1.18392e-08 -95847.2)
(-194913 -1.33984e-08 -85351.4)
(-224694 -1.8742e-08 -20259.5)
(-282294 -2.01198e-08 3599.61)
(-6625.83 -3.93865e-10 -158645)
(-17890.1 -1.14298e-09 -158539)
(-31930.9 -1.86216e-09 -158031)
(-45283.1 -2.52976e-09 -156775)
(-57109.3 -3.11168e-09 -156561)
(-71022.3 -3.56831e-09 -157808)
(-84366.7 -4.03909e-09 -156559)
(-94496.7 -4.15874e-09 -157324)
(-106167 -4.85726e-09 -151133)
(-120013 -6.01948e-09 -138518)
(-135852 -6.96708e-09 -132560)
(-161451 -8.22886e-09 -132620)
(-191771 -9.61734e-09 -135028)
(-231636 -1.18726e-08 -132298)
(-308007 -1.27495e-08 -158805)
(-6807.32 -3.50644e-10 -171650)
(-18251.5 -1.00818e-09 -172169)
(-32876.6 -1.63801e-09 -171153)
(-46363.9 -2.26175e-09 -170007)
(-57413.8 -2.74662e-09 -170503)
(-71080.8 -3.17198e-09 -171018)
(-83571.3 -3.51696e-09 -169319)
(-92013.5 -3.43013e-09 -169946)
(-98749.7 -3.30807e-09 -168349)
(-109987 -3.72482e-09 -157943)
(-128177 -4.90577e-09 -150845)
(-145764 -5.64496e-09 -155649)
(-165680 -6.56978e-09 -167655)
(-189140 -7.78312e-09 -191207)
(-217879 -8.36449e-09 -253753)
(-7021.96 -3.21588e-10 -184718)
(-19234.6 -8.93847e-10 -185456)
(-34003.6 -1.47083e-09 -184215)
(-47251.1 -2.04921e-09 -183072)
(-57761.4 -2.45922e-09 -184910)
(-71807.7 -2.83662e-09 -184987)
(-83176.7 -3.06053e-09 -181858)
(-90933 -2.95753e-09 -180577)
(-100040 -2.95931e-09 -176587)
(-109200 -3.04689e-09 -167073)
(-124083 -3.85137e-09 -161127)
(-136125 -4.44347e-09 -162036)
(-144656 -5.0444e-09 -169226)
(-147392 -5.67261e-09 -189389)
(-139418 -6.12e-09 -229859)
(-7194.89 -2.91563e-10 -197638)
(-19723.9 -8.32749e-10 -199142)
(-35483.8 -1.34558e-09 -199484)
(-48978.1 -1.85324e-09 -198217)
(-58676.5 -2.16421e-09 -201449)
(-73609 -2.45147e-09 -201452)
(-85474.1 -2.65443e-09 -197609)
(-92414.8 -2.64421e-09 -192554)
(-102407 -2.68682e-09 -186010)
(-114650 -2.93786e-09 -174597)
(-125514 -3.26623e-09 -166034)
(-134511 -3.81053e-09 -161419)
(-138490 -4.28e-09 -158442)
(-134572 -4.6193e-09 -158710)
(-115265 -4.97234e-09 -160604)
(-7338.74 -2.74681e-10 -210726)
(-20252.6 -7.8705e-10 -212871)
(-36607.8 -1.26327e-09 -213719)
(-50536.5 -1.70722e-09 -213621)
(-60311.5 -1.89841e-09 -218888)
(-76025.9 -2.15818e-09 -217891)
(-89195.2 -2.33176e-09 -214628)
(-96396.4 -2.35226e-09 -206902)
(-108666 -2.54602e-09 -196234)
(-120845 -2.7808e-09 -180511)
(-132705 -3.12978e-09 -169236)
(-141129 -3.55603e-09 -158134)
(-145746 -3.9685e-09 -146722)
(-144793 -4.27614e-09 -129107)
(-132941 -4.58173e-09 -103707)
(-7399.55 -2.51761e-10 -223653)
(-20610.3 -7.00574e-10 -225246)
(-36570.7 -1.159e-09 -225796)
(-51749.2 -1.57798e-09 -228137)
(-62675.4 -1.71523e-09 -235684)
(-79282.7 -1.99943e-09 -232635)
(-93888.8 -2.20732e-09 -227416)
(-104156 -2.24767e-09 -219905)
(-118060 -2.50904e-09 -206225)
(-131988 -2.80256e-09 -189827)
(-145955 -3.10669e-09 -173266)
(-155761 -3.47288e-09 -158296)
(-162781 -3.8587e-09 -142276)
(-168755 -4.16095e-09 -116003)
(-170832 -4.46555e-09 -80549.6)
(-7240.47 -2.2567e-10 -237994)
(-19788 -6.57134e-10 -238750)
(-36034.4 -1.05689e-09 -237649)
(-52604.6 -1.39176e-09 -246886)
(-66657.1 -1.62609e-09 -252160)
(-83954.2 -1.92454e-09 -247063)
(-99804 -2.16399e-09 -239589)
(-113141 -2.27321e-09 -230404)
(-128228 -2.53713e-09 -216106)
(-143167 -2.82366e-09 -199526)
(-158090 -3.11007e-09 -182849)
(-171181 -3.45091e-09 -165292)
(-181282 -3.81904e-09 -145812)
(-192529 -4.14589e-09 -119269)
(-203650 -4.44754e-09 -87064.6)
(-7282.91 -2.10582e-10 -255202)
(-19653.2 -5.54556e-10 -256969)
(-37049.7 -9.47531e-10 -256979)
(-55372.7 -1.28796e-09 -265512)
(-71967.4 -1.60523e-09 -268196)
(-89567.6 -1.89776e-09 -260494)
(-106518 -2.13717e-09 -252608)
(-122024 -2.29623e-09 -241185)
(-138394 -2.55492e-09 -226781)
(-154464 -2.84862e-09 -209847)
(-170592 -3.13899e-09 -192838)
(-185670 -3.47087e-09 -174089)
(-198543 -3.81254e-09 -152790)
(-212109 -4.13901e-09 -127058)
(-224287 -4.41726e-09 -98940.6)
(-7655.46 -2.04379e-10 -272305)
(-21248.5 -5.67883e-10 -273613)
(-37937.6 -9.06928e-10 -274645)
(-57961.9 -1.2305e-09 -283763)
(-76497.4 -1.55803e-09 -280992)
(-95283 -1.90541e-09 -273792)
(-113519 -2.20924e-09 -265453)
(-130739 -2.32613e-09 -252931)
(-148681 -2.56496e-09 -238595)
(-166089 -2.87086e-09 -221161)
(-183547 -3.1895e-09 -203600)
(-200545 -3.50138e-09 -183935)
(-215929 -3.82125e-09 -160850)
(-230302 -4.14806e-09 -132226)
(-238828 -4.43475e-09 -100967)
(-8227.22 -2.19477e-10 -287308)
(-22516.5 -6.20371e-10 -288626)
(-39016.5 -8.96724e-10 -290978)
(-59724.3 -1.20685e-09 -296866)
(-80478.1 -1.52154e-09 -294726)
(-100835 -1.93013e-09 -288041)
(-120343 -2.30239e-09 -280126)
(-139287 -2.44496e-09 -266769)
(-159161 -2.64042e-09 -251878)
(-178126 -2.89604e-09 -233416)
(-196784 -3.18019e-09 -215229)
(-218156 -3.5178e-09 -193096)
(-237061 -3.8335e-09 -168691)
(-254211 -4.1583e-09 -130157)
(-299480 -4.44578e-09 -142755)
(-8638.63 -1.93094e-10 -301864)
(-23822.3 -5.49016e-10 -304438)
(-40936.6 -8.33174e-10 -307727)
(-62079.6 -1.21597e-09 -311971)
(-84878.2 -1.5833e-09 -311123)
(-106587 -1.96081e-09 -303267)
(-127286 -2.31938e-09 -293736)
(-147168 -2.65298e-09 -282569)
(-168732 -2.8589e-09 -268528)
(-190589 -2.92306e-09 -246364)
(-218420 -3.28484e-09 -233020)
(-245867 -3.60587e-09 -213422)
(-268049 -3.863e-09 -182133)
(-218334 -5.09483e-09 -221770)
(-297004 -5.47986e-09 -396038)
(-8822.46 -1.88667e-10 -316321)
(-24783.1 -5.2538e-10 -319759)
(-42655 -7.98769e-10 -324228)
(-64319 -1.23867e-09 -328215)
(-88687.3 -1.65192e-09 -328718)
(-112551 -2.02048e-09 -319800)
(-134374 -2.34558e-09 -307928)
(-153066 -2.81698e-09 -296158)
(-172960 -3.2114e-09 -289369)
(-199164 -3.57245e-09 -291981)
(-227423 -3.85847e-09 -276631)
(-260682 -4.05701e-09 -273350)
(-323357 -4.50942e-09 -336114)
(-21720 -6.3895e-09 -281776)
(-56867 -6.87263e-09 -612437)
(-8717.81 -1.85441e-10 -329862)
(-24906.3 -5.46113e-10 -334576)
(-44101.4 -8.80054e-10 -341031)
(-66352.1 -1.29801e-09 -346199)
(-92486.4 -1.75956e-09 -349860)
(-119425 -2.13921e-09 -339488)
(-142715 -2.54763e-09 -328149)
(-156094 -3.11589e-09 -313475)
(-165047 -3.74813e-09 -309728)
(-189832 -4.2669e-09 -325196)
(-173235 -4.98836e-09 -318051)
(-154924 -5.73813e-09 -383785)
(-43420.8 -6.49448e-09 -447151)
(226927 -7.69292e-09 -209481)
(343721 -8.27421e-09 -514211)
(-8634.64 -1.94563e-10 -341924)
(-24572 -5.70712e-10 -348464)
(-44630.5 -9.83203e-10 -357464)
(-68389.7 -1.36139e-09 -366238)
(-97401.4 -1.852e-09 -374876)
(-127552 -2.29385e-09 -362388)
(-152982 -2.80741e-09 -351558)
(-159555 -3.59823e-09 -340085)
(-151957 -4.49213e-09 -325223)
(-169082 -5.03581e-09 -317753)
(-76430.9 -6.2226e-09 -274291)
(37957.7 -7.14892e-09 -269691)
(207287 -7.79558e-09 -446509)
(390567 -8.82471e-09 59473.7)
(692074 -9.5178e-09 -7968.39)
(-8787.55 -2.09892e-10 -347299)
(-23958 -5.61623e-10 -359096)
(-44816.1 -9.22192e-10 -372935)
(-70381.7 -1.43351e-09 -387228)
(-104534 -1.97083e-09 -402591)
(-137488 -2.46382e-09 -388315)
(-166541 -3.09834e-09 -380300)
(-172916 -4.19094e-09 -383655)
(-171927 -5.44044e-09 -327522)
(-89092.8 -7.54869e-09 -117923)
(-38780.9 -8.04556e-09 -64456)
(120841 -8.55338e-09 45549)
(360773 -9.28523e-09 157638)
(315884 -9.80887e-09 528773)
(679576 -1.05018e-08 898487)
(-7877.08 -2.11088e-10 -336261)
(-22089.1 -5.78962e-10 -359934)
(-42829.9 -9.80355e-10 -384576)
(-71416.6 -1.53663e-09 -406270)
(-113592 -2.14902e-09 -429061)
(-148103 -2.63784e-09 -416346)
(-183290 -3.34718e-09 -415860)
(-216625 -4.72388e-09 -452392)
(-268925 -6.34596e-09 -363260)
(-239727 -8.04495e-09 -85625.2)
(-258903 -8.86457e-09 209954)
(-95326.3 -9.21588e-09 364518)
(66782.1 -9.96899e-09 776868)
(-116734 -1.03692e-08 874314)
(37722.8 -1.11335e-08 1.55674e+06)
(-3548.45 -2.13068e-10 -303326)