/*--------------------------------*- C++ -*----------------------------------*\
  =========                 |
  \\      /  F ield         | OpenFOAM: The Open Source CFD Toolbox
   \\    /   O peration     | Website:  https://openfoam.org
    \\  /    A nd           | Version:  7
     \\/     M anipulation  |
\*---------------------------------------------------------------------------*/
FoamFile
{
    version     2.0;
    format      ascii;
    class       volScalarField;
    location    "1.5";
    object      T;
}
// * * * * * * * * * * * * * * * * * * * * * * * * * * * * * * * * * * * * * //

dimensions      [0 0 0 1 0 0 0];

internalField   nonuniform List<scalar> 
32100
(
-3.57022e+33
-4.08429e+32
7.11123e+31
-4.17391e+30
-4.26202e+29
7.84938e+28
5.33749e+27
-1.18446e+27
7.76959e+25
8.81983e+24
-8.71233e+23
-1.43631e+22
7.00406e+19
1.68558e+20
4.45355e+19
-4.76712e+32
7.76085e+31
-4.29788e+30
-4.55179e+29
8.03015e+28
5.6069e+27
-1.21917e+27
7.84139e+25
8.50684e+24
-1.68075e+24
-3.82793e+23
-2.27911e+22
1.42893e+21
1.69758e+20
4.37446e+19
8.55694e+31
-4.4986e+30
-4.96041e+29
8.30142e+28
5.91758e+27
-1.26958e+27
8.07975e+25
9.11788e+24
-1.61165e+24
-2.27243e+23
-1.02452e+23
-1.31386e+22
2.26375e+21
1.00892e+20
3.51313e+19
-4.7693e+30
-5.90118e+29
8.51716e+28
6.79513e+27
-1.35074e+27
7.37056e+25
1.07556e+25
-1.285e+24
-1.2303e+23
3.27987e+21
-2.59309e+22
-3.18336e+21
2.10169e+21
3.47959e+19
2.36932e+19
-8.41516e+29
5.61939e+28
6.42891e+27
-9.92351e+26
5.04155e+25
2.61554e+24
-1.83102e+23
1.49874e+23
2.48199e+22
-3.04354e+21
-1.61938e+21
9.33981e+20
1.38575e+21
-1.24234e+19
1.11537e+19
-9.88549e+28
-2.4937e+28
-2.2447e+27
4.66029e+26
-1.64866e+25
-8.95248e+24
1.13723e+24
2.91695e+23
-1.0992e+21
1.23926e+21
1.78332e+21
1.27446e+21
6.72129e+20
-3.71091e+19
1.61787e+18
-1.69916e+29
-3.36923e+28
-8.64032e+26
3.8237e+26
-2.31933e+25
-7.6976e+24
1.14273e+24
2.64822e+23
1.67408e+21
3.99067e+20
1.05559e+21
6.19948e+20
2.17334e+20
-4.12499e+19
-2.83888e+18
-1.67988e+29
-3.10331e+28
-1.11323e+27
3.55265e+26
-1.63203e+25
-7.68139e+24
9.64066e+23
2.67205e+23
3.64508e+21
-3.67166e+20
4.58716e+20
1.33214e+20
2.02614e+19
-3.18517e+19
-3.25298e+18
-1.5298e+29
-3.00239e+28
-1.29805e+27
3.38992e+26
-1.06843e+25
-7.76357e+24
8.10775e+23
2.6581e+23
5.80047e+21
-6.29805e+20
2.60177e+20
-1.68288e+19
-2.63442e+19
-1.84098e+19
-1.95889e+18
-1.40365e+29
-2.88876e+28
-1.46083e+27
3.18415e+26
-5.27596e+24
-7.72526e+24
6.53622e+23
2.61641e+23
8.09046e+21
-6.90889e+20
2.31486e+20
-1.4765e+19
-2.15723e+19
-7.96989e+18
-7.03109e+17
-1.28623e+29
-2.77519e+28
-1.61653e+27
2.95393e+26
1.90774e+22
-7.59875e+24
4.97502e+23
2.5495e+23
1.02731e+22
-7.02772e+20
2.11612e+20
7.57294e+17
-1.10888e+19
-2.4615e+18
-6.58876e+16
-1.17792e+29
-2.67342e+28
-1.74368e+27
2.69883e+26
5.00356e+24
-7.38454e+24
3.4611e+23
2.45949e+23
1.22553e+22
-6.7936e+20
1.79136e+20
8.05241e+18
-5.65533e+18
-5.92962e+17
8.58233e+16
-1.08065e+29
-2.54719e+28
-1.76476e+27
2.40838e+26
8.99142e+24
-7.0869e+24
2.0463e+23
2.34981e+23
1.39616e+22
-6.16908e+20
1.45477e+20
9.49651e+18
-3.85828e+18
-2.42569e+17
4.50041e+16
-9.63641e+28
-2.12136e+28
-1.53702e+27
1.84725e+26
1.10322e+25
-6.62024e+24
8.97323e+22
2.21823e+23
1.52976e+22
-5.23555e+20
1.22021e+20
1.10274e+19
-2.62454e+18
-1.73045e+17
2.29859e+16
-6.74588e+28
-1.59399e+28
-1.33651e+27
1.34475e+26
1.1538e+25
-5.42623e+24
-7.8505e+21
1.96167e+23
1.62124e+22
-4.29423e+20
1.07273e+20
1.40719e+19
-2.64577e+18
-2.10079e+17
1.41906e+16
-4.82534e+28
-1.30987e+28
-1.25467e+27
1.05852e+26
1.2254e+25
-4.45199e+24
-1.05683e+23
1.72148e+23
1.74113e+22
-3.32947e+20
9.09712e+19
1.7496e+19
-3.11796e+18
-3.06558e+17
1.10462e+16
-4.11488e+28
-1.18637e+28
-1.22718e+27
8.76353e+25
1.34559e+25
-4.0169e+24
-1.98405e+23
1.57554e+23
1.89511e+22
-2.08219e+20
7.05785e+19
2.00104e+19
-3.09267e+18
-4.05623e+17
9.39686e+15
-3.62496e+28
-1.11426e+28
-1.24555e+27
7.26928e+25
1.48054e+25
-3.66881e+24
-2.8066e+23
1.45217e+23
2.05981e+22
-4.33625e+19
4.87198e+19
2.18158e+19
-2.709e+18
-4.79683e+17
6.54923e+15
-3.22058e+28
-1.04856e+28
-1.26135e+27
5.69518e+25
1.59898e+25
-3.29253e+24
-3.59139e+23
1.32643e+23
2.22507e+22
1.61859e+20
2.70358e+19
2.28882e+19
-2.13616e+18
-5.26239e+17
1.89659e+15
-2.8726e+28
-9.8418e+27
-1.27208e+27
3.99538e+25
1.70051e+25
-2.87008e+24
-4.33788e+23
1.18514e+23
2.38006e+22
4.06712e+20
7.02254e+18
2.36147e+19
-1.53963e+18
-5.65296e+17
-4.36214e+15
-2.5513e+28
-9.16749e+27
-1.27332e+27
2.21795e+25
1.77789e+25
-2.39876e+24
-5.02524e+23
1.02449e+23
2.52007e+22
6.92152e+20
-1.07951e+19
2.35244e+19
-8.85061e+17
-5.86246e+17
-1.1765e+16
-2.2434e+28
-8.44336e+27
-1.26727e+27
3.98867e+24
1.82418e+25
-1.88108e+24
-5.62459e+23
8.45678e+22
2.64612e+22
1.02367e+21
-2.54847e+19
2.25347e+19
-2.09373e+17
-5.74649e+17
-1.91678e+16
-1.95263e+28
-7.7044e+27
-1.25576e+27
-1.44625e+25
1.83456e+25
-1.32242e+24
-6.10665e+23
6.48836e+22
2.75813e+22
1.41202e+21
-3.59527e+19
2.11391e+19
4.11876e+17
-5.50227e+17
-2.59013e+16
-1.68334e+28
-6.97568e+27
-1.23794e+27
-3.3041e+25
1.80244e+25
-7.25969e+23
-6.4484e+23
4.33832e+22
2.85089e+22
1.86773e+21
-4.11533e+19
1.94496e+19
1.00036e+18
-5.24951e+17
-3.2105e+16
-1.44028e+28
-6.29081e+27
-1.21558e+27
-5.1637e+25
1.72453e+25
-1.03835e+23
-6.62672e+23
1.9989e+22
2.9148e+22
2.3934e+21
-3.9313e+19
1.73824e+19
1.59537e+18
-5.00342e+17
-3.84554e+16
-1.2235e+28
-5.6507e+27
-1.18622e+27
-7.00395e+25
1.59711e+25
5.2721e+23
-6.61189e+23
-5.26233e+21
2.93689e+22
2.99452e+21
-2.77733e+19
1.4894e+19
2.23821e+18
-4.76515e+17
-4.61032e+16
-1.03558e+28
-5.0527e+27
-1.15072e+27
-8.81769e+25
1.41645e+25
1.15111e+24
-6.3776e+23
-3.21513e+22
2.90035e+22
3.67472e+21
-2.98431e+18
1.1621e+19
2.92223e+18
-4.4146e+17
-5.50343e+16
-8.76356e+27
-4.52031e+27
-1.11594e+27
-1.06262e+26
1.17804e+25
1.74914e+24
-5.89283e+23
-6.03004e+22
2.78009e+22
4.46306e+21
3.9472e+19
7.36321e+18
3.5439e+18
-3.80443e+17
-6.33019e+16
-7.39671e+27
-4.05943e+27
-1.08545e+27
-1.24386e+26
8.75994e+24
2.30018e+24
-5.13285e+23
-8.91911e+22
2.55307e+22
5.34146e+21
1.05355e+20
2.4698e+18
4.09246e+18
-2.99234e+17
-7.06723e+16
-6.18974e+27
-3.63601e+27
-1.05353e+27
-1.41974e+26
5.05431e+24
2.7761e+24
-4.06449e+23
-1.17989e+23
2.20127e+22
6.27926e+21
2.01105e+20
-2.76044e+18
4.55659e+18
-1.96886e+17
-7.71689e+16
-5.10674e+27
-3.20043e+27
-1.00597e+27
-1.57955e+26
6.63221e+23
3.14052e+24
-2.65216e+23
-1.45507e+23
1.69391e+22
7.27937e+21
3.36593e+20
-7.83166e+18
4.73269e+18
-7.03795e+16
-8.09591e+16
-4.16101e+27
-2.75093e+27
-9.35234e+26
-1.71893e+26
-4.39485e+24
3.35022e+24
-8.69582e+22
-1.69627e+23
9.91104e+21
8.28546e+21
5.2744e+20
-1.16536e+19
4.60119e+18
6.69555e+16
-8.34698e+16
-3.39033e+27
-2.35171e+27
-8.64431e+26
-1.83562e+26
-1.00975e+25
3.35272e+24
1.288e+23
-1.86825e+23
5.2716e+20
9.21355e+21
7.97068e+20
-1.31654e+19
4.40832e+18
2.28411e+17
-8.87734e+16
-2.76822e+27
-2.04895e+27
-8.15603e+26
-1.93701e+26
-1.6454e+25
3.09128e+24
3.77326e+23
-1.92576e+23
-1.13499e+22
9.8792e+21
1.17253e+21
-9.62017e+18
4.05566e+18
4.62977e+17
-9.81968e+16
-2.24623e+27
-1.80443e+27
-7.77183e+26
-2.02986e+26
-2.35172e+25
2.49414e+24
6.44329e+23
-1.81343e+23
-2.54555e+22
1.00203e+22
1.68422e+21
5.28292e+18
3.05144e+18
8.07062e+17
-1.08175e+17
-1.80726e+27
-1.56265e+27
-7.28828e+26
-2.11524e+26
-3.13276e+25
1.46717e+24
8.98736e+23
-1.48001e+23
-4.1039e+22
9.24685e+21
2.34697e+21
4.33523e+19
9.28878e+17
1.284e+18
-1.09144e+17
-1.4412e+27
-1.33405e+27
-6.75753e+26
-2.19693e+26
-3.99588e+25
-7.74975e+22
1.10752e+24
-8.99102e+22
-5.67006e+22
7.12863e+21
3.12374e+21
1.26788e+20
-2.64447e+18
1.86717e+18
-7.93633e+16
-1.13425e+27
-1.13643e+27
-6.28059e+26
-2.27231e+26
-4.93163e+25
-2.18858e+24
1.23913e+24
-6.15955e+21
-7.014e+22
3.33504e+21
3.89808e+21
2.73811e+20
-6.73126e+18
2.35205e+18
1.43056e+16
-8.77943e+26
-9.65659e+26
-5.8408e+26
-2.32773e+26
-5.87409e+25
-4.83689e+24
1.25023e+24
1.01554e+23
-7.79947e+22
-2.23485e+21
4.47748e+21
4.97922e+20
-8.45954e+18
2.40651e+18
2.05543e+17
-6.65243e+26
-8.16079e+26
-5.4213e+26
-2.35732e+26
-6.67904e+25
-7.91771e+24
1.09167e+24
2.25758e+23
-7.6598e+22
-9.18409e+21
4.64142e+21
8.01705e+20
-2.2214e+18
1.56752e+18
5.24184e+17
-4.90696e+26
-6.78164e+26
-4.96743e+26
-2.33919e+26
-7.29411e+25
-1.12643e+25
7.25676e+23
3.49293e+23
-6.34457e+22
-1.66474e+22
4.2214e+21
1.16947e+21
2.33795e+19
-8.51954e+17
9.46318e+17
-3.51754e+26
-5.46966e+26
-4.44411e+26
-2.25441e+26
-7.78236e+25
-1.47001e+25
1.45959e+23
4.53506e+23
-3.83933e+22
-2.36801e+22
3.15066e+21
1.52178e+21
7.00219e+19
-4.21571e+18
1.22862e+18
-2.47851e+26
-4.28224e+26
-3.8562e+26
-2.12481e+26
-8.15722e+25
-1.80738e+25
-6.24904e+23
5.11526e+23
-3.14781e+21
-2.9192e+22
1.48522e+21
1.70008e+21
1.29415e+20
-7.19287e+18
1.16314e+18
-1.73679e+26
-3.30341e+26
-3.27454e+26
-1.98717e+26
-8.4188e+25
-2.12764e+25
-1.54128e+24
5.17792e+23
3.79181e+22
-3.20649e+22
-4.68193e+20
1.74148e+21
1.96396e+20
-8.81945e+18
7.89694e+17
-1.21963e+26
-2.55015e+26
-2.7775e+26
-1.85615e+26
-8.59256e+25
-2.42915e+25
-2.5599e+24
4.70231e+23
7.73843e+22
-3.04688e+22
-2.46083e+21
1.66085e+21
2.3675e+20
-9.22197e+18
-4.59956e+17
-8.60071e+25
-1.98372e+26
-2.36833e+26
-1.72997e+26
-8.71235e+25
-2.71817e+25
-3.66225e+24
3.78821e+23
1.12463e+23
-2.6116e+22
-3.84749e+21
1.37371e+21
2.28168e+20
-3.77413e+18
-8.07516e+17
-6.04763e+25
-1.55033e+26
-2.03507e+26
-1.61588e+26
-8.79472e+25
-3.00302e+25
-4.85523e+24
2.56476e+23
1.41354e+23
-2.14417e+22
-4.71217e+21
1.08721e+21
2.04785e+20
-5.16504e+17
-4.45694e+17
-4.2219e+25
-1.2094e+26
-1.75279e+26
-1.51215e+26
-8.82706e+25
-3.27206e+25
-6.13522e+24
9.74163e+22
1.69199e+23
-1.68985e+22
-5.61023e+21
9.11386e+20
1.96328e+20
8.80291e+17
-4.16712e+17
-2.88782e+25
-9.32397e+25
-1.49441e+26
-1.40504e+26
-8.76106e+25
-3.49756e+25
-7.42987e+24
-1.06843e+23
1.94956e+23
-1.18888e+22
-6.44125e+21
7.93836e+20
2.01732e+20
2.04442e+18
-4.59091e+17
-1.93521e+25
-7.0835e+25
-1.2602e+26
-1.29615e+26
-8.61093e+25
-3.68697e+25
-8.72162e+24
-3.59465e+23
2.14895e+23
-5.85643e+21
-7.23133e+21
6.92526e+20
2.11881e+20
3.44781e+18
-4.98284e+17
-1.2637e+25
-5.31328e+25
-1.05956e+26
-1.19343e+26
-8.4327e+25
-3.87338e+25
-1.01325e+25
-6.65795e+23
2.29033e+23
1.35917e+21
-7.91545e+21
5.86425e+20
2.17785e+20
5.12634e+18
-3.92671e+17
-7.98327e+24
-3.91996e+25
-8.84585e+25
-1.08532e+26
-8.23607e+25
-4.06064e+25
-1.17277e+25
-1.04544e+24
2.36069e+23
9.81807e+21
-8.36165e+21
4.62881e+20
2.11683e+20
6.76002e+18
1.34728e+16
-4.91704e+24
-2.81929e+25
-7.19222e+25
-9.70323e+25
-8.00587e+25
-4.25043e+25
-1.34616e+25
-1.51602e+24
2.32329e+23
1.92864e+22
-8.50568e+21
3.34071e+20
1.93231e+20
8.00563e+18
7.24008e+17
-2.93277e+24
-1.97623e+25
-5.69018e+25
-8.58368e+25
-7.79115e+25
-4.44824e+25
-1.53553e+25
-2.0887e+24
2.1325e+23
2.92991e+22
-8.34701e+21
2.19835e+20
1.65494e+20
8.83115e+18
1.9044e+18
-1.63756e+24
-1.35161e+25
-4.44079e+25
-7.54576e+25
-7.55993e+25
-4.63548e+25
-1.74067e+25
-2.77402e+24
1.74234e+23
3.91586e+22
-7.8347e+21
1.37195e+20
1.30356e+20
9.2237e+18
3.73272e+18
-8.20406e+23
-8.86539e+24
-3.3821e+25
-6.53697e+25
-7.22164e+25
-4.79597e+25
-1.96279e+25
-3.58404e+24
1.10468e+23
4.75912e+22
-6.88368e+21
9.94401e+19
8.98905e+19
7.00929e+18
4.46379e+18
-3.39254e+23
-5.44337e+24
-2.47874e+25
-5.5073e+25
-6.77397e+25
-4.92102e+25
-2.20675e+25
-4.56056e+24
1.75513e+22
5.15642e+22
-5.34641e+21
9.54696e+19
4.07872e+19
3.22438e+18
4.23093e+18
-9.36954e+22
-3.06092e+24
-1.72921e+25
-4.49315e+25
-6.21404e+25
-4.98516e+25
-2.45695e+25
-5.711e+24
-1.06789e+23
5.02967e+22
-3.56849e+21
8.95231e+19
1.09873e+19
1.97936e+18
4.10788e+18
3.66536e+21
-1.51733e+24
-1.12707e+25
-3.51754e+25
-5.53335e+25
-4.96572e+25
-2.70606e+25
-6.96653e+24
-2.66404e+23
4.8795e+22
-2.10788e+21
4.37099e+19
1.53479e+19
-3.40494e+17
4.5797e+18
2.39032e+22
-6.18843e+23
-6.66427e+24
-2.6083e+25
-4.76367e+25
-4.85814e+25
-2.95538e+25
-8.17293e+24
-4.74843e+23
6.51044e+22
-1.56214e+21
8.06316e+19
2.76205e+19
2.14095e+19
1.82027e+19
1.21336e+22
-1.70832e+23
-3.35119e+24
-1.79332e+25
-3.94581e+25
-4.66052e+25
-3.19784e+25
-9.13525e+24
-7.48597e+23
1.0134e+23
-5.38656e+21
-1.18054e+20
-1.85302e+20
-8.69194e+19
-8.00337e+18
-5.96881e+21
-2.10555e+22
-1.22198e+24
-1.08961e+25
-3.10753e+25
-4.36656e+25
-3.42361e+25
-9.89794e+24
-1.06409e+24
4.91446e+22
-4.82271e+21
-6.13909e+20
3.28843e+18
-1.76218e+20
-9.69258e+19
-1.38134e+22
-3.15188e+22
-1.50077e+23
-5.15552e+24
-2.26147e+25
-3.96044e+25
-3.61846e+25
-1.10425e+25
-1.53096e+24
-1.65831e+23
2.30845e+22
1.08784e+22
1.2171e+22
9.05104e+21
3.35811e+21
-1.72216e+22
-5.19615e+22
9.6894e+22
-1.03965e+24
-1.42592e+25
-3.43185e+25
-3.75164e+25
-1.24496e+25
-1.9935e+24
-6.03195e+23
-2.39961e+23
-2.24987e+23
-3.2496e+23
-4.11914e+23
-2.387e+23
-4.1e+22
-8.00016e+22
7.59331e+22
9.20658e+23
-6.5723e+24
-2.79833e+25
-3.78377e+25
-1.35089e+25
-2.07185e+24
-6.44644e+23
-8.89312e+23
-8.16331e+23
-1.04167e+24
-8.23546e+23
-4.55059e+23
-2.17668e+23
-7.01635e+22
2.5314e+23
9.62211e+23
-1.28617e+24
-2.11138e+25
-3.64722e+25
-1.41776e+25
-2.07968e+24
-3.68787e+22
-1.8297e+23
-3.82812e+23
-3.56182e+23
-3.09243e+23
-4.35492e+23
4.50591e+24
2.11781e+24
1.02491e+24
9.03705e+23
-1.25712e+24
-1.43892e+25
-3.29023e+25
-1.44305e+25
-2.44461e+24
-2.59317e+21
-3.99249e+20
-3.2395e+22
-5.38557e+22
-9.58368e+22
-3.70912e+23
-1.22651e+25
-6.4916e+24
-1.04602e+24
5.54171e+23
-5.04102e+24
-1.7279e+25
-2.86659e+25
-1.40317e+25
-3.41754e+24
-1.29923e+24
-4.99117e+23
-2.32469e+23
-1.48297e+23
-1.0772e+23
-3.01639e+23
-4.59804e+26
-1.44424e+26
-6.78173e+25
-4.29239e+25
-2.81696e+25
-3.2215e+25
-3.75064e+25
-1.36003e+25
-4.9559e+24
-2.13741e+24
-9.08478e+23
-4.15869e+23
-2.22841e+23
-1.23603e+23
-2.57617e+23
-2.56397e+27
-7.70285e+26
-5.59574e+26
-3.60432e+26
-2.41645e+26
-1.56313e+26
-8.52861e+25
-4.07597e+25
-1.51607e+25
-5.44978e+24
-2.03018e+24
-8.23868e+23
-3.73533e+23
-1.75101e+23
-2.13086e+23
1.22813e+29
2.26465e+28
4.88224e+27
1.17051e+27
1.75449e+26
-9.00484e+25
-1.14364e+26
-6.33852e+25
-2.75127e+25
-1.04526e+25
-3.92606e+24
-1.55763e+24
-6.69846e+23
-3.12475e+23
-4.45276e+23
-1.08944e+30
-6.07922e+28
2.92175e+28
1.45782e+28
5.83858e+27
1.63552e+27
1.80256e+26
-2.81608e+25
-2.39262e+25
-9.74016e+24
-3.0685e+24
-6.5171e+23
4.01149e+22
1.07123e+23
8.73951e+22
-7.14356e+29
-9.95083e+29
-2.2265e+29
-2.33142e+28
4.8282e+27
2.53226e+27
3.767e+26
-2.41908e+24
-1.76201e+25
-1.03618e+25
-5.87041e+24
-3.41082e+24
-1.80796e+24
-7.39927e+23
1.14032e+22
1.10895e+32
2.97966e+30
-1.21766e+30
-6.14883e+28
-9.39675e+27
5.09019e+26
3.50803e+26
7.59169e+24
-1.53397e+25
6.46344e+24
1.28953e+25
1.20648e+25
8.02071e+24
3.90417e+24
1.8805e+24
5.04179e+32
1.18632e+32
2.94722e+30
-1.31581e+30
2.03295e+29
-2.80751e+27
4.52535e+27
5.56282e+27
4.90651e+27
4.11488e+27
3.26414e+27
2.36093e+27
1.47041e+27
7.27729e+26
2.73993e+26
-1.35068e+34
5.62829e+32
1.12978e+32
-3.02802e+30
-8.95361e+29
2.74518e+29
5.19651e+28
4.59417e+28
3.55061e+28
2.5545e+28
1.78454e+28
1.20671e+28
7.57354e+27
4.16666e+27
1.5749e+27
9.5294e+34
-1.221e+34
5.68242e+32
1.02565e+32
-2.64689e+30
-8.15717e+29
2.12933e+29
-4.10376e+28
-6.17433e+28
-7.00942e+28
-6.68882e+28
-5.3132e+28
-3.3337e+28
-1.45798e+28
-4.62636e+27
-9.60488e+34
8.21507e+34
-1.12519e+34
5.56419e+32
9.80356e+31
-3.746e+30
-1.43811e+30
-5.79209e+28
-2.36166e+28
1.3474e+29
2.00181e+29
1.85791e+29
1.25089e+29
5.81532e+28
2.11531e+28
-4.25444e+36
-4.74566e+34
7.30426e+34
-1.0635e+34
5.53407e+32
1.02364e+32
1.29789e+30
2.24051e+30
2.30628e+30
1.23585e+30
6.37629e+29
3.12734e+29
1.56473e+29
9.8517e+28
4.53428e+28
-2.17962e+37
-3.96834e+36
-1.92226e+34
6.72992e+34
-1.02976e+34
3.81693e+32
-6.85937e+31
-1.72848e+32
-1.67414e+32
-1.5281e+32
-1.31999e+32
-1.05943e+32
-7.61611e+31
-4.71917e+31
-2.318e+31
1.74061e+39
-5.79826e+37
-1.10428e+37
-1.55201e+35
1.99049e+35
-3.75829e+34
-4.51023e+33
-4.29807e+33
-3.56905e+33
-2.63237e+33
-1.83406e+33
-1.28118e+33
-8.78651e+32
-5.99387e+32
-4.56656e+32
-1.51279e+40
1.62759e+39
-5.11184e+37
-1.08791e+37
-2.93171e+35
1.9734e+35
-4.39364e+34
-8.06072e+33
-5.80069e+33
-4.55868e+33
-3.14233e+33
-1.92537e+33
-1.18505e+33
-8.50979e+32
-5.30666e+32
3.0312e+40
-1.31463e+40
1.52253e+39
-4.84735e+37
-1.15722e+37
-3.85889e+35
2.39711e+35
-2.35673e+33
2.04767e+34
1.5655e+34
1.03632e+34
6.07647e+33
2.96748e+33
1.19069e+33
6.12824e+32
5.68949e+41
2.05899e+40
-1.19799e+40
1.38337e+39
2.78e+37
-1.60221e+37
-7.76652e+35
9.59792e+35
4.61119e+35
2.57525e+35
1.55688e+35
8.28452e+34
3.81354e+34
1.43883e+34
6.67609e+33
2.86604e+42
5.49674e+41
1.52495e+40
-1.07122e+40
1.28429e+39
-3.2502e+37
-4.48897e+36
1.23022e+36
8.65957e+35
4.38002e+35
2.85135e+35
1.854e+35
1.12829e+35
5.74957e+34
2.9381e+34
5.89273e+41
1.67339e+40
-1.18431e+40
1.56231e+39
-2.20277e+37
-2.16077e+36
3.30262e+36
2.09712e+36
9.84292e+35
5.34212e+35
2.92242e+35
1.89081e+35
1.44906e+35
9.61865e+34
5.71415e+34
3.2049e+40
-1.48983e+40
1.36243e+39
7.14504e+37
1.3188e+37
7.63603e+36
4.3278e+36
2.3377e+36
1.28824e+36
6.99499e+35
3.60856e+35
2.07011e+35
1.51275e+35
1.05068e+35
6.36364e+34
-1.09624e+40
-2.91374e+38
1.03341e+38
4.92241e+37
2.16626e+37
1.01792e+37
5.01123e+36
2.59044e+36
1.38855e+36
7.54323e+35
4.1565e+35
2.61024e+35
1.42988e+35
7.0306e+34
2.85612e+34
7.44837e+38
1.38451e+38
3.90813e+37
1.44567e+37
5.91605e+36
2.65475e+36
1.26989e+36
6.3152e+35
3.14459e+35
1.65043e+35
9.71463e+34
8.47372e+34
-2.96686e+34
-1.59798e+34
-6.45691e+33
-6.90673e+36
-2.18446e+36
-1.82392e+36
-1.11584e+36
-7.10081e+35
-4.82744e+35
-3.41332e+35
-2.55701e+35
-2.68164e+35
-4.33203e+35
-6.57719e+34
2.80268e+34
3.59596e+33
5.05569e+32
2.88174e+32
-1.6051e+36
-4.83697e+35
-2.96898e+35
-2.10268e+35
-1.45063e+35
-1.01068e+35
-7.47404e+34
-5.77248e+34
-1.01467e+35
-3.44646e+35
-2.86737e+35
-1.157e+35
-1.8718e+34
-7.94115e+33
-3.7069e+33
-2.10701e+35
-8.9493e+34
-2.45299e+34
-2.89958e+33
5.01265e+33
6.33041e+33
-3.8939e+33
-1.29429e+34
-1.191e+34
-1.75084e+35
-2.47292e+35
-1.69687e+35
-1.01287e+35
-6.0154e+34
-3.49205e+34
5.70555e+34
2.20056e+34
9.037e+33
4.68355e+33
2.83159e+33
1.57889e+33
7.74796e+32
1.91171e+32
-3.51095e+32
-2.4844e+33
-2.64215e+34
-3.76345e+34
-3.24941e+34
-2.44332e+34
-1.79128e+34
-5.38128e+33
-2.01098e+33
-1.02088e+33
-6.64816e+32
-4.96314e+32
-3.52015e+32
-1.55369e+32
4.2032e+30
7.81834e+31
3.8558e+32
-6.09931e+32
-1.35578e+33
-1.37415e+33
-1.18869e+33
-1.02167e+33
3.45984e+31
3.65956e+30
1.98685e+31
2.17393e+31
2.18038e+31
1.87154e+31
4.95917e+30
-6.22714e+30
-9.91057e+30
-1.44592e+31
1.39992e+32
1.92458e+32
1.63069e+32
1.29288e+32
1.04865e+32
4.38528e+31
1.5755e+31
8.67118e+30
6.2962e+30
5.11178e+30
3.9603e+30
2.54061e+30
1.06266e+30
-1.51729e+30
-6.57737e+30
-8.80597e+30
-3.78512e+30
-6.44692e+29
3.80216e+29
5.64867e+29
1.97902e+30
9.92009e+29
1.7804e+29
-1.09735e+29
-2.02621e+29
-1.59978e+29
8.19254e+28
3.16059e+29
4.18238e+29
9.80632e+28
-2.17203e+30
-3.07399e+30
-2.75346e+30
-2.21047e+30
-1.6993e+30
-9.65244e+29
-3.84725e+29
-1.57402e+29
-7.93087e+28
-4.58251e+28
-2.51807e+28
-8.96556e+27
1.97548e+28
9.63598e+28
2.58749e+29
4.56087e+29
4.24415e+29
3.27746e+29
2.47752e+29
1.87575e+29
1.10924e+29
4.17892e+28
2.10535e+28
1.36051e+28
9.76117e+27
6.03329e+27
1.62971e+27
-1.8391e+27
-2.12679e+27
7.29303e+27
2.96998e+28
3.65152e+28
3.18594e+28
2.53334e+28
1.9585e+28
-1.47442e+27
-5.19422e+26
-6.17189e+26
-5.51129e+26
-4.49626e+26
-2.35729e+26
6.51818e+25
8.15896e+25
-5.77325e+26
-2.23656e+27
-4.35368e+27
-4.36138e+27
-3.46229e+27
-2.51936e+27
-1.63897e+27
-7.86039e+26
-2.77803e+26
-1.60665e+26
-1.22976e+26
-1.00378e+26
-7.04766e+25
-2.3138e+25
5.06383e+25
1.51707e+26
2.15642e+26
1.87839e+26
1.25076e+26
1.19825e+26
1.89355e+26
3.61522e+26
-5.36865e+25
-2.43565e+25
-3.64242e+24
3.09677e+24
4.44575e+24
1.70469e+24
-4.44775e+24
-8.05075e+24
-7.33873e+23
2.62895e+25
5.97157e+25
7.09592e+25
8.80305e+25
1.46393e+26
2.82984e+26
2.33574e+25
9.1992e+24
3.6877e+24
1.83315e+24
1.04051e+24
5.35246e+23
-3.46275e+21
-1.17291e+24
-3.73125e+24
-7.42247e+24
-9.13576e+24
-2.67675e+24
1.60283e+25
6.57441e+25
1.75677e+26
-2.64006e+24
-1.01461e+24
-5.1335e+23
-3.31027e+23
-2.34988e+23
-1.42378e+23
-3.56802e+22
5.07708e+22
4.2183e+22
-2.19348e+23
-6.64007e+23
-5.27701e+23
3.53692e+24
2.73182e+25
9.4944e+25
4.02204e+22
1.44143e+22
1.56396e+22
1.39533e+22
1.14329e+22
6.57809e+21
2.12582e+20
-1.71503e+20
1.26552e+22
2.78508e+22
4.32057e+22
2.21323e+22
1.51768e+23
1.59468e+24
7.03156e+24
1.71881e+22
6.5035e+21
3.68719e+21
2.71105e+21
2.18167e+21
1.63606e+21
8.93375e+20
1.09258e+20
-3.79664e+21
-3.4064e+22
-7.28015e+22
-1.14504e+23
-1.65404e+23
-1.87083e+23
-2.6983e+22
7.43955e+20
3.87563e+20
5.19747e+19
-6.83983e+19
-9.42384e+19
-4.83409e+19
1.62721e+20
9.52765e+20
-1.18485e+21
-3.74287e+22
-8.39436e+22
-1.32694e+23
-1.93084e+23
-2.73039e+23
-3.74232e+23
-3.96918e+20
-1.68878e+20
-7.30677e+19
-3.76673e+19
-2.20134e+19
-6.36658e+18
1.20771e+20
9.28183e+20
-1.46641e+21
-4.46444e+22
-9.81875e+22
-1.55433e+23
-2.26871e+23
-3.19768e+23
-4.37689e+23
4.28717e+19
1.76468e+19
9.59632e+18
6.38253e+18
4.87052e+18
9.97624e+18
1.33888e+20
1.04822e+21
-1.85755e+21
-4.86661e+22
-1.06964e+23
-1.74451e+23
-2.59482e+23
-3.69984e+23
-5.10247e+23
-1.5099e+17
-2.14537e+16
-1.59454e+17
-1.83455e+17
7.68793e+14
6.51838e+18
1.4116e+20
1.21946e+21
-2.14546e+21
-4.40415e+22
-9.90978e+22
-1.67638e+23
-2.56998e+23
-3.7436e+23
-5.25221e+23
-2.95223e+17
-1.23666e+17
-8.03361e+16
-6.90507e+16
7.86509e+16
6.04387e+18
1.46255e+20
1.42823e+21
6.43021e+20
-3.07541e+22
-7.87041e+22
-1.37967e+23
-2.13658e+23
-3.12435e+23
-4.4005e+23
-1.90925e+16
-1.5912e+16
-1.45036e+16
-1.98706e+16
8.58888e+16
5.19884e+18
1.42448e+20
1.67135e+21
1.86728e+21
-1.54932e+22
-4.93681e+22
-9.07803e+22
-1.40959e+23
-2.04043e+23
-2.83847e+23
2.88441e+15
-4.88677e+15
-1.27125e+16
-2.33429e+16
5.50951e+16
4.31687e+18
1.29048e+20
1.90975e+21
2.4967e+21
-3.8209e+21
-1.95849e+22
-4.16748e+22
-6.89371e+22
-1.0175e+23
-1.41657e+23
-5.72535e+15
-9.86205e+15
-1.66516e+16
-2.79945e+16
3.2671e+16
3.70211e+18
1.142e+20
2.33873e+21
3.37619e+21
1.65792e+21
-3.52184e+21
-1.2174e+22
-2.38712e+22
-3.83115e+22
-5.60536e+22
-5.77686e+15
-1.11606e+16
-1.92429e+16
-3.24319e+16
9.65174e+15
3.29471e+18
1.16873e+20
2.22078e+21
3.81807e+21
3.79867e+21
2.62916e+21
2.62012e+20
-3.38092e+21
-8.35101e+21
-1.48311e+22
-6.81972e+15
-1.33047e+16
-2.29781e+16
-3.84227e+16
-1.89358e+16
2.66179e+18
1.22625e+20
1.64177e+21
3.11471e+21
3.75773e+21
3.97663e+21
3.80967e+21
3.25903e+21
2.28611e+21
7.69328e+20
-7.95211e+15
-1.56451e+16
-2.7091e+16
-4.47851e+16
-4.50999e+16
1.72176e+18
1.3629e+20
1.06807e+21
1.87259e+21
2.44119e+21
2.8863e+21
3.23205e+21
3.50314e+21
3.69386e+21
3.7518e+21
-9.10751e+15
-1.80505e+16
-3.13109e+16
-5.10561e+16
-6.19849e+16
8.04981e+17
9.71257e+19
5.10378e+20
8.45648e+20
1.12942e+21
1.3857e+21
1.63724e+21
1.89804e+21
2.16402e+21
2.41892e+21
-1.04026e+16
-2.07597e+16
-3.60662e+16
-5.79347e+16
-7.14726e+16
3.3121e+17
2.65582e+19
1.70987e+20
2.85948e+20
3.82914e+20
4.74435e+20
5.71742e+20
6.81574e+20
8.02271e+20
9.29304e+20
-1.18491e+16
-2.38555e+16
-4.16783e+16
-6.6319e+16
-7.73913e+16
2.25711e+17
1.03915e+19
3.89556e+19
6.57425e+19
8.89032e+19
1.10941e+20
1.35783e+20
1.64323e+20
1.95976e+20
2.3018e+20
-1.33693e+16
-2.70955e+16
-4.75404e+16
-7.52376e+16
-8.60658e+16
2.4749e+17
2.08347e+18
5.35687e+18
8.55657e+18
1.16362e+19
1.47903e+19
1.83654e+19
2.24613e+19
2.70369e+19
3.20637e+19
-1.47842e+16
-3.07213e+16
-5.56046e+16
-9.12449e+16
-1.31716e+17
-1.49283e+17
-1.14479e+17
-2.92367e+16
6.67326e+16
1.69927e+17
2.89981e+17
4.36316e+17
6.14329e+17
8.27237e+17
1.07989e+18
-1.36189e+16
-2.83571e+16
-5.1328e+16
-8.38182e+16
-1.24991e+17
-1.70801e+17
-2.10423e+17
-2.35933e+17
-2.5537e+17
-2.76523e+17
-3.00285e+17
-3.27224e+17
-3.56772e+17
-3.8744e+17
-4.17925e+17
-9.60383e+15
-1.91468e+16
-3.26655e+16
-4.92942e+16
-6.63646e+16
-8.14289e+16
-9.17465e+16
-9.61735e+16
-9.71184e+16
-9.76131e+16
-9.8678e+16
-1.00326e+17
-1.02415e+17
-1.04766e+17
-1.07312e+17
-4.66642e+15
-8.61372e+15
-1.3425e+16
-1.84951e+16
-2.28266e+16
-2.60859e+16
-2.80629e+16
-2.87618e+16
-2.86157e+16
-2.81476e+16
-2.76093e+16
-2.70249e+16
-2.63591e+16
-2.55987e+16
-2.47669e+16
-1.55388e+15
-2.6217e+15
-3.59797e+15
-4.44306e+15
-5.05505e+15
-5.45403e+15
-5.67063e+15
-5.73586e+15
-5.70209e+15
-5.62615e+15
-5.53433e+15
-5.42452e+15
-5.2888e+15
-5.12407e+15
-4.93435e+15
-2.43733e+14
-4.69143e+14
-6.18172e+14
-7.02253e+14
-7.34935e+14
-7.39579e+14
-7.28244e+14
-7.08714e+14
-6.87899e+14
-6.68955e+14
-6.51272e+14
-6.3322e+14
-6.13641e+14
-5.92087e+14
-5.68632e+14
4.59837e+13
6.74658e+11
-3.34439e+13
-5.16236e+13
-5.92198e+13
-6.07842e+13
-5.89416e+13
-5.55006e+13
-5.18023e+13
-4.83805e+13
-4.51813e+13
-4.21113e+13
-3.91562e+13
-3.6345e+13
-3.36389e+13
4.14574e+13
3.50412e+13
2.487e+13
1.70586e+13
1.14027e+13
7.47196e+12
4.80933e+12
3.02221e+12
1.82844e+12
1.04594e+12
5.48515e+11
2.39929e+11
5.50716e+10
-4.99249e+10
-8.61439e+10
1.15259e+13
1.15025e+13
9.65438e+12
7.85122e+12
6.27724e+12
4.99175e+12
3.96837e+12
3.16118e+12
2.54691e+12
2.08779e+12
1.72991e+12
1.43985e+12
1.20104e+12
1.0033e+12
8.41689e+11
1.55631e+12
1.69619e+12
1.54018e+12
1.34046e+12
1.13699e+12
9.5141e+11
7.90532e+11
6.59286e+11
5.57997e+11
4.78596e+11
4.12405e+11
3.55193e+11
3.05289e+11
2.61785e+11
2.24143e+11
8.60323e+10
1.01189e+11
9.77124e+10
8.97387e+10
7.97404e+10
6.95997e+10
6.01813e+10
5.22507e+10
4.59712e+10
4.07524e+10
3.60883e+10
3.18101e+10
2.78872e+10
2.43246e+10
2.11265e+10
-5.84937e+09
-3.72895e+09
-2.57871e+09
-1.81679e+09
-1.27198e+09
-8.7368e+08
-5.80958e+08
-3.66078e+08
-2.09173e+08
-9.55671e+07
-1.41095e+07
4.32318e+07
8.19713e+07
1.06708e+08
1.19128e+08
-3.23949e+09
-2.11899e+09
-1.35511e+09
-9.40541e+08
-6.92401e+08
-5.30416e+08
-4.19301e+08
-3.4245e+08
-2.87306e+08
-2.44697e+08
-2.09572e+08
-1.79553e+08
-1.53521e+08
-1.30841e+08
-1.11496e+08
-8.29472e+08
-5.83801e+08
-3.63553e+08
-2.33838e+08
-1.55967e+08
-1.07962e+08
-7.75609e+07
-5.79813e+07
-4.48554e+07
-3.54835e+07
-2.84398e+07
-2.29821e+07
-1.8677e+07
-1.52393e+07
-1.25213e+07
-1.16465e+08
-9.12739e+07
-6.19956e+07
-4.23118e+07
-2.93615e+07
-2.09084e+07
-1.53829e+07
-1.17205e+07
-9.14264e+06
-7.21488e+06
-5.72428e+06
-4.55501e+06
-3.6314e+06
-2.89951e+06
-2.323e+06
-9.56483e+06
-7.34794e+06
-5.10216e+06
-3.60564e+06
-2.58469e+06
-1.90185e+06
-1.45244e+06
-1.14649e+06
-920330
-743058
-600888
-485990
-392892
-317543
-256842
-578015
-381799
-215736
-134501
-89616.5
-63560.5
-47923.1
-37734.6
-30317.4
-24541.9
-19929.2
-16207
-13185.6
-10734.6
-8738.1
68440.4
21090.3
7386.66
2950.89
1458.04
860.535
594.184
483.789
443.288
420.425
393.514
359.026
319.725
278.31
241.912
38345.4
20092.2
9652.54
5043.49
2837.03
1701.62
1082.4
724.823
504.887
361.231
263.276
194.64
145.596
109.979
84.5312
5734.92
3637.24
2006.74
1178.84
734.219
484.262
335.191
239.576
174.513
128.43
95.0621
70.6621
52.7136
39.4801
29.7593
284.186
220.208
140.589
92.3061
63.0516
44.9381
33.1571
25.005
19.0257
14.4998
11.0455
8.40407
6.38315
4.8463
3.68538
-9.99861
-5.90247
-2.79952
-1.29203
-0.559123
-0.194732
-0.013776
0.0721592
0.107793
0.116615
0.11151
0.0996904
0.0853675
0.0711216
0.0579631
-2.06765
-1.38116
-0.865689
-0.558391
-0.376679
-0.264955
-0.192954
-0.144016
-0.108715
-0.0822503
-0.0621211
-0.0467851
-0.0351531
-0.0263935
-0.019928
-0.465254
-0.228891
-0.110454
-0.0595004
-0.0353389
-0.022732
-0.0156035
-0.0112409
-0.00833762
-0.0062716
-0.0047432
-0.00359291
-0.00272334
-0.00206691
-0.00158332
-0.0941528
-0.0506263
-0.0246777
-0.0131531
-0.00760717
-0.00470576
-0.00307238
-0.00208776
-0.00145355
-0.0010252
-0.000728451
-0.000520496
-0.000374018
-0.000270583
-0.000198503
-0.0108294
-0.00591201
-0.00301856
-0.00169493
-0.00103476
-0.000673245
-0.000458959
-0.000322777
-0.0002307
-0.000165926
-0.000119583
-8.63179e-05
-6.24867e-05
-4.55032e-05
-3.35368e-05
-0.00100519
-0.000470302
-0.000210777
-0.000111054
-6.5852e-05
-4.23499e-05
-2.88168e-05
-2.0331e-05
-1.46112e-05
-1.05765e-05
-7.67579e-06
-5.58184e-06
-4.0733e-06
-2.9945e-06
-2.22821e-06
-2.22364e-05
-1.81155e-05
-8.28859e-06
-4.66853e-06
-2.82971e-06
-1.78795e-06
-1.16002e-06
-7.62029e-07
-5.013e-07
-3.29317e-07
-2.1666e-07
-1.43314e-07
-9.56353e-08
-6.48592e-08
-4.435e-08
2.44691e-05
9.65454e-06
3.68026e-06
1.54794e-06
7.16144e-07
3.59659e-07
1.95057e-07
1.13661e-07
7.0445e-08
4.57805e-08
3.07965e-08
2.12424e-08
1.49156e-08
1.05943e-08
7.75306e-09
4.61549e-06
2.26955e-06
1.00669e-06
5.02338e-07
2.75377e-07
1.62368e-07
1.01291e-07
6.57726e-08
4.37916e-08
2.96103e-08
2.02437e-08
1.39698e-08
9.72939e-09
6.84798e-09
4.89221e-09
2.749e-07
1.60367e-07
8.11528e-08
4.53793e-08
2.73697e-08
1.74627e-08
1.16167e-08
7.94098e-09
5.50816e-09
3.85147e-09
2.70927e-09
1.91714e-09
1.36639e-09
9.82986e-10
7.14411e-10
-5.01865e-09
-2.4343e-09
-9.14278e-10
-2.78775e-10
-3.36505e-11
5.2598e-11
7.61939e-11
7.5209e-11
6.52646e-11
5.32555e-11
4.20914e-11
3.27545e-11
2.53502e-11
1.96311e-11
1.51126e-11
-1.99206e-09
-1.02577e-09
-5.15632e-10
-2.76272e-10
-1.60029e-10
-9.90328e-11
-6.46097e-11
-4.37274e-11
-3.0232e-11
-2.11624e-11
-1.49475e-11
-1.06375e-11
-7.62428e-12
-5.50287e-12
-4.01076e-12
-4.43596e-10
-1.84177e-10
-7.45853e-11
-3.43128e-11
-1.77478e-11
-1.0127e-11
-6.25235e-12
-4.0866e-12
-2.77065e-12
-1.92245e-12
-1.35507e-12
-9.65936e-13
-6.95039e-13
-5.04543e-13
-3.70944e-13
-6.92085e-11
-3.21808e-11
-1.33433e-11
-6.22133e-12
-3.22019e-12
-1.81965e-12
-1.1004e-12
-6.97997e-13
-4.56904e-13
-3.05734e-13
-2.07849e-13
-1.4291e-13
-9.92426e-14
-6.96423e-14
-4.9529e-14
-6.62605e-12
-2.97099e-12
-1.26566e-12
-6.04252e-13
-3.24949e-13
-1.91509e-13
-1.20372e-13
-7.88777e-14
-5.30305e-14
-3.62907e-14
-2.51642e-14
-1.7614e-14
-1.24281e-14
-8.83865e-15
-6.3344e-15
-9.20389e-13
-2.8535e-13
-8.99272e-14
-3.50461e-14
-1.67629e-14
-9.20066e-15
-5.53514e-15
-3.53029e-15
-2.33389e-15
-1.58132e-15
-1.09128e-15
-7.6299e-16
-5.39004e-16
-3.8454e-16
-2.76552e-16
-7.02833e-14
-2.44442e-14
-7.04773e-15
-3.01241e-15
-1.54405e-15
-8.59434e-16
-5.02163e-16
-3.01829e-16
-1.84751e-16
-1.14916e-16
-7.25169e-17
-4.62662e-17
-2.9798e-17
-1.94154e-17
-1.2648e-17
2.00067e-14
5.8543e-15
1.75389e-15