/*--------------------------------*- C++ -*----------------------------------*\
  =========                 |
  \\      /  F ield         | OpenFOAM: The Open Source CFD Toolbox
   \\    /   O peration     | Website:  https://openfoam.org
    \\  /    A nd           | Version:  8
     \\/     M anipulation  |
\*---------------------------------------------------------------------------*/
FoamFile
{
    version     2.0;
    format      ascii;
    class       volScalarField;
    location    "450";
    object      epsilon;
}
// * * * * * * * * * * * * * * * * * * * * * * * * * * * * * * * * * * * * * //

dimensions      [0 2 -3 0 0 0 0];

internalField   nonuniform List<scalar> 
7320
(
11607.3
10157.7
9314.43
8772.22
8390.2
8102.79
7875.93
7690.7
7535.77
7403.76
7289.61
7189.72
7101.46
7022.82
6952.28
6888.61
6830.82
6778.1
6729.82
6685.41
6644.47
6606.66
6571.73
6539.46
6509.68
6482.23
6456.96
6433.72
6412.36
6392.74
6374.72
6358.15
6342.92
6328.9
6316.02
6304.15
6293.21
6283.15
6273.89
6265.36
6257.53
6250.34
6243.77
6237.75
6232.27
6227.3
6222.81
6218.76
6215.15
6211.95
6209.15
6206.72
6204.65
6202.92
6201.54
6200.47
6199.71
6199.25
6199.09
6199.2
6199.59
6200.24
6201.15
6202.31
6203.72
6205.36
6207.23
6209.33
6211.65
6214.18
6216.93
6219.87
6223.02
6226.36
6229.9
6233.62
6237.51
6241.59
6245.83
6250.24
6254.8
6259.52
6264.4
6269.41
6274.55
6279.83
6285.23
6290.75
6296.38
6302.11
6307.95
6313.87
6319.87
6325.94
6332.09
6338.29
6344.54
6350.83
6357.15
6363.49
6369.85
6376.2
6382.55
6388.88
6395.19
6401.45
6407.66
6413.81
6419.89
6425.89
6431.8
6437.61
6443.31
6448.9
6454.36
6459.69
6464.89
6469.94
6474.85
6479.6
6484.08
6488.58
3749.32
3919.37
3598.69
3368.86
3210.19
3093.2
3002.11
2928.42
2867.18
2815.25
2770.5
2731.45
2697.02
2666.4
2638.98
2614.26
2591.85
2571.43
2552.77
2535.63
2519.88
2505.38
2492.02
2479.73
2468.42
2458.02
2448.48
2439.73
2431.7
2424.33
2417.56
2411.36
2405.65
2400.41
2395.59
2391.16
2387.09
2383.34
2379.9
2376.74
2373.85
2371.2
2368.79
2366.59
2364.59
2362.79
2361.18
2359.74
2358.46
2357.34
2356.38
2355.56
2354.87
2354.33
2353.91
2353.61
2353.44
2353.38
2353.43
2353.59
2353.85
2354.21
2354.68
2355.24
2355.89
2356.63
2357.46
2358.38
2359.38
2360.46
2361.62
2362.86
2364.17
2365.56
2367.01
2368.54
2370.13
2371.79
2373.51
2375.28
2377.12
2379.01
2380.96
2382.96
2385
2387.09
2389.23
2391.4
2393.62
2395.86
2398.15
2400.45
2402.79
2405.15
2407.53
2409.93
2412.34
2414.76
2417.18
2419.61
2422.04
2424.46
2426.88
2429.28
2431.67
2434.04
2436.38
2438.7
2440.99
2443.24
2445.46
2447.64
2449.77
2451.86
2453.89
2455.88
2457.82
2459.7
2461.52
2463.28
2464.95
2466.61
1528.99
1989.05
1884.98
1770.23
1685.89
1623.05
1574.14
1534.67
1501.95
1474.25
1450.43
1429.67
1411.39
1395.15
1380.62
1367.53
1355.68
1344.89
1335.04
1326.01
1317.73
1310.12
1303.12
1296.68
1290.77
1285.34
1280.35
1275.77
1271.56
1267.7
1264.15
1260.89
1257.89
1255.12
1252.58
1250.25
1248.1
1246.12
1244.3
1242.63
1241.11
1239.71
1238.44
1237.28
1236.23
1235.29
1234.44
1233.68
1233.02
1232.43
1231.93
1231.5
1231.15
1230.87
1230.65
1230.5
1230.42
1230.39
1230.42
1230.51
1230.65
1230.84
1231.09
1231.38
1231.73
1232.12
1232.55
1233.03
1233.55
1234.11
1234.71
1235.35
1236.03
1236.75
1237.5
1238.29
1239.11
1239.96
1240.84
1241.76
1242.7
1243.67
1244.67
1245.69
1246.73
1247.8
1248.89
1249.99
1251.12
1252.26
1253.42
1254.6
1255.78
1256.98
1258.19
1259.4
1260.62
1261.85
1263.07
1264.3
1265.53
1266.76
1267.98
1269.2
1270.41
1271.61
1272.8
1273.98
1275.14
1276.29
1277.41
1278.52
1279.61
1280.68
1281.72
1282.74
1283.73
1284.7
1285.63
1286.54
1287.41
1288.26
720.941
1168.15
1165.72
1105.65
1054.38
1014.75
983.61
958.429
937.556
919.91
904.75
891.557
879.952
869.653
860.446
852.161
844.666
837.855
831.642
825.959
820.749
815.967
811.574
807.535
803.821
800.406
797.264
794.371
791.708
789.256
786.996
784.912
782.991
781.22
779.587
778.082
776.695
775.418
774.243
773.164
772.175
771.27
770.443
769.691
769.008
768.392
767.838
767.343
766.905
766.52
766.186
765.901
765.661
765.466
765.314
765.202
765.129
765.094
765.094
765.129
765.197
765.298
765.43
765.593
765.784
766.004
766.251
766.525
766.824
767.148
767.496
767.867
768.261
768.677
769.113
769.571
770.047
770.544
771.058
771.589
772.138
772.703
773.283
773.878
774.487
775.109
775.744
776.39
777.047
777.715
778.391
779.076
779.768
780.468
781.173
781.884
782.599
783.317
784.038
784.76
785.484
786.207
786.929
787.649
788.366
789.079
789.787
790.489
791.185
791.872
792.551
793.22
793.878
794.526
795.16
795.782
796.39
796.983
797.561
798.124
798.661
799.19
358.82
725.629
779.829
754.392
722.982
696.536
675.147
657.663
643.109
630.785
620.194
610.98
602.878
595.693
589.274
583.502
578.286
573.55
569.234
565.289
561.674
558.354
555.301
552.49
549.899
547.508
545.3
543.26
541.375
539.63
538.017
536.524
535.143
533.865
532.683
531.59
530.581
529.649
528.79
527.999
527.272
526.604
525.993
525.434
524.925
524.463
524.046
523.67
523.335
523.037
522.774
522.545
522.349
522.183
522.046
521.938
521.856
521.8
521.767
521.759
521.773
521.809
521.866
521.943
522.039
522.154
522.287
522.437
522.604
522.788
522.987
523.201
523.43
523.673
523.929
524.199
524.482
524.777
525.084
525.402
525.731
526.071
526.421
526.78
527.149
527.527
527.913
528.307
528.708
529.116
529.531
529.952
530.379
530.811
531.248
531.689
532.134
532.583
533.034
533.489
533.945
534.403
534.862
535.322
535.781
536.241
536.699
537.155
537.609
538.06
538.508
538.951
539.389
539.822
540.248
540.668
541.08
541.484
541.88
542.267
542.639
543.003
180.95
454.606
539.365
539.227
522.289
504.944
489.985
477.422
466.829
457.801
450.015
443.229
437.258
431.96
427.227
422.973
419.129
415.641
412.462
409.555
406.888
404.434
402.171
400.078
398.141
396.344
394.677
393.129
391.69
390.354
389.111
387.957
386.885
385.889
384.964
384.107
383.312
382.575
381.894
381.263
380.682
380.145
379.651
379.197
378.781
378.401
378.054
377.739
377.453
377.196
376.965
376.759
376.577
376.418
376.28
376.163
376.064
375.985
375.922
375.877
375.848
375.835
375.836
375.851
375.88
375.922
375.976
376.043
376.122
376.211
376.311
376.422
376.543
376.674
376.814
376.963
377.121
377.288
377.462
377.645
377.836
378.034
378.239
378.452
378.671
378.896
379.128
379.366
379.61
379.86
380.115
380.375
380.64
380.91
381.184
381.463
381.746
382.033
382.324
382.618
382.916
383.217
383.52
383.827
384.135
384.445
384.756
385.069
385.382
385.695
386.008
386.319
386.63
386.938
387.244
387.547
387.846
388.14
388.431
388.716
388.993
389.263
91.0616
278.177
374.321
393.387
388.302
378.207
368.135
359.167
351.387
344.653
338.793
333.658
329.123
325.092
321.485
318.241
315.308
312.645
310.215
307.989
305.94
304.047
302.292
300.661
299.14
297.722
296.398
295.161
294.006
292.928
291.921
290.982
290.105
289.288
288.527
287.818
287.157
286.543
285.972
285.442
284.949
284.493
284.07
283.679
283.317
282.983
282.676
282.393
282.134
281.897
281.68
281.483
281.304
281.142
280.996
280.866
280.751
280.649
280.561
280.485
280.422
280.37
280.328
280.297
280.277
280.265
280.263
280.269
280.285
280.308
280.338
280.377
280.423
280.476
280.535
280.602
280.675
280.754
280.839
280.931
281.028
281.132
281.24
281.355
281.475
281.6
281.73
281.866
282.007
282.153
282.303
282.459
282.619
282.784
282.954
283.129
283.308
283.491
283.68
283.873
284.069
284.27
284.476
284.685
284.897
285.113
285.332
285.554
285.779
286.005
286.233
286.462
286.692
286.922
287.152
287.381
287.609
287.835
288.059
288.28
288.496
288.707
46.0967
162.189
254.261
286.985
292.083
288.344
282.427
276.399
270.841
265.871
261.463
257.553
254.073
250.962
248.169
245.649
243.367
241.29
239.39
237.642
236.027
234.524
233.121
231.807
230.573
229.414
228.324
227.301
226.341
225.44
224.596
223.805
223.064
222.371
221.723
221.116
220.549
220.019
219.524
219.062
218.63
218.227
217.851
217.501
217.175
216.871
216.588
216.325
216.081
215.854
215.644
215.449
215.268
215.101
214.947
214.804
214.673
214.553
214.444
214.344
214.253
214.172
214.098
214.032
213.974
213.923
213.879
213.842
213.811
213.786
213.767
213.754
213.746
213.744
213.747
213.755
213.769
213.787
213.81
213.839
213.872
213.909
213.952
214
214.052
214.109
214.17
214.237
214.308
214.384
214.465
214.55
214.641
214.736
214.836
214.942
215.052
215.167
215.288
215.413
215.544
215.679
215.819
215.964
216.114
216.267
216.426
216.588
216.754
216.922
217.094
217.269
217.445
217.622
217.802
217.982
218.161
218.341
218.52
218.698
218.873
219.044
24.1389
88.6483
164.986
205.253
218.887
220.977
218.885
215.492
211.862
208.378
205.161
202.236
199.591
197.199
195.035
193.071
191.284
189.65
188.148
186.759
185.464
184.251
183.108
182.027
181.004
180.034
179.117
178.251
177.435
176.666
175.942
175.262
174.623
174.024
173.46
172.931
172.435
171.968
171.53
171.119
170.733
170.37
170.029
169.709
169.408
169.126
168.861
168.612
168.377
168.157
167.951
167.756
167.574
167.401
167.24
167.087
166.944
166.81
166.684
166.566
166.455
166.35
166.253
166.161
166.076
165.996
165.922
165.853
165.788
165.729
165.674
165.624
165.579
165.537
165.5
165.468
165.439
165.415
165.395
165.379
165.368
165.361
165.358
165.359
165.365
165.375
165.39
165.409
165.433
165.461
165.495
165.533
165.576
165.625
165.678
165.737
165.801
165.87
165.945
166.025
166.111
166.202
166.298
166.4
166.506
166.618
166.735
166.856
166.981
167.111
167.244
167.38
167.519
167.66
167.803
167.948
168.094
168.241
168.387
168.534
168.68
168.822
13.5084
45.5622
99.814
140.768
160.687
168.047
169.612
168.74
166.918
164.79
162.633
160.564
158.63
156.841
155.196
153.686
152.298
151.019
149.834
148.728
147.688
146.702
145.763
144.865
144.006
143.186
142.405
141.663
140.96
140.295
139.668
139.078
138.521
137.997
137.503
137.038
136.599
136.185
135.794
135.424
135.076
134.746
134.434
134.139
133.86
133.595
133.345
133.107
132.882
132.668
132.465
132.272
132.088
131.913
131.747
131.588
131.436
131.292
131.154
131.023
130.897
130.777
130.663
130.553
130.448
130.348
130.252
130.161
130.073
129.99
129.91
129.834
129.762
129.694
129.629
129.569
129.511
129.458
129.408
129.362
129.32
129.282
129.248
129.219
129.193
129.171
129.154
129.142
129.134
129.13
129.132
129.139
129.15
129.167
129.189
129.216
129.248
129.287
129.33
129.38
129.435
129.496
129.562
129.634
129.71
129.793
129.88
129.972
130.069
130.17
130.275
130.383
130.495
130.61
130.727
130.846
130.966
131.088
131.211
131.333
131.456
131.577
8.23297
22.8776
55.2867
90.2281
113.179
124.85
129.856
131.463
131.426
130.618
129.473
128.204
126.92
125.672
124.485
123.369
122.325
121.348
120.43
119.562
118.734
117.939
117.17
116.425
115.705
115.01
114.343
113.705
113.099
112.523
111.978
111.463
110.977
110.519
110.085
109.675
109.286
108.918
108.569
108.238
107.923
107.623
107.337
107.066
106.807
106.559
106.323
106.097
105.882
105.675
105.477
105.287
105.105
104.93
104.761
104.599
104.443
104.293
104.148
104.009
103.874
103.744
103.618
103.497
103.379
103.265
103.155
103.049
102.946
102.847
102.751
102.658
102.568
102.482
102.399
102.32
102.244
102.171
102.102
102.036
101.974
101.916
101.861
101.811
101.765
101.722
101.685
101.651
101.622
101.598
101.578
101.564
101.554
101.55
101.551
101.557
101.568
101.585
101.608
101.636
101.67
101.71
101.755
101.805
101.861
101.922
101.989
102.06
102.136
102.215
102.299
102.387
102.478
102.572
102.669
102.768
102.869
102.971
103.075
103.179
103.283
103.386
5.47937
11.9932
28.2309
52.6649
74.4951
88.7636
96.7043
100.69
102.44
102.969
102.841
102.366
101.715
100.984
100.229
99.4788
98.7488
98.0449
97.3669
96.711
96.0721
95.4456
94.8287
94.2212
93.6246
93.0421
92.477
91.9329
91.412
90.9159
90.4449
89.9988
89.5765
89.1767
88.7979
88.4386
88.0971
87.7721
87.4622
87.1664
86.8835
86.6128
86.3534
86.1047
85.8659
85.6364
85.4156
85.2032
84.9986
84.8012
84.6108
84.4269
84.249
84.0768
83.9099
83.7482
83.5914
83.4394
83.2919
83.1488
83.0097
82.8744
82.7428
82.6147
82.4901
82.3687
82.2505
82.1355
82.0235
81.9145
81.8085
81.7055
81.6054
81.5083
81.4143
81.3235
81.2358
81.1512
81.07
80.9921
80.9178
80.847
80.78
80.7168
80.6576
80.6024
80.5514
80.5047
80.4625
80.4247
80.3918
80.3637
80.3406
80.3223
80.3093
80.3015
80.2989
80.3017
80.3101
80.3239
80.3431
80.3676
80.3976
80.4329
80.4734
80.5188
80.5693
80.6246
80.6842
80.748
80.8158
80.8873
80.962
81.0398
81.1203
81.2032
81.2879
81.3743
81.4619
81.5504
81.6399
81.7284
3.95841
6.92866
14.0447
27.7128
44.4802
58.7409
68.5351
74.5552
78.0227
79.9013
80.819
81.1606
81.1582
80.9519
80.6275
80.2371
79.8124
79.3708
78.921
78.4658
78.0051
77.538
77.0646
76.5866
76.1073
75.6313
75.1632
74.7077
74.2681
73.8468
73.4451
73.0633
72.7009
72.3569
72.03
71.719
71.4223
71.1387
70.8671
70.6065
70.3558
70.1144
69.8816
69.657
69.4398
69.2297
69.0262
68.829
68.6378
68.4522
68.2719
68.0967
67.9262
67.7602
67.5983
67.4406
67.2868
67.1367
66.9905
66.8477
66.7084
66.5722
66.4392
66.3092
66.182
66.0577
65.9362
65.8175
65.7015
65.5881
65.4775
65.3695
65.2643
65.1618
65.0622
64.9655
64.8718
64.7811
64.6935
64.6092
64.5281
64.4505
64.3765
64.3063
64.2398
64.1773
64.1187
64.0644
64.0143
63.9687
63.9276
63.8912
63.8595
63.8326
63.8106
63.7937
63.7818
63.7749
63.7733
63.777
63.7857
63.7996
63.8185
63.8425
63.8713
63.9049
63.9432
63.986
64.0329
64.0839
64.1386
64.1968
64.2582
64.3225
64.3895
64.4588
64.53
64.6029
64.6771
64.7524
64.8286
64.9047
3.07723
4.48267
7.42969
13.6627
23.6765
35.0257
44.8493
52.0826
56.9686
60.1186
62.0855
63.2713
63.9466
64.2887
64.413
64.3948
64.2825
64.107
63.8868
63.6322
63.349
63.0405
62.7098
62.3608
61.9986
61.6287
61.2571
60.8894
60.5301
60.1824
59.8485
59.5293
59.2251
58.9352
58.6589
58.395
58.1424
57.8998
57.6664
57.4411
57.2233
57.0121
56.8072
56.6081
56.4143
56.2256
56.0415
55.862
55.6868
55.5155
55.3482
55.1847
55.0246
54.8679
54.7143
54.5639
54.4165
54.272
54.1305
53.9918
53.8559
53.7227
53.592
53.4639
53.3382
53.215
53.0941
52.9758
52.8598
52.7463
52.6351
52.5264
52.4202
52.3166
52.2156
52.1173
52.0218
51.9291
51.8394
51.7528
51.6693
51.589
51.5122
51.4389
51.3693
51.3033
51.2412
51.1831
51.1291
51.0792
51.0336
50.9925
50.9558
50.9236
50.8961
50.8733
50.8553
50.8419
50.8335
50.8299
50.831
50.8369
50.8476
50.8629
50.8826
50.9068
50.9354
50.9681
51.0046
51.0449
51.0887
51.1358
51.1859
51.2387
51.2941
51.3517
51.4111
51.4722
51.5347
51.5983
51.663
51.728
2.55068
3.21778
4.43832
6.94254
11.6103
18.4647
26.1707
33.1844
38.7613
42.8702
45.7764
47.7856
49.1529
50.0684
50.6673
51.0439
51.263
51.3684
51.3893
51.3446
51.2462
51.1025
50.9199
50.705
50.4642
50.2045
49.9329
49.6559
49.3789
49.1063
48.841
48.585
48.339
48.1033
47.8774
47.6606
47.452
47.2508
47.056
46.8669
46.6829
46.5034
46.3279
46.1561
45.9877
45.8224
45.6602
45.5007
45.344
45.1899
45.0384
44.8893
44.7426
44.5982
44.4561
44.3161
44.1783
44.0426
43.9091
43.7777
43.6485
43.5214
43.3964
43.2735
43.1526
43.0337
42.9169
42.8022
42.6896
42.5792
42.4708
42.3647
42.2609
42.1593
42.0602
41.9635
41.8695
41.778
41.6893
41.6035
41.5206
41.4408
41.3641
41.2907
41.2207
41.1542
41.0913
41.0321
40.9767
40.9252
40.8777
40.8343
40.7951
40.76
40.7292
40.7028
40.6807
40.663
40.6497
40.6408
40.6364
40.6362
40.6404
40.6488
40.6613
40.6778
40.6983
40.7225
40.7503
40.7815
40.8159
40.8534
40.8936
40.9364
40.9815
41.0288
41.0778
41.1285
41.1805
41.2336
41.2878
41.3428
2.23299
2.5213
3.02004
3.97831
5.81132
8.95328
13.4245
18.6065
23.6548
28.0087
31.492
34.162
36.1614
37.64
38.725
39.5161
40.0878
40.4944
40.7746
40.9553
41.0554
41.0882
41.0644
40.9928
40.8819
40.7401
40.5752
40.3948
40.2053
40.0119
39.8185
39.6282
39.4425
39.2624
39.088
38.9193
38.7557
38.5967
38.4417
38.29
38.1411
37.9947
37.8503
37.7077
37.5668
37.4272
37.2891
37.1522
37.0167
36.8823
36.7492
36.6175
36.487
36.3577
36.2298
36.1032
35.9779
35.8539
35.7313
35.6102
35.4906
35.3725
35.256
35.1411
35.0278
34.9161
34.8061
34.6978
34.5913
34.4866
34.3838
34.2829
34.1839
34.087
33.9923
33.8998
33.8096
33.7217
33.6364
33.5537
33.4737
33.3964
33.3221
33.2507
33.1825
33.1174
33.0557
32.9973
32.9424
32.8911
32.8434
32.7994
32.7592
32.7228
32.6903
32.6618
32.6371
32.6165
32.5998
32.587
32.5783
32.5734
32.5724
32.5751
32.5816
32.5917
32.6053
32.6223
32.6425
32.6658
32.692
32.721
32.7524
32.7863
32.8223
32.8602
32.8999
32.9411
32.9836
33.0273
33.072
33.1178
2.04415
2.12289
2.29752
2.64296
3.30166
4.4877
6.42604
9.18519
12.5446
16.0849
19.4153
22.311
24.7069
26.632
28.1534
29.3451
30.2738
30.9944
31.5497
31.9725
32.2869
32.5111
32.6595
32.7438
32.7744
32.761
32.7126
32.6375
32.5431
32.4355
32.3199
32.2
32.0784
31.9571
31.837
31.7185
31.6019
31.4868
31.3731
31.2605
31.1485
31.0369
30.9256
30.8143
30.7028
30.5913
30.4796
30.3677
30.2558
30.1437
30.0317
29.9199
29.8082
29.6968
29.5857
29.4751
29.365
29.2555
29.1465
29.0383
28.9309
28.8244
28.719
28.6145
28.5112
28.4091
28.3083
28.2087
28.1106
28.0139
27.9187
27.8251
27.7331
27.6429
27.5545
27.4681
27.3837
27.3013
27.2212
27.1433
27.0678
26.9948
26.9244
26.8566
26.7916
26.7295
26.6703
26.6141
26.561
26.5111
26.4645
26.4211
26.3812
26.3446
26.3115
26.2819
26.2558
26.2332
26.2141
26.1985
26.1864
26.1778
26.1725
26.1707
26.1721
26.1767
26.1844
26.1951
26.2087
26.225
26.2439
26.2653
26.289
26.3148
26.3426
26.3722
26.4033
26.4359
26.4698
26.5048
26.5409
26.5781
1.93662
1.89378
1.90909
1.99887
2.20581
2.60135
3.28857
4.38476
5.96587
7.99816
10.3235
12.7232
15.0053
17.0515
18.8161
20.3007
21.5313
22.5418
23.3664
24.0349
24.5725
24.9995
25.3323
25.5848
25.769
25.8959
25.9752
26.0161
26.0266
26.0139
25.9839
25.9413
25.89
25.8325
25.771
25.7065
25.6399
25.5717
25.5018
25.4305
25.3576
25.2831
25.2069
25.129
25.0494
24.9681
24.8852
24.8007
24.7148
24.6276
24.5392
24.4498
24.3595
24.2685
24.1768
24.0847
23.9923
23.8996
23.8068
23.7139
23.6212
23.5287
23.4365
23.3448
23.2537
23.1633
23.0736
22.9848
22.897
22.8102
22.7245
22.64
22.5568
22.4749
22.3946
22.3158
22.2386
22.1632
22.0897
22.018
21.9484
21.8809
21.8156
21.7527
21.6921
21.634
21.5784
21.5255
21.4752
21.4277
21.3831
21.3413
21.3025
21.2666
21.2337
21.2039
21.1771
21.1534
21.1327
21.1151
21.1005
21.089
21.0803
21.0746
21.0718
21.0717
21.0744
21.0796
21.0874
21.0976
21.1101
21.1248
21.1415
21.1601
21.1805
21.2025
21.226
21.2508
21.2768
21.3038
21.3319
21.3613
1.87971
1.76618
1.6969
1.6702
1.69599
1.79455
1.99808
2.35264
2.91532
3.74023
4.85285
6.22684
7.78267
9.41194
11.0111
12.5047
13.8508
15.0344
16.0581
16.9328
17.6734
18.2949
18.8115
19.2363
19.5811
19.8568
20.0734
20.2402
20.3658
20.4578
20.5226
20.566
20.5926
20.606
20.609
20.6038
20.5919
20.5744
20.552
20.5252
20.4943
20.4596
20.4211
20.3792
20.3339
20.2853
20.2336
20.179
20.1217
20.0618
19.9995
19.9351
19.8686
19.8004
19.7306
19.6594
19.587
19.5135
19.4391
19.364
19.2882
19.2119
19.1352
19.0584
18.9815
18.9048
18.8282
18.752
18.6762
18.601
18.5264
18.4526
18.3797
18.3077
18.2368
18.167
18.0985
18.0313
17.9655
17.9013
17.8387
17.7779
17.7188
17.6616
17.6064
17.5532
17.5022
17.4534
17.4068
17.3626
17.3207
17.2813
17.2444
17.21
17.1781
17.1488
17.1221
17.098
17.0766
17.0577
17.0413
17.0276
17.0163
17.0076
17.0013
16.9974
16.9958
16.9964
16.9992
17.0041
17.011
17.0198
17.0304
17.0426
17.0564
17.0716
17.0882
17.106
17.1248
17.1447
17.1655
17.1876
1.85262
1.70013
1.58443
1.50014
1.44691
1.42874
1.45383
1.53512
1.69135
1.94727
2.33148
2.87027
3.57785
4.44724
5.44747
6.52955
7.63831
8.72417
9.75028
10.6939
11.5443
12.2987
12.9597
13.5327
14.0247
14.4433
14.7965
15.0922
15.3382
15.5416
15.709
15.8463
15.9587
16.0505
16.1251
16.1856
16.2342
16.2726
16.3021
16.324
16.3388
16.3472
16.3497
16.3467
16.3384
16.3253
16.3075
16.2854
16.2592
16.2291
16.1955
16.1585
16.1184
16.0755
16.03
15.9821
15.9321
15.8801
15.8263
15.7711
15.7144
15.6566
15.5976
15.5377
15.4771
15.4159
15.3544
15.2925
15.2306
15.1686
15.1068
15.0452
14.984
14.9233
14.8631
14.8037
14.745
14.6872
14.6305
14.5748
14.5203
14.467
14.4152
14.3647
14.3158
14.2685
14.2229
14.1791
14.137
14.0968
14.0586
14.0223
13.9881
13.9559
13.9258
13.8978
13.872
13.8483
13.8267
13.8073
13.7901
13.7749
13.7619
13.7509
13.742
13.735
13.73
13.7269
13.7256
13.7261
13.7283
13.732
13.7373
13.744
13.752
13.7613
13.7718
13.7833
13.7958
13.8092
13.8235
13.839
1.84139
1.6697
1.52946
1.4157
1.32537
1.25752
1.21298
1.19429
1.2059
1.25453
1.3495
1.50278
1.72824
2.03966
2.44739
2.95464
3.55477
4.23097
4.95882
5.71053
6.45947
7.18345
7.86622
8.49748
9.07192
9.58801
10.0469
10.4515
10.8058
11.1147
11.3829
11.6154
11.8168
11.9913
12.1426
12.2741
12.3884
12.4878
12.5741
12.649
12.7136
12.769
12.8159
12.8551
12.887
12.9122
12.9312
12.9443
12.9519
12.9543
12.9518
12.9449
12.9337
12.9186
12.8998
12.8776
12.8523
12.8241
12.7933
12.7602
12.7248
12.6874
12.6483
12.6076
12.5653
12.5217
12.477
12.4314
12.3851
12.3381
12.2907
12.2429
12.1949
12.1469
12.099
12.0512
12.0037
11.9566
11.91
11.864
11.8187
11.7742
11.7306
11.6879
11.6463
11.6058
11.5666
11.5286
11.492
11.4567
11.4229
11.3907
11.36
11.3309
11.3034
11.2776
11.2534
11.231
11.2102
11.1912
11.1739
11.1583
11.1443
11.132
11.1214
11.1123
11.1049
11.0989
11.0945
11.0915
11.0898
11.0895
11.0904
11.0925
11.0957
11.0999
11.1052
11.1113
11.1183
11.126
11.1346
11.1443
1.83747
1.65774
1.50597
1.37779
1.26982
1.17973
1.10613
1.0485
1.0071
0.982967
0.978022
0.995184
1.03851
1.11328
1.2258
1.38303
1.59159
1.85659
2.18011
2.56017
2.99026
3.45983
3.95556
4.46309
4.96869
5.46059
5.92973
6.36989
6.77751
7.15116
7.49104
7.79845
8.07541
8.32431
8.54769
8.74809
8.9279
9.08931
9.23427
9.36449
9.48144
9.58637
9.68036
9.76432
9.83904
9.9052
9.96339
10.0141
10.0579
10.0952
10.1264
10.1518
10.1719
10.1869
10.1972
10.2031
10.2049
10.2029
10.1973
10.1884
10.1765
10.1618
10.1445
10.1249
10.103
10.0792
10.0535
10.0262
9.99733
9.96719
9.93593
9.90371
9.87068
9.83698
9.80276
9.76814
9.73324
9.6982
9.66312
9.62811
9.59327
9.55871
9.52452
9.4908
9.45763
9.4251
9.39328
9.36224
9.33207
9.30281
9.27453
9.24729
9.22113
9.1961
9.17223
9.14956
9.12812
9.10792
9.08898
9.07132
9.05494
9.03983
9.026
9.01343
9.00211
8.99202
8.98313
8.97542
8.96885
8.96338
8.95897
8.95559
8.95318
8.9517
8.95109
8.9513
8.95228
8.95397
8.95633
8.95932
8.96299
8.96765
1.83635
1.65389
1.49762
1.36332
1.24761
1.14783
1.062
0.988661
0.926848
0.875995
0.835924
0.806833
0.78931
0.784377
0.793532
0.818796
0.862723
0.928346
1.01901
1.13808
1.28852
1.47235
1.69017
1.94072
2.22081
2.52543
2.84821
3.18204
3.51977
3.85484
4.18169
4.49601
4.79482
5.07628
5.33957
5.58458
5.81172
6.02175
6.21557
6.39421
6.55866
6.70992
6.84891
6.97649
7.09344
7.20049
7.29827
7.38737
7.46832
7.54162
7.6077
7.66698
7.71986
7.76671
7.80786
7.84367
7.87444
7.90048
7.92208
7.93953
7.95309
7.96303
7.96958
7.97297
7.97345
7.97121
7.96644
7.95935
7.9501
7.93881
7.92567
7.91086
7.89458
7.87699
7.85823
7.83844
7.81778
7.79638
7.77436
7.75184
7.72894
7.70576
7.68241
7.65898
7.63558
7.6123
7.5892
7.56639
7.54392
7.52187
7.50031
7.4793
7.45888
7.43912
7.42005
7.40171
7.38414
7.36737
7.35141
7.33629
7.32203
7.30863
7.29609
7.28442
7.2736
7.26364
7.25451
7.2462
7.23868
7.23195
7.22596
7.22069
7.2161
7.21217
7.20885
7.20612
7.20393
7.20224
7.20103
7.20027
7.20003
7.2006
1.8361
1.6529
1.49526
1.35888
1.24033
1.13688
1.04634
0.966998
0.8975
0.836801
0.784121
0.738903
0.700795
0.669631
0.645429
0.628395
0.61893
0.617649
0.625394
0.643237
0.672477
0.714598
0.771202
0.843894
0.934128
1.04303
1.17119
1.31852
1.48418
1.66649
1.86308
2.07103
2.28709
2.50788
2.73019
2.95109
3.16809
3.37919
3.58287
3.77809
3.9642
4.14085
4.30792
4.4655
4.61374
4.7529
4.88326
5.00514
5.11887
5.22476
5.32315
5.41436
5.4987
5.5765
5.64806
5.71368
5.77366
5.82827
5.87779
5.92248
5.96261
5.99842
6.03014
6.05802
6.08229
6.10314
6.12081
6.13549
6.14736
6.15662
6.16344
6.16798
6.17035
6.1707
6.16922
6.16608
6.16142
6.15541
6.14816
6.13981
6.13049
6.12031
6.1094
6.09785
6.08577
6.07326
6.0604
6.04729
6.03401
6.02063
6.00723
5.99388
5.98063
5.96754
5.95466
5.94205
5.92974
5.91776
5.90616
5.89495
5.88417
5.87382
5.86392
5.85448
5.84551
5.83701
5.82897
5.82138
5.81424
5.80754
5.80126
5.79538
5.78989
5.78476
5.77998
5.77552
5.77135
5.76747
5.76384
5.76045
5.7574
5.75493
1.83605
1.6527
1.49473
1.35782
1.23848
1.13393
1.04192
0.960651
0.888632
0.82467
0.767793
0.717216
0.672312
0.632588
0.597667
0.567277
0.54124
0.519467
0.501956
0.488793
0.480153
0.476305
0.477615
0.484545
0.497655
0.51759
0.54506
0.580811
0.625583
0.680058
0.744797
0.820182
0.90636
1.0032
1.11028
1.22688
1.35199
1.4844
1.62272
1.76547
1.91114
2.05825
2.20544
2.35146
2.49524
2.63586
2.77259
2.90487
3.03227
3.15451
3.27138
3.38278
3.48869
3.58911
3.68409
3.77372
3.8581
3.93736
4.01163
4.08106
4.14581
4.20604
4.26194
4.31366
4.3614
4.40533
4.44563
4.48248
4.51605
4.54652
4.57404
4.59878
4.62089
4.64052
4.65781
4.67288
4.68583
4.6968
4.70593
4.71338
4.71928
4.72375
4.72691
4.72888
4.72977
4.72967
4.72869
4.72692
4.72445
4.72137
4.71774
4.71366
4.70917
4.70435
4.69925
4.69393
4.68844
4.68283
4.67712
4.67136
4.66558
4.65981
4.65407
4.64837
4.64273
4.63716
4.63167
4.62626
4.62094
4.6157
4.61055
4.60547
4.60045
4.5955
4.5906
4.58574
4.58092
4.57612
4.57134
4.56657
4.56193
4.55762
1.83603
1.65264
1.49462
1.3576
1.23811
1.13332
1.04098
0.959246
0.886595
0.821781
0.76377
0.711705
0.664871
0.622675
0.584622
0.550304
0.519386
0.491594
0.466711
0.44457
0.425048
0.408065
0.393582
0.381597
0.372148
0.365313
0.361209
0.359993
0.361863
0.367059
0.375854
0.388555
0.405494
0.427016
0.453466
0.485174
0.522438
0.565503
0.614543
0.669644
0.730791
0.797855
0.870593
0.948651
1.03157
1.11878
1.20967
1.30355
1.3997
1.49739
1.59591
1.69457
1.79274
1.88982
1.98532
2.07878
2.16983
2.25817
2.34356
2.42583
2.50484
2.58052
2.65283
2.72174
2.78728
2.84947
2.90837
2.96403
3.01654
3.06597
3.11241
3.15594
3.19669
3.23474
3.27019
3.30316
3.33375
3.36208
3.38823
3.4123
3.43437
3.45453
3.47289
3.48957
3.50469
3.51834
3.53062
3.54163
3.55144
3.56015
3.56782
3.57455
3.58038
3.58541
3.58968
3.59325
3.59618
3.59852
3.60031
3.6016
3.60243
3.60282
3.6028
3.60241
3.60167
3.6006
3.59921
3.59751
3.59553
3.59326
3.59072
3.58792
3.58485
3.58152
3.57794
3.57412
3.57004
3.56573
3.56118
3.5564
3.55151
3.54671
1.83602
1.65261
1.49457
1.35754
1.23801
1.13319
1.0408
0.958995
0.886239
0.821274
0.763051
0.710688
0.663449
0.620708
0.581938
0.54669
0.514581
0.485287
0.45853
0.434075
0.411722
0.391301
0.372674
0.355723
0.340355
0.326498
0.314096
0.303114
0.293534
0.285354
0.278587
0.273266
0.269437
0.267165
0.266531
0.267634
0.270587
0.275521
0.282579
0.291917
0.303699
0.318095
0.335275
0.355404
0.378636
0.405108
0.434931
0.468185
0.504914
0.545119
0.588753
0.635721
0.685876
0.739024
0.794924
0.853296
0.91382
0.976155
1.03993
1.10479
1.17033
1.23621
1.30205
1.36753
1.43234
1.4962
1.55886
1.62012
1.67978
1.73771
1.79379
1.84794
1.90009
1.95021
1.99828
2.04429
2.08826
2.13021
2.17017
2.20818
2.24427
2.27851
2.31093
2.34157
2.37047
2.39766
2.42319
2.44714
2.46956
2.49053
2.51011
2.52837
2.54537
2.56115
2.57578
2.58931
2.60179
2.61327
2.62379
2.6334
2.64213
2.65001
2.65709
2.66339
2.66894
2.67376
2.67788
2.68132
2.68411
2.68625
2.68777
2.68869
2.68902
2.68879
2.688
2.68667
2.68483
2.68249
2.67967
2.6764
2.67278
2.66899
1.83602
1.65258
1.49453
1.35749
1.23795
1.13313
1.04073
0.958918
0.886153
0.821175
0.76293
0.710534
0.663244
0.620428
0.581551
0.546153
0.513841
0.484275
0.457165
0.432255
0.409326
0.388187
0.36867
0.350632
0.333945
0.3185
0.304202
0.290968
0.278728
0.267422
0.257
0.247419
0.238648
0.23066
0.223437
0.21697
0.211253
0.20629
0.20209
0.198671
0.196055
0.194274
0.193366
0.193376
0.194357
0.196368
0.199477
0.203756
0.209283
0.216142
0.224419
0.234201
0.245577
0.25863
0.273443
0.290089
0.30863
0.329119
0.35159
0.376063
0.402535
0.430987
0.461373
0.493627
0.52766
0.563363
0.600605
0.639237
0.679095
0.720003
0.761775
0.804218
0.84714
0.890345
0.933646
0.976859
1.01981
1.06235
1.10432
1.14558
1.18603
1.22557
1.2641
1.30155
1.33786
1.37301
1.40696
1.43966
1.4711
1.50126
1.5301
1.55764
1.58389
1.60886
1.63258
1.65507
1.67635
1.69645
1.71537
1.73316
1.74982
1.76538
1.77986
1.79329
1.80568
1.81707
1.82746
1.8369
1.84539
1.85298
1.85967
1.86551
1.87051
1.8747
1.87813
1.8808
1.88276
1.88403
1.88466
1.88466
1.88414
1.88324
1.83601
1.65256
1.4945
1.35744
1.2379
1.13307
1.04068
0.958862
0.886097
0.821119
0.762874
0.710479
0.663188
0.620369
0.581486
0.546077
0.513746
0.484154
0.457003
0.432037
0.409031
0.38779
0.368141
0.349933
0.333033
0.317321
0.302695
0.289061
0.276336
0.264448
0.253333
0.242931
0.233193
0.224072
0.215528
0.207527
0.200037
0.193031
0.186486
0.180383
0.174704
0.169437
0.164571
0.160099
0.156017
0.152322
0.149017
0.146104
0.143591
0.141488
0.139808
0.138566
0.137781
0.137476
0.137676
0.13841
0.139709
0.141608
0.144146
0.147361
0.151295
0.155993
0.161498
0.167856
0.175111
0.183306
0.192483
0.202678
0.213926
0.226254
0.239685
0.254233
0.269906
0.2867
0.304604
0.323596
0.343645
0.364708
0.386733
0.409659
0.433414
0.45792
0.483089
0.50883
0.535044
0.561631
0.588488
0.615511
0.642593
0.66963
0.696544
0.723231
0.749591
0.775532
0.800963
0.825802
0.849981
0.873445
0.896142
0.918033
0.939083
0.959267
0.978565
0.996965
1.01446
1.03105
1.04673
1.06152
1.07542
1.08845
1.10063
1.11198
1.12252
1.13226
1.14125
1.14949
1.15703
1.16387
1.17006
1.17562
1.1806
1.18508
1.83601
1.65254
1.49448
1.35742
1.23787
1.13304
1.04064
0.958826
0.886061
0.821083
0.762838
0.710444
0.663153
0.620336
0.581454
0.546046
0.513716
0.484124
0.456972
0.432004
0.408994
0.387746
0.368086
0.349863
0.332942
0.317203
0.302539
0.288858
0.276074
0.264112
0.252904
0.242391
0.232516
0.223232
0.214493
0.20626
0.198497
0.191171
0.184252
0.177714
0.171533
0.165686
0.160154
0.154919
0.149965
0.145278
0.140846
0.136657
0.132702
0.128972
0.12546
0.12216
0.119068
0.11618
0.113494
0.111009
0.108725
0.106643
0.104766
0.103098
0.101644
0.10041
0.0994028
0.0986328
0.0981101
0.0978463
0.097855
0.0981508
0.0987499
0.0996698
0.10093
0.102549
0.10455
0.106953
0.109783
0.113062
0.116813
0.121061
0.125828
0.131136
0.137006
0.143458
0.150509
0.158173
0.166462
0.175384
0.184943
0.195141
0.205972
0.217427
0.229494
0.242153
0.255382
0.269152
0.283433
0.298193
0.313388
0.32897
0.344889
0.36109
0.37752
0.394123
0.410841
0.427619
0.4444
0.461132
0.477761
0.494238
0.510514
0.526547
0.542293
0.557715
0.57278
0.587456
0.601715
0.615536
0.628896
0.641781
0.654175
0.666071
0.677464
0.688331