/*--------------------------------*- C++ -*----------------------------------*\
  =========                 |
  \\      /  F ield         | OpenFOAM: The Open Source CFD Toolbox
   \\    /   O peration     | Website:  https://openfoam.org
    \\  /    A nd           | Version:  8
     \\/     M anipulation  |
\*---------------------------------------------------------------------------*/
FoamFile
{
    version     2.0;
    format      ascii;
    class       volScalarField;
    location    "450";
    object      k;
}
// * * * * * * * * * * * * * * * * * * * * * * * * * * * * * * * * * * * * * //

dimensions      [0 2 -2 0 0 0 0];

internalField   nonuniform List<scalar> 
7320
(
6.07652
5.55942
5.24732
5.04165
4.8942
4.78178
4.69211
4.61825
4.55601
4.50265
4.45625
4.41545
4.37924
4.34685
4.31769
4.29129
4.26726
4.24528
4.2251
4.2065
4.18931
4.17341
4.15868
4.14504
4.13243
4.12077
4.11003
4.10012
4.09099
4.0826
4.07487
4.06776
4.06121
4.05518
4.04962
4.0445
4.03978
4.03542
4.03141
4.02772
4.02432
4.02119
4.01833
4.01571
4.01332
4.01114
4.00917
4.0074
4.00581
4.00439
4.00315
4.00206
4.00113
4.00035
3.99972
3.99922
3.99885
3.99861
3.9985
3.99851
3.99863
3.99887
3.99921
3.99967
4.00023
4.00089
4.00165
4.0025
4.00345
4.00449
4.00562
4.00684
4.00814
4.00953
4.011
4.01254
4.01416
4.01586
4.01763
4.01947
4.02137
4.02334
4.02538
4.02748
4.02963
4.03184
4.0341
4.03641
4.03877
4.04118
4.04362
4.04611
4.04863
4.05118
4.05376
4.05636
4.05899
4.06163
4.06429
4.06696
4.06963
4.0723
4.07498
4.07765
4.0803
4.08294
4.08556
4.08816
4.09072
4.09326
4.09576
4.09822
4.10063
4.10299
4.10531
4.10757
4.10978
4.11192
4.11401
4.11603
4.11793
4.11985
4.84215
5.67924
5.54001
5.36046
5.21715
5.10399
5.01225
4.93597
4.87129
4.81558
4.76697
4.72412
4.686
4.65186
4.62108
4.59318
4.56776
4.54451
4.52314
4.50344
4.48522
4.46835
4.45271
4.43821
4.42478
4.41234
4.40084
4.39021
4.3804
4.37134
4.36299
4.35528
4.34817
4.3416
4.33555
4.32995
4.32478
4.32001
4.31561
4.31155
4.3078
4.30436
4.30119
4.29829
4.29563
4.2932
4.291
4.289
4.28721
4.2856
4.28418
4.28292
4.28183
4.2809
4.28012
4.27949
4.279
4.27865
4.27843
4.27833
4.27836
4.2785
4.27876
4.27914
4.27962
4.28021
4.28091
4.28171
4.2826
4.28359
4.28468
4.28585
4.28712
4.28847
4.28991
4.29143
4.29303
4.29471
4.29646
4.29829
4.30019
4.30216
4.3042
4.3063
4.30847
4.31069
4.31297
4.31531
4.3177
4.32014
4.32262
4.32514
4.32771
4.33031
4.33295
4.33561
4.33831
4.34102
4.34376
4.34651
4.34927
4.35204
4.35482
4.35759
4.36036
4.36312
4.36586
4.36858
4.37128
4.37396
4.3766
4.3792
4.38177
4.38429
4.38676
4.38918
4.39155
4.39386
4.39611
4.3983
4.40038
4.40243
3.59581
5.0514
5.15997
5.06781
4.96411
4.87324
4.79598
4.72999
4.67307
4.62344
4.57977
4.541
4.50635
4.47518
4.44698
4.42136
4.39796
4.3765
4.35675
4.33848
4.32153
4.30576
4.29105
4.27731
4.26449
4.25254
4.2414
4.23103
4.2214
4.21245
4.20416
4.19647
4.18934
4.18273
4.1766
4.17092
4.16566
4.16077
4.15624
4.15204
4.14815
4.14454
4.14121
4.13812
4.13527
4.13264
4.13023
4.12801
4.12598
4.12413
4.12245
4.12093
4.11956
4.11834
4.11727
4.11633
4.11552
4.11483
4.11427
4.11382
4.11349
4.11327
4.11315
4.11313
4.11322
4.11341
4.11368
4.11406
4.11452
4.11507
4.11571
4.11643
4.11724
4.11812
4.11909
4.12014
4.12126
4.12245
4.12372
4.12507
4.12648
4.12796
4.12951
4.13113
4.13281
4.13455
4.13635
4.13822
4.14014
4.14211
4.14414
4.14622
4.14834
4.15052
4.15273
4.15499
4.15729
4.15963
4.162
4.1644
4.16683
4.16928
4.17175
4.17424
4.17674
4.17925
4.18177
4.18429
4.1868
4.1893
4.1918
4.19427
4.19672
4.19914
4.20154
4.2039
4.20621
4.20849
4.21072
4.2129
4.215
4.21703
2.74725
4.48339
4.83294
4.83938
4.78111
4.71517
4.65355
4.59832
4.54927
4.50567
4.46677
4.43188
4.40046
4.37201
4.34616
4.32256
4.30095
4.28107
4.2627
4.24564
4.22972
4.21479
4.20075
4.18753
4.17508
4.16335
4.15232
4.14198
4.1323
4.12325
4.11481
4.10694
4.09962
4.0928
4.08645
4.08054
4.07503
4.0699
4.06512
4.06066
4.0565
4.05262
4.04901
4.04563
4.04249
4.03956
4.03684
4.0343
4.03195
4.02977
4.02775
4.02587
4.02415
4.02256
4.02111
4.01978
4.01857
4.01748
4.01651
4.01564
4.01487
4.01421
4.01365
4.01318
4.01281
4.01252
4.01233
4.01222
4.01219
4.01225
4.01239
4.01261
4.01291
4.01328
4.01374
4.01427
4.01487
4.01555
4.0163
4.01713
4.01803
4.019
4.02004
4.02115
4.02233
4.02357
4.02489
4.02627
4.02772
4.02923
4.03081
4.03245
4.03415
4.03591
4.03773
4.0396
4.04153
4.04351
4.04555
4.04764
4.04977
4.05194
4.05416
4.05641
4.0587
4.06102
4.06336
4.06573
4.06811
4.0705
4.07291
4.07531
4.07771
4.0801
4.08247
4.08483
4.08716
4.08947
4.09174
4.09397
4.09614
4.09822
2.10346
3.90602
4.48941
4.61127
4.60898
4.57387
4.53133
4.489
4.44924
4.41265
4.37922
4.34874
4.32092
4.29551
4.27223
4.25086
4.23117
4.21298
4.19607
4.18026
4.16538
4.15129
4.1379
4.12514
4.11297
4.10139
4.09039
4.07998
4.07016
4.06093
4.05226
4.04415
4.03656
4.02946
4.02282
4.01661
4.0108
4.00536
4.00027
3.99549
3.99101
3.9868
3.98284
3.97913
3.97563
3.97234
3.96924
3.96633
3.96359
3.961
3.95858
3.95629
3.95414
3.95211
3.95021
3.94843
3.94677
3.9452
3.94375
3.94239
3.94113
3.93997
3.93889
3.93791
3.93701
3.93619
3.93546
3.93481
3.93423
3.93374
3.93332
3.93298
3.93271
3.93253
3.93241
3.93237
3.93241
3.93252
3.93271
3.93298
3.93332
3.93373
3.93422
3.93479
3.93544
3.93616
3.93696
3.93784
3.9388
3.93983
3.94094
3.94213
3.94339
3.94473
3.94614
3.94763
3.9492
3.95083
3.95254
3.95433
3.95617
3.95809
3.96007
3.96211
3.96421
3.96635
3.96856
3.9708
3.97308
3.9754
3.97774
3.98011
3.98249
3.98488
3.98728
3.98967
3.99206
3.99443
3.99677
3.99909
4.00137
4.00354
1.61624
3.30894
4.10161
4.35522
4.42201
4.42574
4.40725
4.38106
4.35281
4.32483
4.29808
4.27292
4.24945
4.22765
4.20743
4.18867
4.17125
4.15501
4.13979
4.12542
4.11173
4.09859
4.08592
4.07366
4.06182
4.0504
4.03944
4.02896
4.01901
4.00958
4.00068
3.99231
3.98444
3.97705
3.97012
3.96361
3.95749
3.95173
3.9463
3.94119
3.93636
3.93179
3.92748
3.92338
3.9195
3.91581
3.91231
3.90898
3.9058
3.90278
3.8999
3.89716
3.89453
3.89202
3.88963
3.88734
3.88516
3.88308
3.88109
3.87919
3.87738
3.87566
3.87402
3.87247
3.87099
3.86959
3.86826
3.86702
3.86585
3.86475
3.86372
3.86277
3.86189
3.86109
3.86036
3.85972
3.85914
3.85865
3.85823
3.8579
3.85764
3.85747
3.85738
3.85738
3.85747
3.85764
3.8579
3.85825
3.8587
3.85923
3.85986
3.86058
3.8614
3.86231
3.86332
3.86442
3.86562
3.86692
3.86831
3.8698
3.87137
3.87304
3.8748
3.87664
3.87856
3.88056
3.88264
3.88478
3.88698
3.88924
3.89155
3.89391
3.89629
3.89871
3.90115
3.9036
3.90606
3.90851
3.91096
3.91339
3.9158
3.91809
1.26812
2.7064
3.65726
4.05358
4.20386
4.25637
4.26839
4.26267
4.24897
4.23181
4.21339
4.19485
4.17675
4.15939
4.14291
4.12735
4.11268
4.09881
4.08563
4.07298
4.06073
4.04875
4.03697
4.02536
4.01396
4.0028
3.99196
3.98149
3.97146
3.9619
3.95283
3.94425
3.93615
3.92852
3.92133
3.91455
3.90815
3.9021
3.89637
3.89094
3.88578
3.88086
3.87618
3.87172
3.86744
3.86335
3.85943
3.85566
3.85205
3.84856
3.84521
3.84197
3.83885
3.83583
3.83291
3.83008
3.82735
3.82471
3.82215
3.81968
3.81729
3.81497
3.81273
3.81056
3.80847
3.80644
3.80449
3.80261
3.8008
3.79906
3.79739
3.79579
3.79427
3.79282
3.79145
3.79016
3.78894
3.78781
3.78676
3.7858
3.78493
3.78414
3.78346
3.78287
3.78237
3.78198
3.78169
3.7815
3.78142
3.78145
3.78159
3.78185
3.78222
3.7827
3.7833
3.78402
3.78486
3.78582
3.7869
3.7881
3.78941
3.79084
3.79239
3.79404
3.79581
3.79767
3.79963
3.80169
3.80383
3.80605
3.80834
3.81069
3.8131
3.81556
3.81805
3.82058
3.82312
3.82568
3.82824
3.83079
3.83334
3.83576
1.04443
2.13048
3.15609
3.69382
3.94125
4.05401
4.10457
4.12488
4.12967
4.12622
4.11833
4.10811
4.09675
4.08494
4.07312
4.06151
4.05023
4.03929
4.02862
4.01811
4.00765
3.99714
3.98652
3.97581
3.96505
3.95434
3.94378
3.93347
3.9235
3.91393
3.9048
3.89613
3.88791
3.88013
3.87277
3.86581
3.8592
3.85293
3.84696
3.84127
3.83582
3.83061
3.8256
3.82079
3.81616
3.81168
3.80736
3.80317
3.79911
3.79517
3.79135
3.78762
3.78399
3.78044
3.77699
3.77362
3.77032
3.7671
3.76396
3.76089
3.75789
3.75496
3.7521
3.7493
3.74656
3.74389
3.74129
3.73876
3.73629
3.73388
3.73155
3.72929
3.7271
3.72498
3.72295
3.72099
3.71912
3.71734
3.71564
3.71404
3.71254
3.71113
3.70983
3.70864
3.70756
3.7066
3.70575
3.70502
3.70442
3.70395
3.7036
3.7034
3.70332
3.70338
3.70359
3.70393
3.70442
3.70505
3.70583
3.70675
3.70781
3.70901
3.71036
3.71184
3.71345
3.71519
3.71705
3.71903
3.72112
3.7233
3.72558
3.72794
3.73038
3.73288
3.73544
3.73804
3.74068
3.74334
3.74602
3.7487
3.75138
3.75393
0.919762
1.62589
2.61278
3.26902
3.62244
3.80741
3.90597
3.95917
3.98747
4.00146
4.00695
4.00726
4.0044
3.99958
3.9936
3.98695
3.9799
3.97261
3.96508
3.95726
3.94908
3.94046
3.93139
3.92191
3.91211
3.90213
3.89211
3.88219
3.8725
3.86312
3.85412
3.84552
3.83734
3.82956
3.82218
3.81516
3.80848
3.8021
3.79599
3.79013
3.7845
3.77906
3.77381
3.76872
3.76378
3.75898
3.7543
3.74974
3.74527
3.74091
3.73664
3.73245
3.72833
3.72428
3.7203
3.71639
3.71254
3.70875
3.70503
3.70137
3.69776
3.69422
3.69073
3.6873
3.68392
3.6806
3.67735
3.67415
3.67102
3.66795
3.66495
3.66202
3.65916
3.65638
3.65367
3.65106
3.64853
3.64609
3.64375
3.64151
3.63938
3.63736
3.63545
3.63367
3.63201
3.63047
3.62908
3.62782
3.6267
3.62573
3.62491
3.62425
3.62374
3.62339
3.62321
3.62319
3.62334
3.62365
3.62414
3.62479
3.62561
3.6266
3.62775
3.62907
3.63053
3.63215
3.63392
3.63583
3.63786
3.64001
3.64228
3.64465
3.64712
3.64966
3.65228
3.65496
3.65768
3.66044
3.66323
3.66603
3.66885
3.67154
0.860369
1.23773
2.06198
2.78202
3.23846
3.50547
3.66219
3.75644
3.81443
3.85056
3.87304
3.88675
3.89466
3.89869
3.90009
3.89966
3.89795
3.89523
3.89166
3.88725
3.88199
3.87585
3.86885
3.86108
3.85267
3.84381
3.83469
3.8255
3.81638
3.80747
3.79885
3.79057
3.78265
3.77509
3.76788
3.76099
3.7544
3.74808
3.74199
3.73611
3.73042
3.72489
3.71951
3.71425
3.70911
3.70407
3.69912
3.69425
3.68946
3.68474
3.68008
3.67548
3.67093
3.66642
3.66196
3.65755
3.65318
3.64886
3.64458
3.64036
3.63618
3.63204
3.62795
3.6239
3.61991
3.61596
3.61207
3.60823
3.60446
3.60074
3.59708
3.5935
3.58999
3.58655
3.5832
3.57993
3.57676
3.57369
3.57072
3.56786
3.56511
3.56248
3.55999
3.55763
3.5554
3.55332
3.55139
3.54962
3.548
3.54655
3.54528
3.54418
3.54325
3.54251
3.54195
3.54158
3.5414
3.54141
3.54162
3.54202
3.54261
3.54339
3.54435
3.5455
3.54683
3.54833
3.55
3.55183
3.55381
3.55593
3.55818
3.56056
3.56304
3.56562
3.56828
3.57103
3.57383
3.57668
3.57956
3.58247
3.58541
3.58822
0.836787
0.98815
1.55966
2.25312
2.7872
3.13869
3.36248
3.50658
3.60153
3.66556
3.70958
3.74029
3.76189
3.77714
3.78788
3.79534
3.80035
3.80342
3.80486
3.80479
3.80328
3.80038
3.79615
3.79072
3.78429
3.77709
3.76936
3.76132
3.75319
3.74512
3.73723
3.72958
3.72221
3.71515
3.70837
3.70186
3.6956
3.68955
3.68369
3.67799
3.67242
3.66697
3.66162
3.65635
3.65115
3.646
3.64091
3.63587
3.63086
3.62588
3.62093
3.61601
3.61111
3.60623
3.60137
3.59653
3.59171
3.58692
3.58215
3.57742
3.57271
3.56803
3.56339
3.55878
3.55421
3.54968
3.5452
3.54076
3.53638
3.53205
3.52778
3.52358
3.51945
3.51539
3.51143
3.50755
3.50377
3.50009
3.49652
3.49307
3.48974
3.48654
3.48349
3.48058
3.47782
3.47521
3.47278
3.47052
3.46843
3.46652
3.46481
3.46329
3.46197
3.46085
3.45994
3.45924
3.45875
3.45847
3.4584
3.45856
3.45892
3.45949
3.46028
3.46127
3.46245
3.46383
3.4654
3.46715
3.46906
3.47113
3.47336
3.47572
3.4782
3.4808
3.48349
3.48628
3.48914
3.49205
3.49502
3.49801
3.50105
3.50396
0.830413
0.857509
1.16926
1.7285
2.28149
2.70333
2.99743
3.199
3.33862
3.43721
3.50826
3.56044
3.59939
3.62888
3.65147
3.66893
3.68246
3.69288
3.70067
3.70615
3.70948
3.71079
3.71022
3.70797
3.70427
3.69942
3.69371
3.68742
3.6808
3.67406
3.66733
3.66072
3.6543
3.64807
3.64206
3.63625
3.63061
3.62512
3.61975
3.61448
3.60928
3.60414
3.59904
3.59396
3.5889
3.58384
3.57878
3.57372
3.56865
3.56357
3.55848
3.55338
3.54826
3.54313
3.53798
3.53282
3.52766
3.5225
3.51734
3.51219
3.50704
3.50191
3.4968
3.4917
3.48663
3.48159
3.47658
3.47161
3.46669
3.46181
3.45699
3.45223
3.44754
3.44293
3.4384
3.43396
3.42962
3.42539
3.42127
3.41728
3.41341
3.40969
3.40611
3.4027
3.39944
3.39636
3.39345
3.39073
3.38821
3.38588
3.38376
3.38185
3.38016
3.37869
3.37744
3.37642
3.37563
3.37507
3.37475
3.37466
3.37481
3.37518
3.37578
3.3766
3.37764
3.37889
3.38034
3.38199
3.38383
3.38583
3.38801
3.39033
3.39279
3.39538
3.39808
3.40088
3.40377
3.40672
3.40973
3.41278
3.41588
3.41887
0.831632
0.801461
0.924682
1.27902
1.76057
2.20995
2.56351
2.82479
3.0153
3.15519
3.2594
3.33833
3.39909
3.44656
3.48417
3.5143
3.53865
3.55838
3.57427
3.58682
3.59637
3.60315
3.6074
3.60938
3.6094
3.60779
3.60492
3.60113
3.5967
3.5919
3.58691
3.58186
3.57685
3.57192
3.56709
3.56236
3.55772
3.55314
3.5486
3.54408
3.53956
3.53502
3.53045
3.52584
3.52117
3.51645
3.51166
3.50681
3.50189
3.49691
3.49188
3.48678
3.48162
3.47641
3.47114
3.46582
3.46046
3.45507
3.44966
3.44422
3.43877
3.4333
3.42783
3.42236
3.4169
3.41145
3.40602
3.40062
3.39525
3.38991
3.38463
3.3794
3.37424
3.36914
3.36413
3.35921
3.35438
3.34967
3.34507
3.3406
3.33626
3.33207
3.32803
3.32416
3.32047
3.31695
3.31362
3.31049
3.30757
3.30485
3.30236
3.3001
3.29806
3.29626
3.29471
3.29339
3.29232
3.2915
3.29092
3.2906
3.29052
3.29069
3.2911
3.29175
3.29263
3.29374
3.29506
3.2966
3.29833
3.30024
3.30234
3.3046
3.30701
3.30955
3.31223
3.31501
3.31788
3.32083
3.32385
3.32692
3.33005
3.33308
0.835915
0.782667
0.803403
0.968303
1.29567
1.69673
2.07275
2.38226
2.62383
2.80954
2.9526
3.06387
3.15148
3.22137
3.27782
3.32394
3.36197
3.39351
3.41969
3.44127
3.45879
3.47264
3.48316
3.49072
3.49569
3.49847
3.49949
3.49913
3.49777
3.4957
3.49317
3.49034
3.48735
3.48428
3.48115
3.478
3.47481
3.47158
3.46829
3.46493
3.46147
3.4579
3.45422
3.4504
3.44646
3.44238
3.43816
3.43381
3.42933
3.42471
3.41998
3.41514
3.41018
3.40511
3.39994
3.39467
3.38932
3.3839
3.37841
3.37286
3.36727
3.36164
3.35598
3.35029
3.34458
3.33887
3.33315
3.32745
3.32176
3.3161
3.31047
3.30489
3.29936
3.29389
3.2885
3.2832
3.27798
3.27288
3.26789
3.26303
3.2583
3.25372
3.2493
3.24504
3.24097
3.23708
3.23339
3.22991
3.22663
3.22358
3.22076
3.21818
3.21584
3.21374
3.2119
3.21031
3.20897
3.2079
3.20709
3.20653
3.20624
3.2062
3.20642
3.20689
3.20759
3.20854
3.20971
3.2111
3.2127
3.2145
3.21649
3.21865
3.22097
3.22343
3.22603
3.22875
3.23157
3.23448
3.23747
3.24051
3.24361
3.24664
0.841165
0.780283
0.755
0.801817
0.962762
1.23783
1.56799
1.88853
2.1664
2.39489
2.57904
2.72693
2.84623
2.94323
3.02285
3.08884
3.144
3.19041
3.22959
3.26262
3.2903
3.3132
3.33184
3.34665
3.35813
3.36673
3.37295
3.37726
3.38006
3.38173
3.38256
3.38279
3.38259
3.38207
3.3813
3.38033
3.37918
3.37784
3.37632
3.3746
3.37267
3.37053
3.36817
3.36558
3.36276
3.35972
3.35645
3.35296
3.34926
3.34536
3.34126
3.33698
3.33251
3.32789
3.3231
3.31816
3.31308
3.30787
3.30255
3.29714
3.29163
3.28605
3.2804
3.27469
3.26893
3.26314
3.25732
3.25149
3.24566
3.23983
3.23401
3.22823
3.22248
3.21678
3.21115
3.20559
3.20012
3.19474
3.18948
3.18433
3.17932
3.17445
3.16974
3.16519
3.16082
3.15665
3.15267
3.14889
3.14534
3.14201
3.13891
3.13606
3.13345
3.1311
3.129
3.12716
3.12559
3.12428
3.12324
3.12247
3.12196
3.12172
3.12174
3.12201
3.12253
3.12329
3.12429
3.12552
3.12696
3.12861
3.13045
3.13247
3.13466
3.137
3.13948
3.14209
3.14481
3.14762
3.15052
3.15348
3.15651
3.15948
0.846372
0.784571
0.740866
0.731421
0.780818
0.913762
1.13036
1.39677
1.6697
1.92048
2.13793
2.32136
2.47448
2.60215
2.70895
2.79881
2.87489
2.93967
2.99505
3.04245
3.08294
3.11734
3.14632
3.17048
3.19038
3.20659
3.21967
3.23014
3.2385
3.24517
3.25054
3.25488
3.25843
3.26135
3.26377
3.26574
3.26734
3.26856
3.26944
3.26998
3.27016
3.27001
3.2695
3.26866
3.26747
3.26594
3.26409
3.26192
3.25944
3.25666
3.25361
3.25028
3.2467
3.24287
3.23882
3.23455
3.23008
3.22541
3.22057
3.21558
3.21045
3.2052
3.19983
3.19436
3.1888
3.18318
3.17749
3.17175
3.16599
3.1602
3.1544
3.1486
3.14282
3.13708
3.13137
3.12573
3.12015
3.11466
3.10926
3.10397
3.0988
3.09377
3.08889
3.08416
3.07961
3.07524
3.07107
3.0671
3.06334
3.05981
3.05651
3.05344
3.05063
3.04806
3.04576
3.04371
3.04193
3.04042
3.03917
3.03819
3.03748
3.03703
3.03685
3.03692
3.03724
3.03781
3.03862
3.03966
3.04091
3.04237
3.04403
3.04587
3.04789
3.05006
3.05238
3.05483
3.05739
3.06005
3.0628
3.06563
3.06852
3.07138
0.851011
0.791143
0.741126
0.708367
0.70346
0.74158
0.83811
0.996909
1.20264
1.42851
1.6506
1.85478
2.03556
2.19262
2.32794
2.44432
2.54453
2.63106
2.70597
2.77092
2.82724
2.87595
2.91792
2.95389
2.98454
3.01052
3.03247
3.05098
3.06662
3.0799
3.09125
3.10105
3.10957
3.11706
3.12369
3.12957
3.1348
3.13943
3.1435
3.14704
3.15005
3.15256
3.15457
3.1561
3.15715
3.15774
3.15787
3.15757
3.15685
3.15572
3.15421
3.15233
3.1501
3.14754
3.14466
3.14149
3.13803
3.13431
3.13035
3.12616
3.12177
3.11718
3.11243
3.10753
3.10249
3.09733
3.09206
3.08671
3.08128
3.0758
3.07027
3.06471
3.05913
3.05356
3.04801
3.04248
3.037
3.03158
3.02624
3.02098
3.01583
3.0108
3.00589
3.00114
2.99654
2.9921
2.98785
2.9838
2.97994
2.9763
2.97288
2.9697
2.96675
2.96404
2.96159
2.95939
2.95745
2.95576
2.95434
2.95319
2.95229
2.95166
2.95128
2.95116
2.95128
2.95165
2.95225
2.95307
2.95412
2.95537
2.95681
2.95844
2.96024
2.9622
2.9643
2.96654
2.96889
2.97135
2.9739
2.97652
2.97922
2.9819
0.854799
0.797919
0.746862
0.705362
0.677885
0.670753
0.69278
0.753705
0.859333
1.0062
1.18133
1.36801
1.55205
1.7246
1.88156
2.0219
2.14627
2.25604
2.35278
2.43797
2.51294
2.57882
2.63659
2.68709
2.73109
2.76934
2.80251
2.8313
2.85632
2.87815
2.89729
2.9142
2.92924
2.94271
2.95485
2.96585
2.97583
2.9849
2.99315
3.00061
3.00733
3.01335
3.01868
3.02335
3.02739
3.03081
3.03362
3.03587
3.03755
3.03871
3.03935
3.03951
3.03921
3.03847
3.03732
3.03577
3.03384
3.03157
3.02896
3.02604
3.02284
3.01937
3.01566
3.01172
3.00759
3.00328
2.9988
2.99418
2.98944
2.98458
2.97964
2.97462
2.96955
2.96444
2.9593
2.95416
2.94904
2.94393
2.93888
2.93388
2.92895
2.92412
2.91939
2.91478
2.91031
2.90598
2.90181
2.89781
2.894
2.89038
2.88697
2.88377
2.88079
2.87803
2.87552
2.87324
2.87121
2.86942
2.86788
2.8666
2.86556
2.86477
2.86422
2.86392
2.86386
2.86403
2.86442
2.86503
2.86585
2.86687
2.86808
2.86947
2.87103
2.87274
2.87459
2.87657
2.87866
2.88086
2.88315
2.88551
2.88795
2.89039
0.857613
0.803838
0.754023
0.710069
0.674015
0.648368
0.636594
0.643481
0.674827
0.735881
0.828727
0.950238
1.09244
1.24519
1.39922
1.54785
1.68716
1.81534
1.93195
2.03727
2.13193
2.21671
2.29241
2.3598
2.41964
2.47267
2.51958
2.56108
2.59783
2.63046
2.65952
2.68554
2.70896
2.73015
2.74941
2.76701
2.78314
2.79796
2.81158
2.82412
2.83563
2.84618
2.85581
2.86457
2.87249
2.87961
2.88596
2.89156
2.89645
2.90065
2.9042
2.90712
2.90945
2.91122
2.91244
2.91315
2.91338
2.91316
2.9125
2.91143
2.90997
2.90816
2.90601
2.90355
2.90082
2.89782
2.89459
2.89115
2.88751
2.8837
2.87974
2.87565
2.87145
2.86715
2.86278
2.85836
2.8539
2.84942
2.84494
2.84048
2.83606
2.83168
2.82738
2.82315
2.81903
2.81502
2.81113
2.80739
2.8038
2.80037
2.79713
2.79406
2.79119
2.78853
2.78607
2.78383
2.78181
2.78001
2.77844
2.7771
2.77599
2.77511
2.77445
2.77402
2.7738
2.77381
2.77402
2.77443
2.77504
2.77583
2.7768
2.77794
2.77923
2.78067
2.78223
2.78392
2.78572
2.78761
2.78959
2.79164
2.79377
2.79591
0.859482
0.808378
0.760626
0.716973
0.678334
0.645749
0.620512
0.604371
0.599723
0.609659
0.637655
0.68674
0.7583
0.851102
0.961192
1.08281
1.20984
1.33696
1.46029
1.57733
1.68672
1.78783
1.88057
1.9651
2.04179
2.11112
2.17364
2.22994
2.28062
2.32628
2.3675
2.4048
2.43868
2.46958
2.49785
2.52382
2.54776
2.56989
2.59037
2.60936
2.62696
2.64329
2.65841
2.67239
2.68529
2.69715
2.70804
2.71797
2.72701
2.73519
2.74253
2.74909
2.7549
2.75998
2.76439
2.76814
2.77128
2.77383
2.77583
2.7773
2.77828
2.77878
2.77884
2.77849
2.77776
2.77666
2.77524
2.77352
2.77152
2.76927
2.76678
2.7641
2.76123
2.75819
2.75502
2.75173
2.74834
2.74487
2.74135
2.73779
2.7342
2.73062
2.72705
2.72352
2.72004
2.71662
2.71329
2.71005
2.70692
2.70392
2.70106
2.69834
2.69577
2.69337
2.69115
2.68911
2.68725
2.68559
2.68411
2.68284
2.68177
2.68089
2.68021
2.67973
2.67944
2.67935
2.67943
2.67969
2.68013
2.68073
2.68148
2.68238
2.68342
2.68459
2.68587
2.68725
2.68873
2.6903
2.69194
2.69364
2.69541
2.6972
0.860565
0.811411
0.765711
0.723439
0.684828
0.650242
0.620147
0.595142
0.57603
0.563905
0.56022
0.566796
0.585678
0.618808
0.667516
0.732003
0.811029
0.902002
1.00143
1.10555
1.21092
1.31474
1.41496
1.51023
1.59976
1.68316
1.76036
1.83147
1.89678
1.95666
2.01152
2.06182
2.108
2.15048
2.18964
2.22584
2.25938
2.29054
2.31953
2.34655
2.37176
2.3953
2.41728
2.4378
2.45694
2.47479
2.49139
2.50681
2.52111
2.53434
2.54654
2.55775
2.56803
2.57742
2.58595
2.59367
2.60062
2.60683
2.61234
2.61719
2.62141
2.62503
2.62808
2.63059
2.6326
2.63413
2.63522
2.63589
2.63618
2.63612
2.63573
2.63504
2.63408
2.63287
2.63143
2.62979
2.62798
2.62601
2.62391
2.6217
2.61939
2.61702
2.6146
2.61215
2.60969
2.60723
2.60479
2.6024
2.60005
2.59778
2.59559
2.59349
2.5915
2.58962
2.58787
2.58625
2.58477
2.58344
2.58226
2.58123
2.58036
2.57965
2.5791
2.57871
2.57847
2.57839
2.57845
2.57866
2.57901
2.57949
2.58009
2.58081
2.58164
2.58258
2.5836
2.5847
2.58588
2.58712
2.58841
2.58975
2.59115
2.59255
0.861099
0.813133
0.76901
0.728261
0.690673
0.656203
0.624916
0.596954
0.572541
0.551996
0.535765
0.524448
0.518836
0.51992
0.528856
0.546866
0.575063
0.614214
0.664514
0.725419
0.795639
0.873273
0.956064
1.0417
1.12804
1.21333
1.2962
1.37571
1.45128
1.52259
1.58955
1.65221
1.71074
1.76535
1.81631
1.86387
1.90832
1.9499
1.98884
2.02536
2.05963
2.09183
2.12209
2.15054
2.17729
2.20242
2.22604
2.24822
2.26901
2.2885
2.30673
2.32377
2.33966
2.35446
2.36821
2.38097
2.39277
2.40367
2.41369
2.42289
2.43131
2.43898
2.44593
2.45221
2.45785
2.46287
2.46732
2.47122
2.4746
2.47751
2.47997
2.48201
2.48367
2.48497
2.48594
2.48661
2.487
2.48714
2.48706
2.48677
2.4863
2.48568
2.48493
2.48406
2.4831
2.48207
2.48098
2.47986
2.47872
2.47758
2.47645
2.47534
2.47428
2.47326
2.47231
2.47143
2.47063
2.46992
2.4693
2.46878
2.46836
2.46805
2.46784
2.46774
2.46775
2.46786
2.46807
2.46839
2.46879
2.46929
2.46987
2.47052
2.47125
2.47203
2.47288
2.47377
2.4747
2.47566
2.47665
2.47765
2.47869
2.47973
0.861318
0.813942
0.770775
0.731184
0.694718
0.661081
0.630095
0.601662
0.575754
0.552397
0.531673
0.513721
0.498751
0.487049
0.479
0.475088
0.475907
0.482134
0.494495
0.513685
0.540278
0.574611
0.61669
0.666132
0.722156
0.783652
0.849286
0.917643
0.987352
1.05719
1.12616
1.19348
1.25861
1.3212
1.38106
1.4381
1.49234
1.54383
1.59266
1.63895
1.68282
1.72439
1.76379
1.80111
1.83648
1.86999
1.90173
1.93179
1.96023
1.98713
2.01256
2.03658
2.05925
2.08062
2.10074
2.11967
2.13746
2.15416
2.16981
2.18446
2.19815
2.21092
2.22282
2.23388
2.24415
2.25366
2.26245
2.27055
2.27799
2.2848
2.29102
2.29669
2.30183
2.30649
2.31069
2.31447
2.31784
2.32085
2.32352
2.32588
2.32794
2.32975
2.33132
2.33267
2.33384
2.33483
2.33567
2.33639
2.33699
2.33751
2.33795
2.33833
2.33866
2.33897
2.33925
2.33953
2.33982
2.34012
2.34043
2.34078
2.34115
2.34156
2.34202
2.34251
2.34305
2.34362
2.34424
2.3449
2.34559
2.34632
2.34707
2.34784
2.34863
2.34944
2.35025
2.35106
2.35186
2.35266
2.35343
2.35419
2.35494
2.35568
0.861389
0.814244
0.77153
0.732597
0.696917
0.664079
0.633769
0.605753
0.579862
0.555979
0.53403
0.513979
0.495828
0.479611
0.4654
0.453309
0.443493
0.436161
0.431572
0.430043
0.431942
0.437676
0.447668
0.462326
0.481998
0.506922
0.537189
0.572703
0.613166
0.658092
0.706832
0.758629
0.812676
0.868169
0.924363
0.980601
1.03634
1.09114
1.14468
1.19674
1.24716
1.29584
1.34274
1.38784
1.43115
1.47269
1.51249
1.55057
1.58699
1.62179
1.65501
1.68671
1.71692
1.7457
1.77309
1.79914
1.82389
1.8474
1.8697
1.89084
1.91085
1.9298
1.9477
1.96461
1.98057
1.99562
2.00978
2.02311
2.03564
2.0474
2.05842
2.06874
2.07839
2.0874
2.0958
2.10363
2.11093
2.11772
2.12403
2.1299
2.13535
2.14041
2.14511
2.14948
2.15353
2.1573
2.1608
2.16406
2.16711
2.16995
2.17261
2.17511
2.17746
2.17968
2.18178
2.18378
2.18569
2.18751
2.18927
2.19096
2.1926
2.19418
2.19573
2.19723
2.19869
2.20011
2.20149
2.20284
2.20415
2.20542
2.20664
2.20782
2.20894
2.21001
2.21103
2.21198
2.21286
2.21368
2.21442
2.21509
2.21571
2.21628
0.861406
0.814329
0.771776
0.733121
0.697834
0.665476
0.635686
0.608168
0.582682
0.559037
0.53708
0.516692
0.497782
0.480288
0.464168
0.449403
0.435996
0.423969
0.413368
0.40426
0.396738
0.390921
0.386955
0.385016
0.385305
0.388045
0.393476
0.401839
0.413362
0.428248
0.446646
0.468641
0.494236
0.523343
0.555781
0.591283
0.629504
0.670045
0.71247
0.756334
0.801196
0.846642
0.892297
0.937831
0.982966
1.02747
1.07116
1.1139
1.15557
1.1961
1.23543
1.27353
1.31037
1.34594
1.38023
1.41326
1.44502
1.47554
1.50483
1.53291
1.5598
1.58555
1.61017
1.63369
1.65615
1.67759
1.69802
1.7175
1.73605
1.7537
1.77048
1.78644
1.80159
1.81597
1.82961
1.84254
1.85478
1.86637
1.87732
1.88769
1.8975
1.90678
1.91556
1.92386
1.93172
1.93915
1.9462
1.95287
1.95919
1.96518
1.97087
1.97626
1.98139
1.98627
1.99092
1.99534
1.99956
2.00358
2.00742
2.01109
2.0146
2.01795
2.02115
2.0242
2.02711
2.02989
2.03253
2.03504
2.03742
2.03966
2.04177
2.04375
2.04559
2.04729
2.04885
2.05027
2.05155
2.05269
2.05368
2.05453
2.05528
2.05592
0.861407
0.814342
0.77183
0.73326
0.698113
0.665954
0.636417
0.609191
0.584014
0.560665
0.538959
0.518737
0.499869
0.482247
0.46578
0.450397
0.43604
0.422666
0.410246
0.398762
0.388207
0.378588
0.369922
0.362238
0.355579
0.349999
0.345567
0.342364
0.340488
0.340048
0.341166
0.343973
0.348606
0.355202
0.363893
0.3748
0.388025
0.403643
0.421696
0.44219
0.465087
0.490307
0.517727
0.547184
0.578481
0.611394
0.645679
0.681081
0.717342
0.75421
0.791446
0.828826
0.866149
0.903235
0.93993
0.976102
1.01164
1.04647
1.0805
1.1137
1.14601
1.1774
1.20787
1.23739
1.26596
1.29358
1.32026
1.34598
1.37078
1.39466
1.41764
1.43973
1.46095
1.48134
1.50089
1.51965
1.53764
1.55487
1.57137
1.58716
1.60227
1.61671
1.63051
1.6437
1.65631
1.66836
1.67988
1.6909
1.70142
1.71148
1.7211
1.73029
1.73908
1.74748
1.75552
1.7632
1.77054
1.77756
1.78427
1.79067
1.79679
1.80262
1.80818
1.81347
1.8185
1.82328
1.8278
1.83208
1.83611
1.8399
1.84344
1.84675
1.84981
1.85264
1.85523
1.85759
1.85971
1.8616
1.86326
1.8647
1.86596
1.86706
0.861405
0.814337
0.771831
0.733277
0.698164
0.666062
0.636607
0.60949
0.584448
0.561253
0.53971
0.519653
0.500935
0.483431
0.467033
0.451647
0.437194
0.423603
0.410816
0.398785
0.387468
0.376832
0.36685
0.357504
0.348782
0.340675
0.333184
0.326314
0.320078
0.314493
0.309584
0.305381
0.301922
0.299253
0.297424
0.296494
0.296529
0.2976
0.299782
0.303156
0.307803
0.313804
0.321239
0.330178
0.340687
0.352818
0.366609
0.382081
0.399234
0.418048
0.438481
0.46047
0.483926
0.508746
0.534805
0.561965
0.590079
0.61899
0.64854
0.67857
0.708926
0.739461
0.770037
0.800528
0.83082
0.860813
0.89042
0.919568
0.948194
0.976249
1.00369
1.03049
1.05663
1.08209
1.10685
1.13092
1.15429
1.17696
1.19894
1.22022
1.24082
1.26075
1.28001
1.2986
1.31655
1.33386
1.35052
1.36657
1.38203
1.3969
1.41122
1.42499
1.43823
1.45096
1.46319
1.47494
1.48622
1.49704
1.50741
1.51735
1.52686
1.53596
1.54465
1.55294
1.56084
1.56835
1.57547
1.58223
1.58861
1.59462
1.60028
1.60557
1.61052
1.61511
1.61937
1.62328
1.62687
1.63013
1.63307
1.6357
1.63807
1.6402
0.861402
0.814329
0.77182
0.733266
0.698157
0.666065
0.636627
0.609537
0.584532
0.561385
0.539902
0.519913
0.50127
0.483846
0.467525
0.45221
0.437813
0.424257
0.411474
0.399403
0.387993
0.377195
0.366971
0.357283
0.348101
0.339398
0.331151
0.323342
0.315955
0.308977
0.302401
0.29622
0.290432
0.285037
0.280038
0.275443
0.27126
0.267503
0.264187
0.261333
0.258962
0.257101
0.255782
0.255037
0.254905
0.255426
0.256645
0.258609
0.261368
0.264971
0.26947
0.274916
0.281356
0.288837
0.2974
0.30708
0.317903
0.329891
0.343051
0.357382
0.372872
0.389494
0.407211
0.425974
0.445723
0.466386
0.487883
0.510127
0.533024
0.556477
0.580385
0.60465
0.629173
0.653857
0.678613
0.703354
0.728001
0.752483
0.776735
0.8007
0.824328
0.847578
0.870413
0.892803
0.914723
0.936161
0.957099
0.97752
0.997415
1.01677
1.03558
1.05383
1.07153
1.08868
1.10529
1.12136
1.1369
1.1519
1.16637
1.18032
1.19376
1.20667
1.21908
1.23098
1.24238
1.25329
1.26371
1.27365
1.28311
1.2921
1.30063
1.30871
1.31634
1.32353
1.33029
1.33664
1.34257
1.3481
1.35324
1.358
1.36242
1.36655
0.8614
0.814321
0.77181
0.733253
0.698143
0.66605
0.636614
0.609527
0.584528
0.561391
0.53992
0.519948
0.501326
0.483926
0.467634
0.45235
0.437986
0.424462
0.411709
0.399665
0.388273
0.377484
0.367253
0.357539
0.348307
0.339524
0.33116
0.32319
0.315589
0.308338
0.301416
0.294808
0.288499
0.282476
0.276729
0.271247
0.266023
0.261051
0.256327
0.251846
0.247608
0.243612
0.239859
0.236352
0.233095
0.230095
0.227358
0.224893
0.222712
0.220828
0.219254
0.218007
0.217107
0.216573
0.216428
0.216697
0.217407
0.218585
0.220261
0.222468
0.225235
0.228597
0.232584
0.237229
0.242563
0.248613
0.255406
0.262966
0.271311
0.280457
0.290412
0.30118
0.31276
0.325143
0.338313
0.352248
0.36692
0.382294
0.398328
0.414975
0.432184
0.449898
0.468059
0.486604
0.50547
0.524593
0.543909
0.563355
0.582868
0.602388
0.62187
0.641255
0.66049
0.679527
0.698318
0.716821
0.735004
0.752839
0.770303
0.787375
0.80404
0.820284
0.836097
0.851473
0.866405
0.880889
0.894925
0.908512
0.921649
0.93434
0.946587
0.958392
0.969759
0.980693
0.991199
1.00128
1.01094
1.0202
1.02904
1.03749
1.04556
1.05326
0.861399
0.814317
0.771804
0.733245
0.698133
0.666039
0.636602
0.609515
0.584516
0.561379
0.53991
0.51994
0.501322
0.483926
0.46764
0.452363
0.438006
0.424492
0.411749
0.399715
0.388335
0.377557
0.367335
0.35763
0.348403
0.339622
0.331255
0.323274
0.315655
0.308374
0.301411
0.294745
0.28836
0.28224
0.27637
0.270736
0.265328
0.260133
0.255141
0.250345
0.245735
0.241304
0.237047
0.232957
0.22903
0.225262
0.22165
0.218191
0.214883
0.211725
0.208717
0.205859
0.203153
0.200601
0.198204
0.195968
0.193896
0.191994
0.190268
0.188725
0.187374
0.186223
0.185285
0.184569
0.184088
0.183857
0.183891
0.184206
0.184819
0.185749
0.187015
0.188638
0.19064
0.193041
0.195865
0.199134
0.202871
0.207096
0.211833
0.2171
0.222918
0.229304
0.236271
0.243834
0.252001
0.26078
0.270173
0.280179
0.290794
0.302009
0.31381
0.326182
0.339101
0.352543
0.36648
0.380883
0.395713
0.410931
0.426491