/*--------------------------------*- C++ -*----------------------------------*\
  =========                 |
  \\      /  F ield         | OpenFOAM: The Open Source CFD Toolbox
   \\    /   O peration     | Website:  https://openfoam.org
    \\  /    A nd           | Version:  8
     \\/     M anipulation  |
\*---------------------------------------------------------------------------*/
FoamFile
{
    version     2.0;
    format      ascii;
    class       volScalarField;
    location    "450";
    object      nut;
}
// * * * * * * * * * * * * * * * * * * * * * * * * * * * * * * * * * * * * * //

dimensions      [0 2 -1 0 0 0 0];

internalField   nonuniform List<scalar> 
7320
(
0.000286299
0.000273847
0.000266049
0.000260783
0.000256941
0.000253973
0.00025158
0.000249592
0.000247905
0.000246449
0.000245176
0.000244051
0.000243048
0.000242148
0.000241334
0.000240595
0.000239921
0.000239303
0.000238734
0.000238208
0.000237721
0.000237269
0.00023685
0.00023646
0.000236098
0.000235763
0.000235452
0.000235165
0.0002349
0.000234654
0.000234428
0.000234219
0.000234026
0.000233848
0.000233684
0.000233532
0.000233391
0.000233262
0.000233142
0.000233031
0.000232929
0.000232835
0.000232749
0.000232669
0.000232596
0.00023253
0.000232469
0.000232414
0.000232365
0.00023232
0.000232281
0.000232246
0.000232216
0.000232189
0.000232167
0.000232149
0.000232135
0.000232125
0.000232118
0.000232114
0.000232114
0.000232117
0.000232124
0.000232133
0.000232145
0.00023216
0.000232178
0.000232199
0.000232223
0.000232249
0.000232277
0.000232308
0.000232342
0.000232378
0.000232416
0.000232456
0.000232499
0.000232544
0.00023259
0.000232639
0.00023269
0.000232743
0.000232797
0.000232853
0.000232911
0.000232971
0.000233032
0.000233094
0.000233158
0.000233223
0.00023329
0.000233358
0.000233426
0.000233496
0.000233567
0.000233638
0.00023371
0.000233783
0.000233856
0.00023393
0.000234004
0.000234078
0.000234152
0.000234227
0.000234301
0.000234375
0.000234448
0.000234521
0.000234593
0.000234665
0.000234735
0.000234805
0.000234874
0.000234941
0.000235007
0.000235072
0.000235135
0.000235197
0.000235257
0.000235316
0.000235371
0.000235427
0.000562815
0.000740638
0.000767572
0.000767651
0.000763096
0.000757975
0.000753148
0.000748779
0.000744861
0.00074135
0.000738193
0.000735345
0.000732764
0.000730416
0.000728273
0.000726309
0.000724504
0.000722837
0.000721292
0.000719853
0.000718506
0.000717239
0.000716045
0.000714917
0.00071385
0.000712844
0.000711895
0.000711003
0.000710166
0.000709383
0.000708651
0.000707967
0.00070733
0.000706736
0.000706182
0.000705665
0.000705184
0.000704735
0.000704316
0.000703925
0.00070356
0.000703219
0.000702901
0.000702604
0.000702327
0.000702069
0.000701828
0.000701604
0.000701396
0.000701202
0.000701023
0.000700857
0.000700703
0.000700561
0.000700432
0.000700313
0.000700205
0.000700107
0.000700019
0.00069994
0.000699871
0.00069981
0.000699758
0.000699715
0.00069968
0.000699652
0.000699633
0.000699621
0.000699617
0.00069962
0.00069963
0.000699648
0.000699672
0.000699704
0.000699742
0.000699787
0.000699839
0.000699897
0.000699962
0.000700033
0.000700111
0.000700196
0.000700286
0.000700383
0.000700486
0.000700595
0.000700711
0.000700832
0.000700959
0.000701092
0.000701231
0.000701375
0.000701525
0.000701679
0.00070184
0.000702005
0.000702175
0.00070235
0.00070253
0.000702714
0.000702902
0.000703094
0.00070329
0.000703489
0.000703691
0.000703895
0.000704102
0.000704311
0.000704522
0.000704733
0.000704945
0.000705157
0.000705369
0.000705579
0.000705789
0.000705997
0.000706203
0.000706406
0.000706606
0.000706802
0.000706994
0.000707174
0.00076108
0.00115457
0.00127125
0.00130573
0.00131552
0.00131688
0.00131508
0.00131204
0.00130855
0.00130497
0.00130147
0.00129811
0.00129493
0.00129194
0.00128914
0.00128652
0.00128407
0.00128177
0.0012796
0.00127753
0.00127553
0.0012736
0.0012717
0.00126985
0.00126803
0.00126626
0.00126454
0.00126288
0.00126129
0.00125978
0.00125835
0.00125699
0.00125572
0.00125451
0.00125338
0.00125231
0.0012513
0.00125035
0.00124945
0.0012486
0.00124779
0.00124703
0.0012463
0.00124561
0.00124495
0.00124432
0.00124372
0.00124314
0.00124259
0.00124206
0.00124156
0.00124107
0.00124061
0.00124016
0.00123972
0.00123931
0.00123891
0.00123852
0.00123815
0.0012378
0.00123745
0.00123712
0.00123681
0.0012365
0.00123621
0.00123593
0.00123566
0.00123541
0.00123516
0.00123493
0.00123471
0.0012345
0.00123431
0.00123412
0.00123395
0.0012338
0.00123365
0.00123352
0.0012334
0.0012333
0.00123321
0.00123313
0.00123307
0.00123302
0.00123299
0.00123298
0.00123298
0.00123299
0.00123303
0.00123307
0.00123314
0.00123322
0.00123332
0.00123344
0.00123358
0.00123373
0.0012339
0.00123408
0.00123429
0.00123451
0.00123475
0.00123501
0.00123528
0.00123557
0.00123587
0.00123619
0.00123652
0.00123687
0.00123723
0.00123759
0.00123797
0.00123836
0.00123875
0.00123915
0.00123956
0.00123996
0.00124037
0.00124078
0.00124119
0.00124159
0.001242
0.00124237
0.00094219
0.00154866
0.00180331
0.00190636
0.0019512
0.00197187
0.00198147
0.00198555
0.00198668
0.00198617
0.00198472
0.00198276
0.00198052
0.00197815
0.00197574
0.00197335
0.001971
0.0019687
0.00196642
0.00196413
0.0019618
0.00195939
0.0019569
0.00195433
0.00195169
0.00194902
0.00194636
0.00194372
0.00194115
0.00193867
0.00193629
0.00193401
0.00193184
0.00192979
0.00192783
0.00192598
0.00192422
0.00192253
0.00192093
0.00191939
0.00191792
0.0019165
0.00191513
0.00191381
0.00191254
0.0019113
0.0019101
0.00190893
0.00190779
0.00190668
0.0019056
0.00190454
0.0019035
0.00190249
0.00190149
0.00190051
0.00189955
0.00189861
0.00189769
0.00189678
0.00189589
0.00189501
0.00189415
0.00189331
0.00189248
0.00189167
0.00189088
0.0018901
0.00188934
0.0018886
0.00188787
0.00188717
0.00188648
0.00188581
0.00188517
0.00188455
0.00188395
0.00188337
0.00188282
0.0018823
0.0018818
0.00188133
0.00188089
0.00188049
0.00188011
0.00187977
0.00187946
0.00187918
0.00187894
0.00187874
0.00187858
0.00187845
0.00187837
0.00187832
0.00187832
0.00187835
0.00187843
0.00187855
0.00187871
0.00187892
0.00187917
0.00187946
0.00187979
0.00188016
0.00188057
0.00188101
0.0018815
0.00188202
0.00188257
0.00188314
0.00188375
0.00188439
0.00188504
0.00188571
0.0018864
0.00188711
0.00188782
0.00188854
0.00188927
0.00189
0.00189073
0.0018914
0.00110978
0.00189233
0.00232606
0.0025368
0.00264439
0.00270313
0.00273713
0.00275765
0.00277031
0.00277817
0.00278296
0.00278575
0.00278719
0.00278772
0.00278762
0.0027871
0.00278626
0.00278516
0.00278379
0.00278213
0.00278014
0.00277779
0.00277507
0.00277201
0.00276866
0.00276512
0.00276144
0.00275772
0.00275403
0.00275041
0.0027469
0.00274352
0.00274028
0.00273718
0.00273423
0.0027314
0.00272868
0.00272608
0.00272356
0.00272113
0.00271877
0.00271648
0.00271425
0.00271206
0.00270992
0.00270782
0.00270576
0.00270372
0.00270172
0.00269974
0.00269778
0.00269584
0.00269393
0.00269202
0.00269014
0.00268827
0.00268642
0.00268459
0.00268277
0.00268097
0.00267919
0.00267742
0.00267567
0.00267394
0.00267222
0.00267052
0.00266885
0.0026672
0.00266557
0.00266396
0.00266238
0.00266083
0.00265931
0.00265782
0.00265636
0.00265495
0.00265356
0.00265222
0.00265093
0.00264968
0.00264848
0.00264733
0.00264623
0.00264519
0.00264421
0.00264329
0.00264243
0.00264164
0.00264091
0.00264025
0.00263967
0.00263917
0.00263873
0.00263837
0.0026381
0.0026379
0.00263778
0.00263774
0.00263779
0.00263792
0.00263813
0.00263842
0.0026388
0.00263925
0.00263978
0.00264038
0.00264105
0.00264179
0.0026426
0.00264346
0.00264438
0.00264535
0.00264637
0.00264742
0.00264852
0.00264964
0.00265079
0.00265195
0.00265313
0.00265432
0.00265552
0.00265662
0.00129926
0.00216764
0.00280717
0.00316585
0.00336955
0.00349117
0.00356775
0.00361825
0.00365279
0.00367709
0.00369457
0.00370735
0.00371681
0.00372389
0.00372921
0.00373321
0.00373618
0.00373826
0.00373952
0.00373995
0.00373952
0.00373821
0.00373604
0.00373309
0.00372947
0.00372534
0.00372085
0.00371616
0.0037114
0.00370665
0.003702
0.00369749
0.00369314
0.00368895
0.00368493
0.00368105
0.0036773
0.00367367
0.00367013
0.00366667
0.00366328
0.00365995
0.00365666
0.00365341
0.00365018
0.00364698
0.0036438
0.00364064
0.00363748
0.00363433
0.00363119
0.00362805
0.00362492
0.00362179
0.00361866
0.00361554
0.00361242
0.00360931
0.00360621
0.00360312
0.00360004
0.00359698
0.00359393
0.00359089
0.00358787
0.00358488
0.00358191
0.00357896
0.00357605
0.00357316
0.00357032
0.00356751
0.00356474
0.00356203
0.00355937
0.00355676
0.00355421
0.00355173
0.00354932
0.00354699
0.00354473
0.00354255
0.00354047
0.00353849
0.00353659
0.0035348
0.00353312
0.00353155
0.00353009
0.00352875
0.00352753
0.00352644
0.00352548
0.00352464
0.00352395
0.00352338
0.00352295
0.00352266
0.00352252
0.00352251
0.00352264
0.00352291
0.00352332
0.00352385
0.00352452
0.00352531
0.00352622
0.00352725
0.00352839
0.00352962
0.00353096
0.00353237
0.00353387
0.00353543
0.00353707
0.00353875
0.00354047
0.00354223
0.00354402
0.00354582
0.00354766
0.00354934
0.00158937
0.00236976
0.00321596
0.00375924
0.0040961
0.00431113
0.00445413
0.00455313
0.00462407
0.00467641
0.00471598
0.0047465
0.00477047
0.00478957
0.004805
0.00481758
0.00482788
0.00483623
0.00484281
0.00484766
0.0048508
0.00485224
0.00485206
0.00485039
0.00484745
0.0048435
0.00483882
0.00483365
0.00482821
0.00482268
0.00481718
0.00481178
0.00480652
0.00480143
0.00479649
0.0047917
0.00478702
0.00478244
0.00477793
0.00477347
0.00476904
0.00476462
0.00476021
0.00475579
0.00475136
0.0047469
0.00474242
0.00473791
0.00473336
0.00472878
0.00472418
0.00471954
0.00471486
0.00471016
0.00470543
0.00470067
0.0046959
0.00469111
0.00468632
0.00468152
0.00467671
0.0046719
0.00466711
0.00466231
0.00465754
0.00465277
0.00464804
0.00464334
0.00463867
0.00463404
0.00462946
0.00462493
0.00462047
0.00461607
0.00461175
0.00460751
0.00460337
0.00459931
0.00459537
0.00459154
0.00458783
0.00458425
0.00458081
0.00457752
0.00457437
0.00457138
0.00456856
0.00456591
0.00456344
0.00456116
0.00455907
0.00455717
0.00455547
0.00455398
0.0045527
0.00455162
0.00455076
0.00455011
0.00454969
0.00454948
0.00454948
0.0045497
0.00455012
0.00455075
0.00455158
0.0045526
0.00455381
0.0045552
0.00455675
0.00455845
0.00456031
0.0045623
0.0045644
0.00456662
0.00456893
0.00457133
0.0045738
0.00457632
0.00457889
0.00458148
0.00458413
0.00458656
0.00212976
0.00251869
0.00352583
0.00427893
0.00478635
0.00512982
0.00536873
0.00554023
0.00566707
0.00576336
0.00583816
0.00589741
0.00594515
0.00598421
0.00601658
0.00604369
0.00606653
0.00608573
0.00610167
0.00611452
0.00612437
0.00613131
0.00613548
0.00613714
0.00613664
0.00613437
0.00613076
0.00612621
0.00612106
0.00611558
0.00610996
0.00610435
0.0060988
0.00609336
0.00608803
0.00608279
0.0060776
0.00607245
0.0060673
0.00606213
0.00605689
0.00605158
0.0060462
0.00604071
0.00603511
0.0060294
0.00602358
0.00601765
0.0060116
0.00600544
0.00599918
0.00599282
0.00598635
0.00597979
0.00597315
0.00596643
0.00595965
0.00595281
0.00594592
0.00593899
0.00593203
0.00592504
0.00591804
0.00591103
0.00590402
0.00589701
0.00589003
0.00588307
0.00587615
0.00586928
0.00586247
0.00585572
0.00584905
0.00584248
0.00583601
0.00582966
0.00582344
0.00581735
0.00581141
0.00580564
0.00580004
0.00579462
0.00578942
0.00578442
0.00577964
0.0057751
0.0057708
0.00576675
0.00576296
0.00575944
0.0057562
0.00575326
0.0057506
0.00574824
0.00574619
0.00574444
0.00574301
0.00574188
0.00574108
0.00574059
0.00574041
0.00574053
0.00574096
0.00574168
0.00574269
0.00574397
0.00574553
0.00574735
0.0057494
0.00575167
0.00575416
0.00575684
0.00575969
0.0057627
0.00576586
0.00576913
0.00577251
0.00577597
0.00577951
0.00578308
0.00578672
0.00579008
0.0031541
0.00268382
0.00372393
0.00468584
0.00539542
0.00590414
0.00627311
0.00654667
0.00675435
0.00691557
0.00704328
0.00714626
0.00723064
0.00730074
0.00735969
0.00740978
0.00745262
0.00748929
0.00752048
0.0075466
0.00756786
0.00758449
0.00759675
0.00760505
0.00760988
0.00761185
0.00761158
0.00760964
0.00760654
0.00760269
0.00759841
0.00759389
0.00758927
0.00758461
0.00757993
0.00757521
0.00757043
0.00756554
0.00756052
0.00755532
0.00754992
0.00754428
0.00753841
0.00753227
0.00752587
0.00751921
0.00751228
0.0075051
0.00749766
0.00748998
0.00748208
0.00747395
0.00746561
0.00745706
0.00744834
0.00743945
0.00743041
0.00742123
0.00741194
0.00740255
0.00739307
0.00738352
0.00737391
0.00736425
0.00735456
0.00734485
0.00733515
0.00732547
0.00731581
0.0073062
0.00729665
0.00728719
0.00727782
0.00726856
0.00725944
0.00725048
0.00724168
0.00723306
0.00722465
0.00721647
0.00720852
0.00720082
0.00719341
0.00718629
0.00717947
0.00717298
0.00716682
0.00716102
0.00715558
0.00715051
0.00714584
0.00714157
0.00713771
0.00713425
0.00713123
0.00712863
0.00712645
0.00712471
0.00712341
0.00712254
0.0071221
0.00712208
0.00712247
0.00712327
0.00712447
0.00712604
0.00712798
0.00713028
0.0071329
0.00713583
0.00713905
0.00714254
0.00714626
0.00715021
0.00715435
0.00715866
0.00716312
0.00716769
0.00717236
0.00717709
0.00718192
0.00718639
0.00493182
0.00302612
0.0038337
0.00494834
0.00587407
0.00658117
0.0071165
0.00752623
0.00784509
0.00809767
0.00830117
0.0084677
0.00860592
0.0087221
0.00882086
0.00890561
0.00897882
0.00904225
0.00909705
0.00914395
0.00918344
0.00921593
0.00924186
0.00926182
0.00927652
0.00928679
0.00929349
0.00929743
0.00929932
0.00929978
0.00929927
0.0092981
0.00929648
0.00929454
0.00929233
0.00928984
0.00928706
0.00928394
0.00928045
0.00927654
0.00927217
0.00926732
0.00926199
0.00925614
0.00924979
0.00924292
0.00923556
0.00922771
0.00921939
0.00921061
0.00920142
0.00919182
0.00918182
0.00917145
0.00916073
0.0091497
0.00913838
0.0091268
0.009115
0.00910298
0.00909079
0.00907843
0.00906594
0.00905334
0.00904065
0.00902789
0.0090151
0.00900228
0.00898948
0.0089767
0.00896398
0.00895135
0.00893881
0.00892641
0.00891417
0.00890212
0.00889027
0.00887865
0.0088673
0.00885624
0.00884548
0.00883506
0.008825
0.00881533
0.00880606
0.00879722
0.00878883
0.0087809
0.00877346
0.00876652
0.0087601
0.00875421
0.00874887
0.00874407
0.00873984
0.00873618
0.00873308
0.00873056
0.00872862
0.00872725
0.00872644
0.00872619
0.00872649
0.00872732
0.00872868
0.00873053
0.00873287
0.00873567
0.00873891
0.00874256
0.00874659
0.00875097
0.00875567
0.00876066
0.00876591
0.00877139
0.00877707
0.00878291
0.00878888
0.00879494
0.00880113
0.00880687
0.00765447
0.00384129
0.0039599
0.0050637
0.00617753
0.00710149
0.00783611
0.00841792
0.00888251
0.00925805
0.00956565
0.00982086
0.0100352
0.0102172
0.0103733
0.0105085
0.0106261
0.010729
0.0108189
0.0108971
0.0109644
0.0110215
0.0110691
0.0111081
0.0111393
0.011164
0.0111832
0.0111981
0.0112095
0.0112185
0.0112256
0.0112313
0.011236
0.0112398
0.011243
0.0112454
0.0112472
0.0112483
0.0112487
0.0112482
0.011247
0.0112448
0.0112418
0.011238
0.0112332
0.0112276
0.0112211
0.0112138
0.0112057
0.0111969
0.0111873
0.011177
0.0111661
0.0111545
0.0111423
0.0111296
0.0111164
0.0111027
0.0110886
0.0110742
0.0110594
0.0110443
0.0110289
0.0110133
0.0109976
0.0109816
0.0109656
0.0109494
0.0109332
0.010917
0.0109009
0.0108847
0.0108687
0.0108528
0.0108371
0.0108216
0.0108063
0.0107913
0.0107766
0.0107622
0.0107483
0.0107347
0.0107216
0.010709
0.0106969
0.0106854
0.0106744
0.010664
0.0106542
0.010645
0.0106366
0.0106288
0.0106217
0.0106153
0.0106096
0.0106046
0.0106004
0.0105969
0.0105941
0.0105921
0.0105908
0.0105902
0.0105903
0.0105911
0.0105926
0.0105946
0.0105973
0.0106006
0.0106045
0.0106089
0.0106137
0.0106191
0.0106248
0.0106309
0.0106373
0.0106441
0.0106511
0.0106583
0.0106657
0.0106732
0.0106809
0.010688
0.0113266
0.00551803
0.00435849
0.00510578
0.00628855
0.00740979
0.00836169
0.00914712
0.0097928
0.0103264
0.0107711
0.0111454
0.0114635
0.0117364
0.0119725
0.0121784
0.0123591
0.0125183
0.0126588
0.0127824
0.0128905
0.0129843
0.0130648
0.0131331
0.0131904
0.0132383
0.013278
0.0133112
0.013339
0.0133627
0.0133831
0.0134011
0.013417
0.0134313
0.0134442
0.0134557
0.013466
0.013475
0.0134828
0.0134891
0.0134942
0.0134978
0.0135
0.0135009
0.0135003
0.0134984
0.0134951
0.0134905
0.0134846
0.0134776
0.0134693
0.01346
0.0134496
0.0134382
0.0134258
0.0134125
0.0133984
0.0133836
0.013368
0.0133519
0.0133351
0.0133178
0.0133
0.0132819
0.0132633
0.0132445
0.0132254
0.0132061
0.0131866
0.013167
0.0131474
0.0131278
0.0131082
0.0130887
0.0130693
0.0130502
0.0130313
0.0130127
0.0129944
0.0129766
0.0129591
0.0129422
0.0129258
0.01291
0.0128947
0.0128802
0.0128663
0.0128531
0.0128407
0.0128291
0.0128183
0.0128083
0.0127992
0.0127909
0.0127836
0.0127771
0.0127715
0.0127669
0.0127631
0.0127602
0.0127583
0.0127572
0.012757
0.0127576
0.012759
0.0127612
0.0127642
0.0127679
0.0127723
0.0127774
0.0127831
0.0127893
0.012796
0.0128033
0.0128109
0.012819
0.0128273
0.0128359
0.0128448
0.0128538
0.0128631
0.0128717
0.0157248
0.0083437
0.00547917
0.00531275
0.00627168
0.00748283
0.00862977
0.00963246
0.0104878
0.0112135
0.0118306
0.0123582
0.0128125
0.0132065
0.0135506
0.013853
0.0141204
0.0143577
0.0145688
0.0147564
0.0149227
0.0150693
0.0151976
0.0153093
0.0154058
0.015489
0.0155607
0.0156226
0.0156765
0.0157238
0.0157659
0.0158038
0.0158382
0.0158696
0.0158986
0.0159252
0.0159497
0.0159721
0.0159923
0.0160105
0.0160266
0.0160406
0.0160524
0.0160621
0.0160697
0.0160753
0.0160788
0.0160803
0.01608
0.0160777
0.0160738
0.0160681
0.0160608
0.016052
0.0160417
0.01603
0.016017
0.0160028
0.0159875
0.0159712
0.0159539
0.0159358
0.0159169
0.0158972
0.015877
0.0158561
0.0158348
0.0158131
0.015791
0.0157686
0.0157461
0.0157234
0.0157006
0.0156779
0.0156552
0.0156327
0.0156103
0.0155883
0.0155666
0.0155452
0.0155244
0.015504
0.0154843
0.0154651
0.0154467
0.015429
0.0154122
0.0153961
0.0153809
0.0153667
0.0153534
0.0153411
0.0153298
0.0153195
0.0153103
0.0153021
0.015295
0.015289
0.0152841
0.0152802
0.0152774
0.0152756
0.0152749
0.0152752
0.0152765
0.0152787
0.0152818
0.0152858
0.0152907
0.0152963
0.0153027
0.0153097
0.0153174
0.0153256
0.0153344
0.0153437
0.0153533
0.0153633
0.0153736
0.0153841
0.0153949
0.0154048
0.0204366
0.0122987
0.00781878
0.0061763
0.00638132
0.00739746
0.00862147
0.0098068
0.0108763
0.0118169
0.0126375
0.0133529
0.0139783
0.0145275
0.015012
0.0154418
0.0158248
0.0161673
0.0164742
0.0167496
0.0169962
0.0172164
0.0174122
0.0175857
0.0177389
0.0178738
0.0179926
0.0180976
0.0181909
0.0182743
0.0183497
0.0184182
0.0184811
0.0185393
0.0185932
0.0186434
0.0186901
0.0187336
0.0187738
0.0188108
0.0188448
0.0188756
0.0189033
0.0189279
0.0189496
0.0189682
0.0189839
0.0189967
0.0190068
0.0190141
0.019019
0.0190213
0.0190212
0.0190189
0.0190144
0.0190079
0.0189993
0.0189889
0.0189769
0.0189632
0.0189481
0.0189316
0.0189139
0.018895
0.018875
0.0188541
0.0188324
0.0188099
0.0187868
0.0187631
0.018739
0.0187145
0.0186897
0.0186647
0.0186397
0.0186146
0.0185896
0.0185648
0.0185403
0.0185161
0.0184923
0.0184691
0.0184464
0.0184243
0.018403
0.0183825
0.0183628
0.0183441
0.0183263
0.0183095
0.0182938
0.0182792
0.0182657
0.0182535
0.0182424
0.0182325
0.0182238
0.0182164
0.0182102
0.0182052
0.0182014
0.0181989
0.0181976
0.0181974
0.0181983
0.0182004
0.0182035
0.0182076
0.0182127
0.0182187
0.0182256
0.0182333
0.0182417
0.0182508
0.0182605
0.0182708
0.0182816
0.0182927
0.0183043
0.0183161
0.0183282
0.0183394
0.024966
0.017029
0.011559
0.00833441
0.00718516
0.00746837
0.00845501
0.0096729
0.0108973
0.0120408
0.0130773
0.0140054
0.0148331
0.0155713
0.0162311
0.0168224
0.0173541
0.0178336
0.0182668
0.0186587
0.019013
0.0193329
0.019621
0.0198799
0.0201119
0.0203197
0.0205058
0.0206728
0.0208233
0.0209596
0.0210838
0.0211978
0.0213031
0.0214009
0.0214922
0.0215775
0.0216576
0.0217326
0.0218029
0.0218686
0.0219297
0.0219864
0.0220388
0.0220868
0.0221306
0.0221702
0.0222057
0.0222373
0.0222649
0.0222888
0.022309
0.0223257
0.0223391
0.0223492
0.0223562
0.0223601
0.0223613
0.0223597
0.0223557
0.0223492
0.0223406
0.0223299
0.0223173
0.0223029
0.0222868
0.0222693
0.0222503
0.0222301
0.0222088
0.0221865
0.0221633
0.0221394
0.0221149
0.0220899
0.0220644
0.0220387
0.0220129
0.021987
0.0219612
0.0219356
0.0219102
0.0218852
0.0218607
0.0218368
0.0218136
0.0217911
0.0217695
0.0217488
0.021729
0.0217103
0.0216928
0.0216764
0.0216612
0.0216472
0.0216345
0.0216232
0.0216132
0.0216045
0.0215972
0.0215912
0.0215866
0.0215833
0.0215813
0.0215806
0.0215811
0.0215829
0.0215859
0.02159
0.0215952
0.0216014
0.0216086
0.0216167
0.0216256
0.0216353
0.0216457
0.0216567
0.0216683
0.0216803
0.0216928
0.0217056
0.0217188
0.0217307
0.0288721
0.0219727
0.0163572
0.0121026
0.00944208
0.00839318
0.008566
0.00943683
0.0106072
0.0118514
0.0130626
0.0141966
0.0152393
0.0161904
0.0170551
0.0178408
0.0185555
0.0192063
0.0197998
0.0203413
0.0208354
0.021286
0.0216962
0.0220691
0.0224077
0.0227148
0.0229934
0.0232466
0.0234772
0.0236881
0.0238818
0.0240607
0.0242267
0.0243816
0.0245266
0.0246628
0.024791
0.0249119
0.0250258
0.0251331
0.0252341
0.0253289
0.0254177
0.0255006
0.0255777
0.0256491
0.0257149
0.0257753
0.0258304
0.0258803
0.0259253
0.0259654
0.0260009
0.0260319
0.0260586
0.0260811
0.0260995
0.0261142
0.0261253
0.0261329
0.0261374
0.0261388
0.0261374
0.0261333
0.0261268
0.0261179
0.0261069
0.0260939
0.0260791
0.0260627
0.0260448
0.0260256
0.0260053
0.0259839
0.0259616
0.0259387
0.0259152
0.0258912
0.025867
0.0258427
0.0258183
0.025794
0.02577
0.0257464
0.0257233
0.0257007
0.0256789
0.0256578
0.0256376
0.0256184
0.0256003
0.0255833
0.0255675
0.0255529
0.0255396
0.0255276
0.025517
0.0255077
0.0254999
0.0254934
0.0254883
0.0254847
0.0254824
0.0254814
0.0254818
0.0254834
0.0254863
0.0254904
0.0254957
0.025502
0.0255093
0.0255177
0.0255269
0.0255369
0.0255476
0.0255591
0.0255711
0.0255836
0.0255966
0.0256099
0.0256236
0.0256359
0.031886
0.0265354
0.0215162
0.0170871
0.0134893
0.0110289
0.00983786
0.00973791
0.0103766
0.011418
0.0126294
0.0138773
0.0150936
0.0162467
0.0173243
0.018324
0.0192482
0.0201011
0.0208877
0.021613
0.0222813
0.0228967
0.0234628
0.023983
0.0244604
0.0248983
0.0253
0.0256687
0.0260078
0.0263205
0.0266098
0.0268784
0.0271288
0.0273632
0.0275833
0.0277907
0.0279866
0.0281718
0.0283473
0.0285135
0.0286709
0.0288198
0.0289605
0.0290933
0.0292183
0.0293357
0.0294458
0.0295486
0.0296444
0.0297333
0.0298156
0.0298913
0.0299609
0.0300244
0.030082
0.030134
0.0301806
0.0302218
0.0302581
0.0302896
0.0303166
0.0303394
0.0303581
0.0303729
0.0303842
0.030392
0.0303967
0.0303984
0.0303974
0.0303938
0.0303878
0.0303798
0.0303697
0.0303579
0.0303446
0.0303298
0.0303139
0.0302969
0.0302791
0.0302605
0.0302415
0.0302222
0.0302026
0.030183
0.0301636
0.0301443
0.0301255
0.0301071
0.0300894
0.0300724
0.0300563
0.0300411
0.0300269
0.0300137
0.0300017
0.0299909
0.0299814
0.0299731
0.0299661
0.0299605
0.0299561
0.0299531
0.0299515
0.0299511
0.029952
0.0299541
0.0299575
0.029962
0.0299676
0.0299743
0.029982
0.0299906
0.0300001
0.0300104
0.0300213
0.0300329
0.0300451
0.0300577
0.0300707
0.030084
0.0300977
0.0301096
0.0339568
0.0302574
0.0262964
0.0224018
0.0187493
0.0155657
0.0131348
0.01166
0.0111402
0.0113925
0.0121663
0.0132379
0.0144481
0.0156985
0.0169335
0.0181238
0.0192549
0.0203211
0.0213212
0.0222564
0.023129
0.0239417
0.0246976
0.0253995
0.0260506
0.026654
0.0272132
0.0277315
0.0282123
0.0286591
0.0290752
0.0294639
0.0298278
0.0301697
0.0304918
0.0307962
0.0310843
0.0313577
0.0316175
0.0318645
0.0320994
0.0323229
0.0325355
0.0327375
0.0329293
0.0331111
0.0332832
0.033446
0.0335995
0.0337441
0.0338801
0.0340075
0.0341268
0.0342382
0.0343418
0.034438
0.0345269
0.0346088
0.0346839
0.0347527
0.0348153
0.034872
0.0349231
0.0349689
0.0350097
0.0350456
0.035077
0.0351041
0.0351272
0.0351465
0.0351622
0.0351747
0.0351842
0.0351908
0.0351948
0.0351965
0.0351961
0.0351938
0.0351898
0.0351842
0.0351774
0.0351696
0.0351608
0.0351514
0.0351414
0.035131
0.0351205
0.03511
0.0350996
0.0350895
0.0350797
0.0350705
0.0350618
0.0350539
0.0350468
0.0350405
0.0350352
0.0350308
0.0350275
0.0350253
0.0350241
0.035024
0.0350251
0.0350272
0.0350303
0.0350346
0.0350398
0.035046
0.0350531
0.0350611
0.03507
0.0350795
0.0350898
0.0351007
0.0351121
0.035124
0.0351362
0.0351488
0.0351617
0.0351746
0.0351878
0.0351987
0.0352156
0.0329264
0.0301548
0.0271692
0.0241079
0.0210829
0.0182539
0.0158401
0.0140585
0.0130305
0.012737
0.0130509
0.013801
0.0148264
0.0160023
0.0172435
0.0184961
0.0197275
0.020919
0.0220601
0.0231455
0.024173
0.0251422
0.0260539
0.0269097
0.0277118
0.0284628
0.0291657
0.0298237
0.0304401
0.0310183
0.0315615
0.0320728
0.0325553
0.0330115
0.0334439
0.0338544
0.034245
0.0346171
0.034972
0.0353108
0.0356344
0.0359435
0.0362388
0.0365208
0.0367899
0.0370466
0.0372912
0.037524
0.0377454
0.0379556
0.0381551
0.038344
0.0385227
0.0386916
0.0388507
0.0390006
0.0391413
0.0392733
0.0393967
0.0395119
0.0396194
0.0397194
0.0398122
0.0398981
0.0399775
0.0400505
0.0401177
0.0401791
0.0402352
0.0402863
0.0403325
0.0403743
0.0404119
0.0404455
0.0404755
0.0405021
0.0405256
0.0405462
0.0405641
0.0405797
0.0405931
0.0406047
0.0406145
0.0406229
0.0406301
0.0406362
0.0406414
0.040646
0.04065
0.0406537
0.0406572
0.0406607
0.0406641
0.0406678
0.0406718
0.0406761
0.0406808
0.040686
0.0406918
0.0406982
0.0407051
0.0407127
0.0407209
0.0407298
0.0407392
0.0407493
0.0407599
0.040771
0.0407825
0.0407945
0.0408068
0.0408195
0.0408323
0.0408453
0.0408584
0.0408716
0.0408847
0.0408977
0.0409104
0.0409231
0.0409329
0.0358864
0.034593
0.0328633
0.0308401
0.0286213
0.0262674
0.0238358
0.0214144
0.0191386
0.0171787
0.0156958
0.0147878
0.0144645
0.0146594
0.015264
0.0161609
0.0172464
0.0184398
0.0196835
0.0209388
0.0221799
0.0233904
0.0245598
0.0256818
0.0267529
0.0277717
0.0287382
0.0296535
0.0305193
0.031338
0.0321124
0.0328452
0.0335394
0.0341979
0.0348235
0.0354187
0.0359858
0.0365271
0.0370443
0.0375391
0.0380129
0.038467
0.0389023
0.0393199
0.0397204
0.0401045
0.0404728
0.0408258
0.041164
0.0414878
0.0417976
0.0420939
0.042377
0.0426472
0.0429049
0.0431504
0.0433842
0.0436064
0.0438175
0.0440177
0.0442074
0.0443869
0.0445566
0.044717
0.0448684
0.045011
0.0451453
0.0452716
0.0453903
0.0455016
0.0456059
0.0457036
0.045795
0.0458805
0.0459602
0.0460346
0.046104
0.0461686
0.0462289
0.0462849
0.0463372
0.0463858
0.0464312
0.0464735
0.0465131
0.0465501
0.0465849
0.0466176
0.0466484
0.0466777
0.0467055
0.046732
0.0467574
0.0467819
0.0468056
0.0468287
0.0468512
0.0468732
0.0468949
0.0469162
0.0469373
0.0469582
0.046979
0.0469995
0.04702
0.0470403
0.0470604
0.0470803
0.0471
0.0471195
0.0471387
0.0471575
0.0471758
0.0471938
0.0472112
0.047228
0.0472441
0.0472596
0.0472744
0.0472882
0.0473015
0.0473109
0.0361963
0.0354884
0.0345011
0.0332718
0.0318469
0.0302605
0.0285351
0.0266917
0.024764
0.0228124
0.0209309
0.0192398
0.0178631
0.0168965
0.0163857
0.0163216
0.0166534
0.0173068
0.0182014
0.0192631
0.0204305
0.0216566
0.0229069
0.0241569
0.0253895
0.0265929
0.0277595
0.0288845
0.0299652
0.031001
0.0319919
0.0329392
0.0338444
0.0347095
0.0355366
0.036328
0.0370859
0.0378122
0.0385091
0.0391782
0.0398211
0.0404394
0.0410343
0.0416068
0.0421581
0.042689
0.0432003
0.0436926
0.0441666
0.0446229
0.045062
0.0454843
0.0458904
0.0462806
0.0466554
0.0470152
0.0473604
0.0476914
0.0480085
0.0483122
0.0486027
0.0488805
0.0491458
0.0493991
0.0496409
0.0498715
0.0500914
0.0503009
0.0505004
0.0506903
0.0508709
0.0510426
0.0512059
0.051361
0.0515083
0.0516482
0.051781
0.0519072
0.0520269
0.0521406
0.0522486
0.0523512
0.0524487
0.0525415
0.0526298
0.0527138
0.052794
0.0528705
0.0529436
0.0530136
0.0530806
0.0531449
0.0532067
0.0532661
0.0533234
0.0533786
0.053432
0.0534837
0.0535337
0.0535821
0.0536291
0.0536747
0.0537188
0.0537617
0.0538032
0.0538434
0.0538823
0.0539199
0.0539561
0.0539909
0.0540243
0.0540562
0.0540865
0.0541153
0.0541425
0.054168
0.0541918
0.0542138
0.054234
0.0542524
0.0542692
0.0542809
0.0363185
0.0358964
0.035342
0.0346443
0.0338099
0.0328502
0.0317745
0.0305881
0.0292942
0.0278982
0.0264145
0.0248739
0.0233287
0.0218531
0.0205351
0.0194614
0.0187
0.018288
0.0182294
0.0184991
0.0190531
0.0198375
0.0207974
0.0218821
0.023049
0.0242638
0.0255007
0.0267403
0.0279688
0.0291763
0.0303562
0.031504
0.0326171
0.0336943
0.0347354
0.0357406
0.036711
0.0376475
0.0385515
0.0394242
0.040267
0.0410811
0.0418677
0.0426281
0.0433631
0.0440739
0.0447613
0.045426
0.0460688
0.0466904
0.0472913
0.0478722
0.0484335
0.0489758
0.0494996
0.0500054
0.0504935
0.0509644
0.0514187
0.0518565
0.0522785
0.0526849
0.0530762
0.0534526
0.0538146
0.0541626
0.0544972
0.0548187
0.0551276
0.0554242
0.0557091
0.0559825
0.0562449
0.0564966
0.0567382
0.0569699
0.0571921
0.0574053
0.0576098
0.057806
0.0579942
0.0581748
0.0583481
0.0585146
0.0586745
0.0588281
0.0589757
0.0591177
0.0592544
0.0593859
0.0595126
0.0596347
0.0597524
0.0598659
0.0599755
0.0600813
0.0601835
0.0602821
0.0603774
0.0604695
0.0605584
0.0606442
0.0607269
0.0608067
0.0608835
0.0609574
0.0610282
0.0610961
0.0611611
0.0612229
0.0612817
0.0613374
0.06139
0.0614393
0.0614854
0.0615282
0.0615678
0.0616039
0.0616368
0.0616662
0.0616926
0.0617123
0.0363591
0.0360515
0.0357024
0.0352937
0.0348163
0.0342669
0.0336458
0.0329534
0.032189
0.0313505
0.0304344
0.0294384
0.0283636
0.0272185
0.0260225
0.0248094
0.0236273
0.0225355
0.0215967
0.0208671
0.0203885
0.0201826
0.020251
0.0205778
0.0211345
0.0218853
0.0227918
0.0238169
0.0249271
0.0260942
0.0272955
0.0285132
0.029734
0.0309481
0.0321484
0.0333297
0.0344884
0.035622
0.036729
0.0378085
0.0388602
0.039884
0.0408802
0.0418493
0.0427916
0.0437079
0.0445986
0.0454643
0.0463056
0.0471229
0.0479169
0.048688
0.0494368
0.0501637
0.0508692
0.0515538
0.052218
0.0528622
0.0534868
0.0540923
0.0546789
0.0552473
0.0557977
0.0563305
0.0568462
0.0573452
0.0578277
0.0582942
0.0587452
0.0591811
0.0596026
0.0600098
0.0604034
0.0607835
0.0611508
0.0615055
0.0618482
0.0621791
0.0624987
0.0628074
0.0631056
0.0633937
0.063672
0.0639409
0.0642008
0.064452
0.0646949
0.0649298
0.0651569
0.0653766
0.0655891
0.0657948
0.0659938
0.0661864
0.0663729
0.0665533
0.0667278
0.0668967
0.0670601
0.067218
0.0673706
0.0675179
0.0676601
0.0677971
0.0679289
0.0680556
0.0681772
0.0682937
0.0684049
0.0685109
0.0686117
0.0687071
0.0687972
0.0688819
0.0689611
0.0690349
0.0691031
0.0691659
0.0692231
0.0692748
0.0693215
0.0693594
0.0363702
0.0360998
0.0358287
0.035546
0.0352425