/*--------------------------------*- C++ -*----------------------------------*\
  =========                 |
  \\      /  F ield         | OpenFOAM: The Open Source CFD Toolbox
   \\    /   O peration     | Website:  https://openfoam.org
    \\  /    A nd           | Version:  8
     \\/     M anipulation  |
\*---------------------------------------------------------------------------*/
FoamFile
{
    version     2.0;
    format      ascii;
    class       volScalarField;
    location    "450";
    object      p;
}
// * * * * * * * * * * * * * * * * * * * * * * * * * * * * * * * * * * * * * //

dimensions      [0 2 -2 0 0 0 0];

internalField   nonuniform List<scalar> 
7320
(
141.234
135.378
133.468
131.683
129.974
128.278
126.615
124.99
123.398
121.832
120.288
118.765
117.259
115.77
114.296
112.836
111.388
109.953
108.529
107.116
105.715
104.325
102.948
101.583
100.232
98.893
97.5673
96.2544
94.9536
93.6644
92.3862
91.1185
89.8606
88.6118
87.3718
86.1402
84.9164
83.7003
82.4915
81.29
80.0954
78.9077
77.7267
76.5525
75.3849
74.224
73.0695
71.9217
70.7803
69.6454
68.517
67.3952
66.2798
65.1708
64.0682
62.9722
61.8824
60.7991
59.7221
58.6515
57.5871
56.529
55.477
54.4313
53.3917
52.3582
51.3306
50.3091
49.2934
48.2836
47.2794
46.2811
45.2882
44.3008
43.3187
42.342
41.3704
40.4039
39.4422
38.4855
37.5333
36.5857
35.6424
34.7034
33.7684
32.8373
31.91
30.9863
30.066
29.1489
28.2348
27.3237
26.4152
25.5093
24.6057
23.7043
22.8048
21.9071
21.0109
20.1163
19.2228
18.3304
17.4389
16.5481
15.6579
14.768
13.8783
12.9887
12.0989
11.2089
10.3184
9.42739
8.53568
7.64313
6.74961
5.85501
4.95919
4.06209
3.16351
2.26388
1.36113
0.47167
140.436
135.365
133.468
131.683
129.974
128.279
126.615
124.991
123.399
121.832
120.288
118.765
117.259
115.77
114.296
112.836
111.388
109.953
108.529
107.116
105.715
104.325
102.948
101.583
100.232
98.893
97.5674
96.2544
94.9536
93.6644
92.3863
91.1185
89.8606
88.6118
87.3718
86.1402
84.9164
83.7003
82.4915
81.29
80.0954
78.9077
77.7267
76.5525
75.3849
74.224
73.0695
71.9217
70.7803
69.6454
68.517
67.3952
66.2798
65.1708
64.0682
62.9722
61.8824
60.7991
59.7221
58.6515
57.5871
56.529
55.477
54.4313
53.3917
52.3582
51.3306
50.3091
49.2934
48.2836
47.2794
46.2811
45.2882
44.3008
43.3187
42.342
41.3704
40.4039
39.4422
38.4855
37.5333
36.5857
35.6424
34.7034
33.7684
32.8373
31.91
30.9863
30.066
29.1489
28.2348
27.3237
26.4152
25.5093
24.6057
23.7042
22.8047
21.9071
21.0109
20.1163
19.2228
18.3304
17.4389
16.5481
15.6579
14.768
13.8783
12.9887
12.0989
11.2089
10.3184
9.42739
8.53567
7.64313
6.7496
5.855
4.95919
4.06208
3.16351
2.26388
1.36113
0.471668
140.231
135.37
133.469
131.684
129.975
128.279
126.615
124.991
123.399
121.832
120.289
118.765
117.259
115.77
114.296
112.836
111.388
109.953
108.529
107.116
105.715
104.325
102.948
101.583
100.232
98.8931
97.5674
96.2545
94.9536
93.6645
92.3863
91.1186
89.8606
88.6119
87.3718
86.1402
84.9164
83.7003
82.4915
81.29
80.0954
78.9077
77.7267
76.5526
75.385
74.224
73.0695
71.9217
70.7803
69.6454
68.517
67.3952
66.2798
65.1708
64.0682
62.9722
61.8824
60.7991
59.7221
58.6515
57.5871
56.529
55.477
54.4313
53.3917
52.3582
51.3306
50.3091
49.2934
48.2836
47.2794
46.281
45.2881
44.3008
43.3187
42.342
41.3704
40.4039
39.4422
38.4855
37.5333
36.5857
35.6423
34.7034
33.7684
32.8373
31.91
30.9863
30.0659
29.1489
28.2348
27.3237
26.4152
25.5093
24.6057
23.7042
22.8047
21.907
21.0109
20.1163
19.2228
18.3304
17.4389
16.5481
15.6579
14.768
13.8783
12.9886
12.0989
11.2088
10.3184
9.42738
8.53566
7.64312
6.7496
5.85499
4.95918
4.06208
3.1635
2.26387
1.36112
0.471665
140.217
135.377
133.471
131.685
129.975
128.28
126.615
124.991
123.399
121.833
120.289
118.765
117.26
115.77
114.296
112.836
111.388
109.953
108.529
107.116
105.715
104.325
102.948
101.583
100.232
98.8931
97.5674
96.2545
94.9537
93.6645
92.3863
91.1186
89.8606
88.6119
87.3718
86.1402
84.9164
83.7003
82.4915
81.29
80.0954
78.9077
77.7267
76.5526
75.385
74.224
73.0695
71.9217
70.7803
69.6454
68.517
67.3952
66.2798
65.1708
64.0682
62.9722
61.8824
60.7991
59.7221
58.6515
57.5871
56.529
55.477
54.4313
53.3917
52.3582
51.3306
50.3091
49.2934
48.2836
47.2794
46.281
45.2881
44.3008
43.3187
42.342
41.3704
40.4039
39.4422
38.4855
37.5333
36.5857
35.6423
34.7034
33.7684
32.8373
31.91
30.9863
30.0659
29.1489
28.2348
27.3237
26.4152
25.5093
24.6056
23.7042
22.8047
21.907
21.0109
20.1163
19.2228
18.3304
17.4389
16.5481
15.6579
14.768
13.8783
12.9886
12.0989
11.2088
10.3184
9.42737
8.53565
7.64311
6.74959
5.85499
4.95917
4.06207
3.16349
2.26387
1.36111
0.471661
140.19
135.381
133.473
131.686
129.976
128.28
126.616
124.991
123.399
121.833
120.289
118.765
117.26
115.771
114.297
112.836
111.389
109.953
108.529
107.116
105.715
104.325
102.948
101.583
100.232
98.8932
97.5675
96.2545
94.9537
93.6645
92.3863
91.1186
89.8606
88.6119
87.3719
86.1402
84.9165
83.7003
82.4915
81.29
80.0954
78.9077
77.7267
76.5526
75.385
74.224
73.0695
71.9217
70.7803
69.6454
68.517
67.3952
66.2798
65.1708
64.0682
62.9722
61.8824
60.7991
59.7221
58.6515
57.5871
56.529
55.477
54.4313
53.3917
52.3582
51.3306
50.3091
49.2934
48.2836
47.2794
46.281
45.2881
44.3007
43.3187
42.342
41.3704
40.4039
39.4422
38.4854
37.5333
36.5856
35.6423
34.7033
33.7684
32.8373
31.91
30.9863
30.0659
29.1488
28.2348
27.3237
26.4152
25.5093
24.6056
23.7042
22.8047
21.907
21.0109
20.1162
19.2228
18.3304
17.4389
16.5481
15.6578
14.768
13.8783
12.9886
12.0989
11.2088
10.3184
9.42736
8.53564
7.6431
6.74958
5.85498
4.95916
4.06206
3.16348
2.26386
1.36111
0.471657
140.148
135.386
133.475
131.688
129.977
128.281
126.616
124.992
123.4
121.833
120.289
118.766
117.26
115.771
114.297
112.836
111.389
109.953
108.529
107.116
105.715
104.325
102.948
101.584
100.232
98.8933
97.5676
96.2546
94.9538
93.6646
92.3864
91.1187
89.8607
88.6119
87.3719
86.1403
84.9165
83.7004
82.4916
81.29
80.0954
78.9077
77.7267
76.5526
75.385
74.224
73.0695
71.9217
70.7803
69.6455
68.517
67.3952
66.2798
65.1708
64.0682
62.9722
61.8824
60.7991
59.7221
58.6515
57.5871
56.529
55.477
54.4313
53.3917
52.3582
51.3306
50.3091
49.2934
48.2836
47.2794
46.281
45.2881
44.3007
43.3186
42.342
41.3704
40.4039
39.4422
38.4854
37.5332
36.5856
35.6423
34.7033
33.7683
32.8373
31.9099
30.9862
30.0659
29.1488
28.2347
27.3236
26.4152
25.5092
24.6056
23.7042
22.8047
21.907
21.0109
20.1162
19.2228
18.3304
17.4389
16.5481
15.6578
14.7679
13.8782
12.9886
12.0988
11.2088
10.3183
9.42735
8.53563
7.64309
6.74957
5.85497
4.95915
4.06205
3.16347
2.26385
1.3611
0.471651
140.112
135.391
133.478
131.69
129.979
128.282
126.617
124.993
123.4
121.834
120.29
118.766
117.26
115.771
114.297
112.837
111.389
109.953
108.529
107.116
105.715
104.326
102.948
101.584
100.232
98.8933
97.5676
96.2547
94.9538
93.6646
92.3864
91.1187
89.8607
88.612
87.3719
86.1403
84.9165
83.7004
82.4916
81.29
80.0954
78.9077
77.7268
76.5526
75.385
74.224
73.0695
71.9217
70.7803
69.6455
68.517
67.3952
66.2798
65.1708
64.0682
62.9722
61.8824
60.7991
59.722
58.6515
57.5871
56.5289
55.477
54.4313
53.3917
52.3581
51.3306
50.3091
49.2934
48.2836
47.2794
46.281
45.2881
44.3007
43.3186
42.342
41.3704
40.4038
39.4422
38.4854
37.5332
36.5856
35.6423
34.7033
33.7683
32.8373
31.9099
30.9862
30.0659
29.1488
28.2347
27.3236
26.4151
25.5092
24.6056
23.7042
22.8047
21.907
21.0108
20.1162
19.2227
18.3304
17.4388
16.5481
15.6578
14.7679
13.8782
12.9886
12.0988
11.2088
10.3183
9.42733
8.53562
7.64307
6.74955
5.85495
4.95914
4.06204
3.16346
2.26384
1.36109
0.471644
140.085
135.396
133.481
131.692
129.98
128.283
126.618
124.993
123.401
121.834
120.29
118.766
117.261
115.772
114.297
112.837
111.389
109.954
108.529
107.117
105.715
104.326
102.948
101.584
100.232
98.8934
97.5677
96.2548
94.9539
93.6647
92.3865
91.1188
89.8608
88.612
87.372
86.1403
84.9166
83.7004
82.4916
81.2901
80.0955
78.9078
77.7268
76.5526
75.385
74.224
73.0695
71.9217
70.7803
69.6455
68.517
67.3952
66.2798
65.1708
64.0682
62.9722
61.8824
60.7991
59.722
58.6514
57.587
56.5289
55.477
54.4313
53.3917
52.3581
51.3305
50.3091
49.2934
48.2835
47.2794
46.281
45.2881
44.3007
43.3186
42.3419
41.3703
40.4038
39.4421
38.4854
37.5332
36.5856
35.6422
34.7033
33.7683
32.8372
31.9099
30.9862
30.0658
29.1488
28.2347
27.3236
26.4151
25.5092
24.6056
23.7041
22.8046
21.907
21.0108
20.1162
19.2227
18.3303
17.4388
16.548
15.6578
14.7679
13.8782
12.9886
12.0988
11.2088
10.3183
9.42731
8.5356
7.64306
6.74954
5.85494
4.95913
4.06202
3.16345
2.26383
1.36108
0.471636
140.063
135.402
133.483
131.694
129.982
128.285
126.619
124.994
123.402
121.835
120.291
118.767
117.261
115.772
114.298
112.837
111.39
109.954
108.53
107.117
105.715
104.326
102.949
101.584
100.232
98.8936
97.5678
96.2549
94.954
93.6648
92.3866
91.1188
89.8608
88.6121
87.372
86.1404
84.9166
83.7005
82.4917
81.2901
80.0955
78.9078
77.7268
76.5526
75.385
74.224
73.0696
71.9217
70.7803
69.6455
68.517
67.3952
66.2798
65.1708
64.0682
62.9721
61.8824
60.7991
59.722
58.6514
57.587
56.5289
55.4769
54.4313
53.3916
52.3581
51.3305
50.309
49.2933
48.2835
47.2793
46.2809
45.288
44.3006
43.3186
42.3419
41.3703
40.4038
39.4421
38.4853
37.5332
36.5855
35.6422
34.7032
33.7683
32.8372
31.9098
30.9862
30.0658
29.1487
28.2346
27.3235
26.4151
25.5092
24.6055
23.7041
22.8046
21.9069
21.0108
20.1161
19.2227
18.3303
17.4388
16.548
15.6578
14.7679
13.8782
12.9885
12.0988
11.2088
10.3183
9.42729
8.53558
7.64304
6.74952
5.85492
4.95911
4.06201
3.16344
2.26382
1.36106
0.471624
140.043
135.409
133.486
131.697
129.984
128.286
126.621
124.996
123.403
121.836
120.292
118.768
117.262
115.772
114.298
112.838
111.39
109.954
108.53
107.117
105.716
104.326
102.949
101.584
100.232
98.8937
97.568
96.255
94.9541
93.6649
92.3867
91.1189
89.8609
88.6122
87.3721
86.1405
84.9167
83.7005
82.4917
81.2901
80.0955
78.9078
77.7268
76.5527
75.385
74.224
73.0696
71.9217
70.7803
69.6455
68.517
67.3952
66.2797
65.1708
64.0682
62.9721
61.8824
60.7991
59.722
58.6514
57.587
56.5289
55.4769
54.4312
53.3916
52.3581
51.3305
50.309
49.2933
48.2835
47.2793
46.2809
45.288
44.3006
43.3185
42.3419
41.3703
40.4037
39.4421
38.4853
37.5331
36.5855
35.6422
34.7032
33.7682
32.8372
31.9098
30.9861
30.0658
29.1487
28.2346
27.3235
26.415
25.5091
24.6055
23.7041
22.8046
21.9069
21.0107
20.1161
19.2227
18.3303
17.4388
16.548
15.6577
14.7679
13.8781
12.9885
12.0988
11.2087
10.3183
9.42727
8.53556
7.64302
6.7495
5.8549
4.95909
4.06199
3.16342
2.2638
1.36105
0.47161
140.023
135.417
133.488
131.699
129.987
128.288
126.623
124.997
123.404
121.837
120.293
118.768
117.263
115.773
114.299
112.838
111.39
109.955
108.53
107.117
105.716
104.326
102.949
101.584
100.233
98.8939
97.5682
96.2552
94.9543
93.6651
92.3868
91.1191
89.861
88.6123
87.3722
86.1405
84.9167
83.7006
82.4918
81.2902
80.0956
78.9079
77.7269
76.5527
75.3851
74.2241
73.0696
71.9217
70.7803
69.6455
68.517
67.3952
66.2797
65.1708
64.0682
62.9721
61.8824
60.799
59.722
58.6514
57.587
56.5289
55.4769
54.4312
53.3916
52.358
51.3304
50.309
49.2933
48.2834
47.2793
46.2809
45.2879
44.3006
43.3185
42.3418
41.3702
40.4037
39.442
38.4853
37.5331
36.5854
35.6421
34.7031
33.7682
32.8371
31.9098
30.9861
30.0657
29.1486
28.2346
27.3235
26.415
25.5091
24.6054
23.704
22.8045
21.9068
21.0107
20.1161
19.2226
18.3302
17.4387
16.548
15.6577
14.7678
13.8781
12.9885
12.0987
11.2087
10.3182
9.42724
8.53553
7.64299
6.74948
5.85488
4.95907
4.06197
3.1634
2.26378
1.36103
0.47159
140
135.426
133.49
131.701
129.989
128.291
126.625
124.999
123.406
121.838
120.294
118.769
117.263
115.774
114.3
112.839
111.391
109.955
108.531
107.118
105.716
104.327
102.949
101.585
100.233
98.8942
97.5684
96.2554
94.9545
93.6652
92.387
91.1192
89.8612
88.6124
87.3723
86.1406
84.9168
83.7007
82.4918
81.2903
80.0957
78.9079
77.7269
76.5527
75.3851
74.2241
73.0696
71.9218
70.7803
69.6455
68.517
67.3952
66.2797
65.1708
64.0682
62.9721
61.8824
60.799
59.7219
58.6513
57.5869
56.5288
55.4769
54.4312
53.3915
52.358
51.3304
50.3089
49.2932
48.2834
47.2792
46.2808
45.2879
44.3005
43.3184
42.3417
41.3701
40.4036
39.442
38.4852
37.533
36.5854
35.6421
34.7031
33.7681
32.837
31.9097
30.986
30.0657
29.1486
28.2345
27.3234
26.4149
25.509
24.6054
23.704
22.8045
21.9068
21.0107
20.116
19.2226
18.3302
17.4387
16.5479
15.6577
14.7678
13.8781
12.9885
12.0987
11.2087
10.3182
9.42721
8.5355
7.64296
6.74945
5.85486
4.95905
4.06195
3.16338
2.26376
1.36101
0.471564
139.973
135.437
133.491
131.703
129.991
128.293
126.627
125.001
123.407
121.84
120.295
118.771
117.264
115.775
114.3
112.84
111.392
109.956
108.531
107.119
105.717
104.327
102.95
101.585
100.233
98.8945
97.5687
96.2557
94.9547
93.6655
92.3872
91.1194
89.8613
88.6126
87.3725
86.1408
84.917
83.7008
82.492
81.2904
80.0957
78.908
77.727
76.5528
75.3852
74.2242
73.0697
71.9218
70.7804
69.6455
68.517
67.3952
66.2797
65.1708
64.0682
62.9721
61.8823
60.799
59.7219
58.6513
57.5869
56.5288
55.4768
54.4311
53.3915
52.3579
51.3304
50.3089
49.2932
48.2833
47.2791
46.2807
45.2878
44.3004
43.3184
42.3417
41.3701
40.4036
39.4419
38.4851
37.5329
36.5853
35.642
34.703
33.768
32.837
31.9096
30.9859
30.0656
29.1485
28.2344
27.3233
26.4149
25.509
24.6053
23.7039
22.8044
21.9067
21.0106
20.116
19.2225
18.3301
17.4386
16.5479
15.6576
14.7677
13.878
12.9884
12.0986
11.2086
10.3182
9.42718
8.53547
7.64293
6.74942
5.85482
4.95902
4.06192
3.16336
2.26374
1.36099
0.471528
139.943
135.449
133.493
131.705
129.993
128.295
126.629
125.003
123.409
121.842
120.297
118.772
117.266
115.776
114.301
112.841
111.393
109.957
108.532
107.119
105.718
104.328
102.95
101.586
100.234
98.895
97.5691
96.256
94.955
93.6658
92.3875
91.1197
89.8616
88.6128
87.3727
86.141
84.9171
83.701
82.4921
81.2905
80.0959
78.9081
77.7271
76.5529
75.3853
74.2242
73.0697
71.9219
70.7804
69.6455
68.5171
67.3952
66.2798
65.1708
64.0682
62.9721
61.8823
60.799
59.7219
58.6513
57.5869
56.5288
55.4768
54.4311
53.3914
52.3579
51.3303
50.3088
49.2931
48.2833
47.2791
46.2807
45.2878
44.3004
43.3183
42.3416
41.37
40.4035
39.4418
38.485
37.5329
36.5852
35.6419
34.7029
33.7679
32.8369
31.9095
30.9859
30.0655
29.1484
28.2344
27.3233
26.4148
25.5089
24.6053
23.7038
22.8044
21.9067
21.0105
20.1159
19.2225
18.3301
17.4386
16.5478
15.6576
14.7677
13.878
12.9884
12.0986
11.2086
10.3181
9.42713
8.53543
7.64289
6.74938
5.85479
4.95898
4.06189
3.16332
2.2637
1.36096
0.471478
139.907
135.462
133.494
131.706
129.994
128.297
126.631
125.005
123.411
121.843
120.298
118.774
117.267
115.777
114.303
112.842
111.394
109.958
108.533
107.12
105.718
104.329
102.951
101.586
100.234
98.8955
97.5696
96.2565
94.9555
93.6662
92.3878
91.12
89.8619
88.6131
87.3729
86.1412
84.9174
83.7012
82.4923
81.2907
80.0961
78.9083
77.7273
76.553
75.3854
74.2244
73.0698
71.9219
70.7805
69.6456
68.5171
67.3953
66.2798
65.1708
64.0682
62.9721
61.8823
60.799
59.7219
58.6513
57.5869
56.5287
55.4767
54.431
53.3914
52.3578
51.3303
50.3087
49.293
48.2832
47.279
46.2806
45.2877
44.3003
43.3182
42.3415
41.3699
40.4034
39.4417
38.485
37.5328
36.5851
35.6418
34.7028
33.7679
32.8368
31.9095
30.9858
30.0654
29.1484
28.2343
27.3232
26.4147
25.5088
24.6052
23.7038
22.8043
21.9066
21.0105
20.1158
19.2224
18.33
17.4385
16.5477
15.6575
14.7676
13.8779
12.9883
12.0985
11.2085
10.3181
9.42708
8.53538
7.64284
6.74934
5.85474
4.95894
4.06184
3.16328
2.26367
1.36093
0.471407
139.866
135.479
133.495
131.707
129.995
128.298
126.632
125.006
123.413
121.845
120.3
118.775
117.269
115.779
114.304
112.843
111.395
109.959
108.534
107.121
105.719
104.33
102.952
101.587
100.235
98.8962
97.5702
96.257
94.956
93.6667
92.3883
91.1204
89.8623
88.6135
87.3733
86.1416
84.9177
83.7015
82.4926
81.291
80.0963
78.9085
77.7275
76.5532
75.3856
74.2245
73.07
71.9221
70.7806
69.6457
68.5172
67.3954
66.2799
65.1709
64.0683
62.9722
61.8824
60.799
59.7219
58.6513
57.5869
56.5287
55.4767
54.431
53.3914
52.3578
51.3302
50.3087
49.293
48.2831
47.279
46.2805
45.2876
44.3002
43.3181
42.3415
41.3698
40.4033
39.4416
38.4849
37.5327
36.5851
35.6417
34.7028
33.7678
32.8367
31.9094
30.9857
30.0653
29.1483
28.2342
27.3231
26.4146
25.5087
24.6051
23.7037
22.8042
21.9065
21.0104
20.1157
19.2223
18.3299
17.4384
16.5477
15.6574
14.7675
13.8778
12.9882
12.0985
11.2085
10.318
9.42702
8.53532
7.64278
6.74928
5.85469
4.95889
4.06179
3.16323
2.26362
1.36088
0.471309
139.818
135.498
133.496
131.708
129.996
128.299
126.633
125.008
123.415
121.847
120.302
118.777
117.271
115.781
114.306
112.845
111.396
109.96
108.536
107.122
105.721
104.331
102.953
101.588
100.236
98.897
97.571
96.2578
94.9567
93.6673
92.3889
91.121
89.8628
88.614
87.3738
86.142
84.9181
83.7019
82.493
81.2913
80.0966
78.9088
77.7278
76.5535
75.3858
74.2248
73.0702
71.9223
70.7808
69.6459
68.5174
67.3955
66.28
65.171
64.0684
62.9722
61.8825
60.7991
59.722
58.6513
57.5869
56.5287
55.4768
54.431
53.3914
52.3578
51.3302
50.3087
49.293
48.2831
47.2789
46.2805
45.2876
44.3002
43.3181
42.3414
41.3698
40.4032
39.4416
38.4848
37.5326
36.585
35.6416
34.7027
33.7677
32.8366
31.9093
30.9856
30.0652
29.1482
28.2341
27.323
26.4145
25.5086
24.605
23.7036
22.8041
21.9064
21.0103
20.1156
19.2222
18.3298
17.4383
16.5476
15.6573
14.7675
13.8778
12.9882
12.0984
11.2084
10.3179
9.42694
8.53524
7.64271
6.74921
5.85462
4.95882
4.06173
3.16317
2.26355
1.36083
0.471168
139.763
135.52
133.497
131.709
129.997
128.3
126.634
125.009
123.416
121.848
120.304
118.779
117.272
115.783
114.308
112.846
111.398
109.962
108.537
107.124
105.722
104.332
102.954
101.589
100.237
98.898
97.572
96.2587
94.9575
93.6681
92.3897
91.1217
89.8635
88.6146
87.3744
86.1426
84.9187
83.7024
82.4935
81.2918
80.0971
78.9093
77.7282
76.5539
75.3862
74.2251
73.0705
71.9226
70.7811
69.6462
68.5176
67.3957
66.2802
65.1712
64.0685
62.9724
61.8826
60.7992
59.7221
58.6514
57.587
56.5288
55.4768
54.4311
53.3914
52.3578
51.3302
50.3087
49.293
48.2831
47.2789
46.2805
45.2875
44.3001
43.318
42.3413
41.3697
40.4032
39.4415
38.4847
37.5325
36.5849
35.6416
34.7026
33.7676
32.8365
31.9092
30.9855
30.0651
29.1481
28.234
27.3229
26.4144
25.5085
24.6049
23.7035
22.804
21.9063
21.0102
20.1156
19.2221
18.3297
17.4382
16.5475
15.6572
14.7674
13.8777
12.9881
12.0983
11.2083
10.3178
9.42686
8.53516
7.64263
6.74913
5.85454
4.95874
4.06165
3.1631
2.26348
1.36076
0.470971
139.699
135.547
133.499
131.71
129.998
128.3
126.635
125.009
123.416
121.849
120.305
118.78
117.274
115.784
114.309
112.848
111.4
109.963
108.539
107.125
105.723
104.333
102.956
101.591
100.238
98.8993
97.5732
96.2598
94.9586
93.6691
92.3906
91.1226
89.8644
88.6154
87.3751
86.1433
84.9194
83.7031
82.4941
81.2924
80.0976
78.9098
77.7287
76.5544
75.3866
74.2255
73.0709
71.923
70.7815
69.6465
68.518
67.3961
66.2805
65.1715
64.0688
62.9726
61.8828
60.7994
59.7223
58.6516
57.5871
56.529
55.4769
54.4312
53.3915
52.3579
51.3303
50.3088
49.293
48.2831
47.2789
46.2805
45.2876
44.3001
43.318
42.3413
41.3697
40.4031
39.4415
38.4847
37.5325
36.5848
35.6415
34.7025
33.7675
32.8365
31.9091
30.9854
30.0651
29.148
28.2339
27.3228
26.4143
25.5084
24.6048
23.7034
22.8039
21.9062
21.0101
20.1154
19.222
18.3296
17.4381
16.5474
15.6571
14.7673
13.8776
12.988
12.0982
11.2082
10.3177
9.42676
8.53506
7.64253
6.74904
5.85445
4.95865
4.06156
3.16301
2.26338
1.36067
0.470688
139.625
135.577
133.5
131.712
129.999
128.301
126.635
125.01
123.417
121.85
120.305
118.781
117.275
115.785
114.311
112.85
111.401
109.965
108.54
107.127
105.725
104.335
102.957
101.592
100.24
98.9007
97.5745
96.2611
94.9599
93.6703
92.3917
91.1237
89.8654
88.6164
87.3761
86.1442
84.9202
83.7039
82.4949
81.2932
80.0984
78.9105
77.7294
76.555
75.3873
74.2261
73.0715
71.9235
70.782
69.647
68.5185
67.3965
66.281
65.1719
64.0692
62.973
61.8832
60.7997
59.7226
58.6519
57.5874
56.5292
55.4772
54.4314
53.3917
52.3581
51.3305
50.3089
49.2931
48.2832
47.279
46.2806
45.2876
44.3002
43.3181
42.3414
41.3697
40.4032
39.4415
38.4847
37.5325
36.5848
35.6415
34.7025
33.7675
32.8364
31.9091
30.9854
30.065
29.1479
28.2338
27.3227
26.4143
25.5083
24.6047
23.7033
22.8038
21.9061
21.01
20.1154
19.2219
18.3295
17.438
16.5473
15.657
14.7672
13.8775
12.9879
12.0981
11.2081
10.3176
9.42665
8.53496
7.64243
6.74893
5.85434
4.95855
4.06146
3.16291
2.26327
1.36058
0.470289
139.541
135.612
133.502
131.713
130.001
128.302
126.636
125.01
123.417
121.85
120.305
118.781
117.275
115.786
114.311
112.85
111.402
109.966
108.542
107.129
105.727
104.337
102.959
101.594
100.241
98.9023
97.5761
96.2626
94.9613
93.6717
92.3931
91.125
89.8666
88.6176
87.3772
86.1453
84.9213
83.7049
82.4959
81.2941
80.0993
78.9114
77.7302
76.5559
75.3881
74.2269
73.0723
71.9243
70.7827
69.6477
68.5191
67.3971
66.2815
65.1724
64.0697
62.9735
61.8837
60.8002
59.723
58.6523
57.5878
56.5296
55.4775
54.4317
53.392
52.3584
51.3307
50.3092
49.2934
48.2835
47.2792
46.2808
45.2878
44.3004
43.3182
42.3415
41.3698
40.4033
39.4416
38.4848
37.5325
36.5849
35.6415
34.7025
33.7675
32.8364
31.9091
30.9854
30.065
29.1479
28.2338
27.3227
26.4142
25.5083
24.6047
23.7032
22.8037
21.9061
21.0099
20.1153
19.2218
18.3295
17.438
16.5472
15.6569
14.7671
13.8774
12.9878
12.098
11.208
10.3175
9.42655
8.53485
7.64231
6.74882
5.85423
4.95843
4.06134
3.16279
2.26314
1.36046
0.46972
139.446
135.652
133.504
131.715
130.003
128.303
126.637
125.011
123.418
121.85
120.306
118.781
117.275
115.786
114.311
112.851
111.403
109.967
108.543
107.13
105.728
104.338
102.96
101.595
100.243
98.904
97.5778
96.2643
94.9629
93.6732
92.3946
91.1264
89.868
88.6189
87.3786
86.1466
84.9225
83.7061
82.4971
81.2953
80.1004
78.9125
77.7313
76.5569
75.3891
74.2279
73.0732
71.9252
70.7836
69.6485
68.5199
67.3979
66.2823
65.1732
64.0704
62.9742
61.8843
60.8008
59.7237
58.6529
57.5884
56.5301
55.4781
54.4322
53.3925
52.3589
51.3312
50.3096
49.2938
48.2838
47.2796
46.2811
45.2881
44.3007
43.3185
42.3418
41.3701
40.4035
39.4418
38.485
37.5327
36.585
35.6417
34.7027
33.7676
32.8365
31.9092
30.9854
30.0651
29.148
28.2339
27.3227
26.4143
25.5083
24.6047
23.7032
22.8037
21.906
21.0099
20.1153
19.2218
18.3294
17.4379
16.5471
15.6569
14.767
13.8773
12.9877
12.0979
11.2079
10.3174
9.42645
8.53474
7.64221
6.74871
5.85412
4.95832
4.06122
3.16267
2.263
1.36034
0.468917
139.34
135.696
133.507
131.717
130.005
128.305
126.638
125.012
123.418
121.851
120.306
118.782
117.276
115.786
114.312
112.851
111.403
109.967
108.543
107.13
105.728
104.339
102.961
101.596
100.244
98.9053
97.5792
96.2658
94.9645
93.6748
92.3962
91.128
89.8696
88.6205
87.38
86.1481
84.9239
83.7075
82.4984
81.2966
80.1017
78.9137
77.7325
76.5581
75.3903
74.229
73.0743
71.9263
70.7847
69.6496
68.521
67.3989
66.2833
65.1741
64.0714
62.9751
61.8852
60.8017
59.7245
58.6537
57.5892
56.5309
55.4788
54.4329
53.3932
52.3595
51.3318
50.3102
49.2944
48.2844
47.2801
46.2816
45.2886
44.3011
43.3189
42.3422
41.3705
40.4039
39.4421
38.4853
37.533
36.5853
35.642
34.7029
33.7679
32.8368
31.9094
30.9856
30.0653
29.1481
28.234
27.3229
26.4144
25.5084
24.6048
23.7033
22.8038
21.9061
21.01
20.1153
19.2218
18.3294
17.4379
16.5471
15.6569
14.767
13.8773
12.9876
12.0979
11.2078
10.3174
9.42638
8.53467
7.64213
6.74862
5.85403
4.95822
4.06112
3.16256
2.26286
1.36021
0.467782
139.223
135.743
133.51
131.719
130.008
128.307
126.639
125.013
123.419
121.852
120.307
118.782
117.276
115.787
114.312
112.851
111.403
109.967
108.543
107.13
105.729
104.339
102.961
101.597
100.245
98.9059
97.5799
96.2667
94.9655
93.676
92.3974
91.1294
89.871
88.6219
87.3815
86.1496
84.9255
83.709
82.4999
81.2981
80.1032
78.9152
77.7339
76.5595
75.3916
74.2304
73.0757
71.9276
70.7859
69.6509
68.5222
67.4001
66.2845
65.1753
64.0725
62.9762
61.8863
60.8028
59.7255
58.6547
57.5901
56.5318
55.4797
54.4339
53.3941
52.3604
51.3326
50.311
49.2951
48.2852
47.2809
46.2823
45.2893
44.3018
43.3196
42.3428
41.3711
40.4044
39.4427
38.4858
37.5335
36.5858
35.6424
34.7034
33.7683
32.8372
31.9098
30.986
30.0656
29.1484
28.2343
27.3232
26.4147
25.5087
24.605
23.7035
22.804
21.9063
21.0101
20.1154
19.222
18.3296
17.438
16.5472
15.6569
14.767
13.8773
12.9877
12.0979
11.2079
10.3174
9.42638
8.53465
7.6421
6.74858
5.85398
4.95816
4.06105
3.16248
2.26274
1.3601
0.466199
139.096
135.793
133.514
131.721
130.011
128.309
126.641
125.014
123.421
121.853
120.308
118.783
117.277
115.787
114.312
112.852
111.404
109.968
108.543
107.13
105.729
104.339
102.962
101.597
100.245
98.9062
97.5802
96.267
94.9658
93.6764
92.3979
91.1299
89.8717
88.6227
87.3825
86.1506
84.9266
83.7103
82.5012
81.2994
80.1046
78.9167
77.7354
76.561
75.3931
74.2319
73.0772
71.929
70.7874
69.6523
68.5236
67.4015
66.2859
65.1767
64.0739
62.9776
61.8876
60.804
59.7268
58.656
57.5914
56.533
55.4809
54.435
53.3952
52.3615
51.3337
50.312
49.2962
48.2862
47.2818
46.2833
45.2902
44.3027
43.3205
42.3436
41.3719
40.4052
39.4435
38.4866
37.5343
36.5865
35.6431
34.704
33.7689
32.8378
31.9103
30.9866
30.0661
29.149
28.2348
27.3236
26.4151
25.5091
24.6054
23.7039
22.8044
21.9066
21.0105
20.1158
19.2223
18.3298
17.4383
16.5475
15.6572
14.7672
13.8775
12.9878
12.098
11.208
10.3175
9.42647
8.53474
7.64217
6.74863
5.85402
4.95819
4.06106
3.16248
2.26267
1.36002
0.464009
138.962
135.844
133.519
131.722
130.014
128.312
126.643
125.016
123.422
121.854
120.309
118.784
117.278
115.788
114.313
112.852
111.404
109.968
108.544
107.131
105.729
104.34
102.962
101.597
100.245
98.9066
97.5806
96.2673
94.9662
93.6767
92.3982
91.1301
89.8719
88.6229
87.3827
86.1509
84.9269
83.7107
82.5017
81.3
80.1053
78.9175
77.7364
76.5621
75.3943
74.2331
73.0785
71.9304
70.7889
69.6538
68.5251
67.4031
66.2874
65.1782
64.0754
62.9791
61.8891
60.8055
59.7282
58.6574
57.5928
56.5344
55.4823
54.4363
53.3965
52.3628
51.335
50.3133
49.2974
48.2874
47.2831
46.2845
45.2914
44.3038
43.3216
42.3447
41.373
40.4063
39.4445
38.4876
37.5352
36.5875
35.644
34.7049
33.7698
32.8386
31.9112
30.9873
30.0669
29.1497
28.2355
27.3243
26.4158
25.5097
24.606
23.7045
22.805
21.9072
21.011
20.1163
19.2227
18.3303
17.4387
16.5479
15.6576
14.7676
13.8779
12.9882
12.0984
11.2083
10.3178
9.42671
8.53496
7.64237
6.74881
5.85418
4.95833
4.06118
3.16258
2.2627
1.36001
0.461047
138.828
135.894
133.525
131.723
130.017
128.314
126.645
125.017
123.423
121.855
120.31
118.785
117.279
115.789
114.314
112.853
111.405
109.969
108.544
107.131
105.73
104.34
102.963
101.598
100.246
98.9072
97.5811
96.2678
94.9666
93.6771
92.3985
91.1305
89.8722
88.6232
87.3829
86.1511
84.9271
83.7108
82.5019
81.3002
80.1055
78.9177
77.7366
76.5623
75.3946
74.2335
73.079
71.931
70.7895
69.6545
68.526
67.4041
66.2885
65.1794
64.0767
62.9804
61.8905
60.807
59.7298
58.6589
57.5943
56.536
55.4838
54.4379
53.3981
52.3643
51.3365
50.3148
49.2989
48.2888
47.2845
46.2858
45.2927
44.3052
43.3229
42.346
41.3743
40.4075
39.4457
38.4888
37.5364
36.5886
35.6452
34.706
33.7709
32.8397
31.9122
30.9884
30.0679
29.1507
28.2365
27.3253
26.4167
25.5106
24.6069
23.7054
22.8058
21.908
21.0117
20.117
19.2234
18.331
17.4394
16.5485
15.6582
14.7682
13.8784
12.9887
12.0989
11.2088
10.3182
9.42715
8.53537
7.64275
6.74917
5.85451
4.95864
4.06147
3.16285
2.26287
1.36009
0.457158
138.7
135.939
133.532
131.724
130.02
128.317
126.646
125.019
123.425
121.856
120.311
118.786
117.279
115.789
114.315
112.854
111.405
109.969
108.545
107.132
105.73
104.341
102.963
101.599
100.247
98.9078
97.5817
96.2684
94.9671
93.6776
92.399
91.1309
89.8726
88.6235
87.3833
86.1514
84.9274
83.7111
82.5021
81.3004
80.1057
78.9179
77.7368
76.5625
75.3948
74.2337
73.0791
71.9312
70.7897
69.6547
68.5262
67.4043
66.2887
65.1797
64.077
62.9808
61.891
60.8075
59.7304
58.6596
57.5952
56.5369
55.4849
54.439
53.3993
52.3656
51.3379
50.3162
49.3004
48.2903
47.286
46.2874
45.2943
44.3067
43.3245
42.3476
41.3758
40.4091
39.4472
38.4902
37.5379
36.5901
35.6466
34.7074
33.7722
32.841
31.9135
30.9896
30.0691
29.1519
28.2377
27.3264
26.4178
25.5117
24.608
23.7064
22.8068
21.909
21.0127
20.1179
19.2244
18.3319
17.4403
16.5494
15.659
14.769
13.8792
12.9895
12.0996
11.2095
10.3189
9.4278
8.53599
7.64335
6.74975
5.85506
4.95917
4.06197
3.16331
2.26323
1.36029
0.452324
138.592
135.975
133.539
131.724
130.023
128.319
126.648
125.02
123.426
121.857
120.312
118.787
117.28
115.79
114.315
112.854
111.406
109.97
108.545
107.132
105.731
104.341
102.964
101.599
100.247
98.9083
97.5823
96.2689
94.9677
93.678
92.3994
91.1313
89.873
88.6239
87.3836
86.1517
84.9277
83.7114
82.5024
81.3007
80.106
78.9181
77.737
76.5627
75.395
74.2339
73.0793
71.9314
70.7899
69.6549
68.5264
67.4044
66.2889
65.1798
64.0772
62.981
61.8911
60.8077
59.7305
58.6598
57.5953
56.5371
55.485
54.4392
53.3995
52.3658
51.3382
50.3165
49.3008
48.2908
47.2866
46.288
45.295
44.3075
43.3254
42.3485
41.3768
40.4102
39.4484
38.4915
37.5392
36.5914
35.648
34.7088
33.7737
32.8425
31.915
30.9911
30.0706
29.1534
28.2392
27.3279
26.4193
25.5132
24.6094
23.7078
22.8081
21.9103
21.014
20.1192
19.2256
18.333
17.4414
16.5504
15.6601
14.77
13.8802
12.9904
12.1005
11.2104
10.3198
9.42866
8.53683
7.64416
6.75053
5.85582
4.9599
4.06268
3.164
2.26381
1.36066
0.446956
138.524
135.997
133.544
131.724
130.025
128.321
126.649
125.021
123.426
121.858
120.312
118.787
117.281
115.791
114.316
112.855
111.406
109.97
108.546
107.133
105.731
104.342
102.964
101.6
100.248
98.9087
97.5827
96.2693
94.968
93.6784
92.3998
91.1316
89.8733
88.6242
87.3839
86.1519
84.9279
83.7116
82.5026
81.3009
80.1062
78.9183
77.7372
76.5629
75.3952
74.2341
73.0795
71.9315
70.7901
69.6551
68.5266
67.4046
66.2891
65.18
64.0773
62.9811
61.8913
60.8078
59.7307
58.6599
57.5955
56.5372
55.4852
54.4393
53.3996
52.366
51.3383
50.3167
49.3009
48.2909
47.2867
46.2881
45.2951
44.3076
43.3254
42.3486
41.3769
40.4103
39.4485
38.4916
37.5394
36.5916
35.6482
34.7091
33.7741
32.8429
31.9155
30.9916
30.0712
29.154
28.2398
27.3286
26.42
25.514
24.6103
23.7087
22.8091
21.9113
21.0151
20.1203
19.2267
18.3342
17.4425
16.5516
15.6612
14.7712
13.8814
12.9916
12.1017
11.2115
10.3209
9.42977
8.53792
7.64524
6.75159
5.85685
4.96091
4.06366
3.16495
2.26468
1.36133
0.442772
138.524
135.997
133.544
131.724
130.025
128.321
126.649
125.021
123.426
121.858
120.312
118.787
117.281
115.791
114.316
112.855
111.406
109.97
108.546
107.133
105.731
104.342
102.964
101.6
100.248
98.9087
97.5827
96.2693
94.968
93.6784
92.3998
91.1316
89.8733
88.6242
87.3839
86.1519
84.9279
83.7116
82.5026
81.3009
80.1062
78.9183
77.7372
76.5629
75.3952
74.2341
73.0795
71.9315
70.7901
69.6551
68.5266
67.4046
66.2891
65.18
64.0773