/*--------------------------------*- C++ -*----------------------------------*\
  =========                 |
  \\      /  F ield         | OpenFOAM: The Open Source CFD Toolbox
   \\    /   O peration     | Website:  https://openfoam.org
    \\  /    A nd           | Version:  8
     \\/     M anipulation  |
\*---------------------------------------------------------------------------*/
FoamFile
{
    version     2.0;
    format      ascii;
    class       surfaceScalarField;
    location    "450";
    object      phi;
}
// * * * * * * * * * * * * * * * * * * * * * * * * * * * * * * * * * * * * * //

dimensions      [0 3 -1 0 0 0 0];

internalField   nonuniform List<scalar> 
14458
(
0.00222126
0.00139905
0.00205682
0.000164434
0.00198942
6.73997e-05
0.00194726
4.21572e-05
0.00191671
3.0543e-05
0.00189296
2.37441e-05
0.00187368
1.92711e-05
0.00185758
1.6096e-05
0.00184386
1.37217e-05
0.00183197
1.1884e-05
0.00182154
1.0417e-05
0.00181231
9.2283e-06
0.00180406
8.24318e-06
0.00179664
7.4154e-06
0.00178993
6.7072e-06
0.00178382
6.10306e-06
0.00177824
5.57992e-06
0.00177311
5.12435e-06
0.00176838
4.71473e-06
0.00176402
4.35967e-06
0.00175997
4.03948e-06
0.00175622
3.7474e-06
0.00175274
3.47018e-06
0.00174952
3.218e-06
0.00174654
2.98028e-06
0.00174378
2.75693e-06
0.00174124
2.5338e-06
0.00173889
2.33892e-06
0.00173673
2.15706e-06
0.00173474
1.98949e-06
0.0017329
1.82582e-06
0.00173121
1.68503e-06
0.00172966
1.55516e-06
0.00172822
1.43682e-06
0.0017269
1.31135e-06
0.00172568
1.21292e-06
0.00172455
1.12139e-06
0.00172352
1.03789e-06
0.00172256
9.48822e-07
0.00172168
8.77969e-07
0.00172087
8.10862e-07
0.00172012
7.49109e-07
0.00171944
6.71224e-07
0.00171882
6.17937e-07
0.00171825
5.66447e-07
0.00171773
5.19045e-07
0.00171726
4.6067e-07
0.00171684
4.18954e-07
0.00171647
3.77913e-07
0.00171613
3.40021e-07
0.00171584
2.8187e-07
0.00171559
2.48309e-07
0.00171537
2.14461e-07
0.00171519
1.83341e-07
0.00171505
1.38455e-07
0.00171494
1.10475e-07
0.00171486
8.17899e-08
0.00171481
5.54525e-08
0.0017148
6.47813e-09
0.00171481
-1.7112e-08
0.00171485
-4.17917e-08
0.00171492
-6.41012e-08
0.00171502
-1.01241e-07
0.00171514
-1.21457e-07
0.00171529
-1.43098e-07
0.00171546
-1.62691e-07
0.00171566
-2.0529e-07
0.00171588
-2.22811e-07
0.00171612
-2.42022e-07
0.00171639
-2.58998e-07
0.00171668
-2.91239e-07
0.00171699
-3.06625e-07
0.00171732
-3.23752e-07
0.00171767
-3.38872e-07
0.00171804
-3.76684e-07
0.00171843
-3.90005e-07
0.00171884
-4.05139e-07
0.00171927
-4.18012e-07
0.00171971
-4.45305e-07
0.00172017
-4.56687e-07
0.00172065
-4.69757e-07
0.00172114
-4.80766e-07
0.00172165
-5.12579e-07
0.00172218
-5.21836e-07
0.00172271
-5.32733e-07
0.00172326
-5.41304e-07
0.00172383
-5.62879e-07
0.0017244
-5.69881e-07
0.00172499
-5.7827e-07
0.00172559
-5.84518e-07
0.00172619
-6.08918e-07
0.00172681
-6.13348e-07
0.00172743
-6.19008e-07
0.00172806
-6.22328e-07
0.0017287
-6.36063e-07
0.00172934
-6.37625e-07
0.00172999
-6.40063e-07
0.00173064
-6.40334e-07
0.0017313
-6.5412e-07
0.00173195
-6.52446e-07
0.00173261
-6.51431e-07
0.00173327
-6.48151e-07
0.00173392
-6.52116e-07
0.00173458
-6.46906e-07
0.00173523
-6.41969e-07
0.00173587
-6.3503e-07
0.00173651
-6.36144e-07
0.00173715
-6.27419e-07
0.00173777
-6.18845e-07
0.00173839
-6.0848e-07
0.001739
-6.01454e-07
0.0017396
-5.8962e-07
0.00174018
-5.77791e-07
0.00174076
-5.64638e-07
0.00174132
-5.52804e-07
0.00174186
-5.38778e-07
0.0017424
-5.25025e-07
0.00174291
-5.10135e-07
0.00174342
-4.94192e-07
0.0017439
-4.72077e-07
0.00174436
-4.64767e-07
-2.43511e-07
0.00311152
0.00259572
0.00288393
0.000392013
0.00278399
0.000167344
0.00272314
0.000102998
0.0026798
7.38838e-05
0.0026464
5.71387e-05
0.00261943
4.62396e-05
0.00259697
3.85497e-05
0.00257787
3.28218e-05
0.00256135
2.83996e-05
0.00254689
2.48803e-05
0.00253408
2.2029e-05
0.00252265
1.96689e-05
0.00251238
1.7687e-05
0.00250309
1.5996e-05
0.00249464
1.4551e-05
0.00248691
1.33004e-05
0.00247983
1.22104e-05
0.0024733
1.12372e-05
0.00246727
1.03855e-05
0.00246169
9.61645e-06
0.00245652
8.91314e-06
0.00245174
8.25072e-06
0.00244731
7.64238e-06
0.00244322
7.06955e-06
0.00243944
6.53124e-06
0.00243597
6.00573e-06
0.00243276
5.53721e-06
0.00242982
5.10103e-06
0.00242711
4.69895e-06
0.00242461
4.31456e-06
0.00242232
3.9771e-06
0.00242021
3.66649e-06
0.00241826
3.38272e-06
0.00241647
3.09615e-06
0.00241482
2.85969e-06
0.0024133
2.64021e-06
0.0024119
2.43891e-06
0.00241061
2.23409e-06
0.00240942
2.06258e-06
0.00240833
1.90074e-06
0.00240733
1.75065e-06
0.00240642
1.57866e-06
0.00240558
1.44843e-06
0.00240483
1.32329e-06
0.00240414
1.20675e-06
0.00240352
1.07527e-06
0.00240297
9.72045e-07
0.00240248
8.71474e-07
0.00240204
7.77243e-07
0.00240167
6.52915e-07
0.00240134
5.68797e-07
0.00240107
4.85118e-07
0.00240085
4.06635e-07
0.00240068
3.07788e-07
0.00240055
2.3667e-07
0.00240047
1.65187e-07
0.00240043
9.79287e-08
0.00240044
-3.71975e-09
0.00240048
-6.43455e-08
0.00240057
-1.26323e-07
0.00240069
-1.84138e-07
0.00240085
-2.64389e-07
0.00240105
-3.17256e-07
0.00240128
-3.7199e-07
0.00240154
-4.23264e-07
0.00240185
-5.09849e-07
0.00240218
-5.56183e-07
0.00240254
-6.04996e-07
0.00240294
-6.50065e-07
0.00240336
-7.18416e-07
0.00240382
-7.59621e-07
0.0024043
-8.03288e-07
0.00240481
-8.43642e-07
0.00240535
-9.18897e-07
0.00240592
-9.54862e-07
0.00240651
-9.93496e-07
0.00240712
-1.02832e-06
0.00240776
-1.08511e-06
0.00240842
-1.11623e-06
0.00240911
-1.14964e-06
0.00240981
-1.17955e-06
0.00241054
-1.24139e-06
0.00241128
-1.26695e-06
0.00241205
-1.29476e-06
0.00241283
-1.31852e-06
0.00241363
-1.36196e-06
0.00241445
-1.38177e-06
0.00241528
-1.40325e-06
0.00241612
-1.42088e-06
0.00241697
-1.46624e-06
0.00241784
-1.47935e-06
0.00241872
-1.49389e-06
0.00241961
-1.50414e-06
0.0024205
-1.52991e-06
0.0024214
-1.53575e-06
0.00242231
-1.54226e-06
0.00242322
-1.5446e-06
0.00242413
-1.56732e-06
0.00242505
-1.56485e-06
0.00242596
-1.56269e-06
0.00242687
-1.55611e-06
0.00242778
-1.56001e-06
0.00242869
-1.54864e-06
0.00242959
-1.53684e-06
0.00243048
-1.52096e-06
0.00243136
-1.51698e-06
0.00243224
-1.49674e-06
0.0024331
-1.47593e-06
0.00243395
-1.45152e-06
0.00243478
-1.43167e-06
0.0024356
-1.40362e-06
0.0024364
-1.37471e-06
0.00243718
-1.34323e-06
0.00243795
-1.31379e-06
0.00243869
-1.28009e-06
0.00243942
-1.2459e-06
0.00244012
-1.2099e-06
0.00244081
-1.17251e-06
0.00244146
-1.11835e-06
0.00244209
-1.08903e-06
-5.59709e-07
0.00403426
0.0036882
0.00373892
0.000687354
0.00360103
0.000305234
0.00351841
0.000185619
0.00346051
0.000131782
0.00341635
0.000101292
0.00338092
8.16683e-05
0.00335155
6.79225e-05
0.00332663
5.77332e-05
0.00330514
4.98925e-05
0.00328634
4.36725e-05
0.00326973
3.8639e-05
0.00325492
3.44788e-05
0.00324161
3.09893e-05
0.00322959
2.80182e-05
0.00321866
2.5478e-05
0.00320868
2.328e-05
0.00319953
2.13633e-05
0.0031911
1.96578e-05
0.00318333
1.81558e-05
0.00317615
1.67972e-05
0.0031695
1.55526e-05
0.00316337
1.43852e-05
0.0031577
1.33078e-05
0.00315247
1.22947e-05
0.00314766
1.13439e-05
0.00314323
1.04289e-05
0.00313916
9.60458e-06
0.00313542
8.839e-06
0.00313199
8.13393e-06
0.00312883
7.46845e-06
0.00312593
6.87783e-06
0.00312326
6.33497e-06
0.0031208
5.83859e-06
0.00311854
5.35119e-06
0.00311646
4.93709e-06
0.00311455
4.553e-06
0.00311279
4.19976e-06
0.00311117
3.84974e-06
0.00310968
3.54792e-06
0.00310832
3.26352e-06
0.00310708
2.9988e-06
0.00310594
2.71193e-06
0.0031049
2.48136e-06
0.00310396
2.26031e-06
0.00310312
2.05333e-06
0.00310236
1.83105e-06
0.00310168
1.64696e-06
0.00310109
1.46833e-06
0.00310057
1.29987e-06
0.00310012
1.0966e-06
0.00309974
9.45465e-07
0.00309943
7.96054e-07
0.00309918
6.54702e-07
0.003099
4.89802e-07
0.00309888
3.6112e-07
0.00309881
2.329e-07
0.0030988
1.11056e-07
0.00309884
-5.17191e-08
0.00309894
-1.62004e-07
0.00309909
-2.73596e-07
0.00309928
-3.79087e-07
0.00309953
-5.11279e-07
0.00309982
-6.08182e-07
0.00310016
-7.07036e-07
0.00310054
-8.00933e-07
0.00310096
-9.37404e-07
0.00310143
-1.0227e-06
0.00310194
-1.11099e-06
0.00310248
-1.19397e-06
0.00310307
-1.30494e-06
0.00310369
-1.38108e-06
0.00310435
-1.46007e-06
0.00310505
-1.53436e-06
0.00310578
-1.65082e-06
0.00310654
-1.71735e-06
0.00310733
-1.7871e-06
0.00310816
-1.85142e-06
0.00310902
-1.94208e-06
0.0031099
-1.99973e-06
0.00311082
-2.0599e-06
0.00311176
-2.11495e-06
0.00311272
-2.20846e-06
0.00311371
-2.25577e-06
0.00311472
-2.30557e-06
0.00311576
-2.3494e-06
0.00311681
-2.41666e-06
0.00311789
-2.45337e-06
0.00311898
-2.49157e-06
0.00312009
-2.52393e-06
0.00312121
-2.58945e-06
0.00312234
-2.61379e-06
0.00312349
-2.63931e-06
0.00312465
-2.65826e-06
0.00312581
-2.69532e-06
0.00312699
-2.70637e-06
0.00312817
-2.71737e-06
0.00312935
-2.72178e-06
0.00313053
-2.75012e-06
0.00313171
-2.74606e-06
0.00313289
-2.74148e-06
0.00313407
-2.72989e-06
0.00313524
-2.73004e-06
0.00313641
-2.71003e-06
0.00313756
-2.6884e-06
0.0031387
-2.66013e-06
0.00313983
-2.64533e-06
0.00314095
-2.60954e-06
0.00314205
-2.57217e-06
0.00314313
-2.52889e-06
0.00314419
-2.49023e-06
0.00314523
-2.44067e-06
0.00314625
-2.38941e-06
0.00314724
-2.3337e-06
0.00314821
-2.27938e-06
0.00314915
-2.21986e-06
0.00315007
-2.15978e-06
0.00315096
-2.09615e-06
0.00315182
-2.03026e-06
0.00315264
-1.93428e-06
0.00315344
-1.89313e-06
-9.76149e-07
0.00509521
0.00469383
0.00472975
0.00105282
0.00454516
0.000489817
0.00443475
0.000296032
0.00435841
0.000208111
0.00430083
0.000158878
0.00425496
0.000127533
0.00421713
0.000105751
0.00418516
8.96975e-05
0.00415766
7.73938e-05
0.00413366
6.7667e-05
0.00411249
5.9811e-05
0.00409364
5.33307e-05
0.00407672
4.79032e-05
0.00406145
4.32904e-05
0.00404757
3.93472e-05
0.00403492
3.59362e-05
0.00402332
3.296e-05
0.00401266
3.03149e-05
0.00400284
2.79752e-05
0.00399378
2.58553e-05
0.00398542
2.39102e-05
0.00397771
2.20902e-05
0.00397061
2.04069e-05
0.00396408
1.88271e-05
0.00395807
1.73478e-05
0.00395256
1.59376e-05
0.0039475
1.46618e-05
0.00394286
1.34801e-05
0.0039386
1.23937e-05
0.00393469
1.13762e-05
0.00393109
1.04684e-05
0.00392779
9.63487e-06
0.00392476
8.87259e-06
0.00392197
8.13555e-06
0.00391941
7.499e-06
0.00391705
6.90865e-06
0.00391489
6.36484e-06
0.0039129
5.83364e-06
0.00391108
5.36788e-06
0.00390941
4.92922e-06
0.00390789
4.5201e-06
0.00390651
4.09032e-06
0.00390526
3.7329e-06
0.00390413
3.39061e-06
0.00390311
3.06917e-06
0.00390221
2.73329e-06
0.00390141
2.44657e-06
0.00390071
2.16896e-06
0.0039001
1.90631e-06
0.00389959
1.60504e-06
0.00389916
1.36856e-06
0.00389882
1.13565e-06
0.00389857
9.14369e-07
0.00389839
6.67044e-07
0.00389828
4.64999e-07
0.00389825
2.64701e-07
0.00389829
7.35592e-08
0.0038984
-1.64424e-07
0.00389858
-3.37996e-07
0.00389882
-5.12573e-07
0.00389912
-6.78665e-07
0.00389948
-8.7521e-07
0.0038999
-1.02817e-06
0.00390038
-1.1829e-06
0.00390091
-1.33077e-06
0.0039015
-1.528e-06
0.00390214
-1.66276e-06
0.00390283
-1.80082e-06
0.00390357
-1.93166e-06
0.00390436
-2.09474e-06
0.00390519
-2.21496e-06
0.00390607
-2.33816e-06
0.003907
-2.45491e-06
0.00390797
-2.62063e-06
0.00390897
-2.72542e-06
0.00391002
-2.83374e-06
0.00391111
-2.93463e-06
0.00391223
-3.06577e-06
0.00391339
-3.15618e-06
0.00391458
-3.24903e-06
0.00391581
-3.33472e-06
0.00391706
-3.46494e-06
0.00391834
-3.53862e-06
0.00391966
-3.61472e-06
0.00392099
-3.6825e-06
0.00392235
-3.77694e-06
0.00392373
-3.83354e-06
0.00392514
-3.89105e-06
0.00392656
-3.9402e-06
0.00392799
-4.02749e-06
0.00392945
-4.06424e-06
0.00393091
-4.10154e-06
0.00393238
-4.12946e-06
0.00393387
-4.17757e-06
0.00393536
-4.19322e-06
0.00393685
-4.20762e-06
0.00393834
-4.21239e-06
0.00393984
-4.24426e-06
0.00394133
-4.23613e-06
0.00394282
-4.22622e-06
0.0039443
-4.20618e-06
0.00394577
-4.19869e-06
0.00394722
-4.16584e-06
0.00394867
-4.12975e-06
0.0039501
-4.08388e-06
0.00395151
-4.0529e-06
0.00395289
-3.99593e-06
0.00395426
-3.93598e-06
0.0039556
-3.86745e-06
0.00395692
-3.80346e-06
0.00395821
-3.72571e-06
0.00395946
-3.64484e-06
0.00396069
-3.55761e-06
0.00396189
-3.47181e-06
0.00396305
-3.37919e-06
0.00396418
-3.28503e-06
0.00396527
-3.18617e-06
0.00396633
-3.08494e-06
0.00396733
-2.93602e-06
0.00396831
-2.86464e-06
-1.46942e-06
0.00634387
0.00560999
0.00590982
0.00148687
0.00566913
0.000730501
0.00552327
0.000441892
0.00542325
0.000308135
0.0053485
0.000233622
0.00528942
0.000186613
0.00524096
0.000154207
0.00520019
0.000130471
0.00516522
0.000112362
0.00513478
9.81004e-05
0.00510798
8.66107e-05
0.00508416
7.71546e-05
0.00506281
6.92491e-05
0.00504355
6.25431e-05
0.00502609
5.6813e-05
0.00501016
5.1858e-05
0.00499559
4.75318e-05
0.00498221
4.3689e-05
0.00496991
4.02768e-05
0.00495858
3.71798e-05
0.00494816
3.43348e-05
0.00493857
3.16782e-05
0.00492975
2.9219e-05
0.00492166
2.69168e-05
0.00491424
2.47671e-05
0.00490744
2.27349e-05
0.00490121
2.08924e-05
0.0048955
1.91908e-05
0.00489026
1.76297e-05
0.00488546
1.61769e-05
0.00488105
1.48757e-05
0.004877
1.36821e-05
0.00487329
1.25905e-05
0.00486987
1.15469e-05
0.00486673
1.0634e-05
0.00486385
9.78718e-06
0.00486121
9.00607e-06
0.00485879
8.25084e-06
0.00485658
7.58012e-06
0.00485456
6.94842e-06
0.00485272
6.35844e-06
0.00485106
5.75293e-06
0.00484955
5.23599e-06
0.0048482
4.74123e-06
0.004847
4.27577e-06
0.00484593
3.7991e-06
0.00484499
3.38284e-06
0.00484418
2.98032e-06
0.00484349
2.59886e-06
0.00484291
2.1778e-06
0.00484245
1.83337e-06
0.00484209
1.49502e-06
0.00484183
1.17283e-06
0.00484167
8.23971e-07
0.00484161
5.29131e-07
0.00484164
2.37858e-07
0.00484175
-4.05134e-08
0.00484195
-3.6907e-07
0.00484224
-6.22676e-07
0.0048426
-8.76628e-07
0.00484304
-1.11903e-06
0.00484356
-1.39398e-06
0.00484415
-1.61762e-06
0.00484481
-1.84254e-06
0.00484554
-2.05804e-06
0.00484634
-2.32731e-06
0.0048472
-2.52419e-06
0.00484812
-2.72446e-06
0.00484911
-2.91502e-06
0.00485016
-3.14046e-06
0.00485126
-3.31566e-06
0.00485241
-3.49369e-06
0.00485363
-3.66288e-06
0.00485489
-3.88549e-06
0.0048562
-4.03753e-06
0.00485756
-4.19317e-06
0.00485897
-4.33876e-06
0.00486042
-4.51696e-06
0.00486191
-4.64727e-06
0.00486344
-4.7796e-06
0.00486502
-4.90202e-06
0.00486662
-5.07279e-06
0.00486826
-5.17792e-06
0.00486993
-5.28509e-06
0.00487164
-5.38088e-06
0.00487336
-5.50507e-06
0.00487512
-5.58457e-06
0.00487689
-5.66402e-06
0.00487869
-5.73178e-06
0.0048805
-5.84058e-06
0.00488233
-5.89058e-06
0.00488417
-5.94009e-06
0.00488602
-5.97668e-06
0.00488787
-6.03419e-06
0.00488974
-6.05308e-06
0.0048916
-6.0691e-06
0.00489346
-6.07164e-06
0.00489532
-6.10271e-06
0.00489717
-6.08707e-06
0.00489902
-6.06801e-06
0.00490085
-6.03496e-06
0.00490266
-6.01423e-06
0.00490446
-5.96321e-06
0.00490624
-5.907e-06
0.004908
-5.83712e-06
0.00490973
-5.78236e-06
0.00491143
-5.69739e-06
0.00491311
-5.60787e-06
0.00491475
-5.50651e-06
0.00491636
-5.40895e-06
0.00491793
-5.2951e-06
0.00491946
-5.1769e-06
0.00492096
-5.0497e-06
0.00492241
-4.92291e-06
0.00492382
-4.78875e-06
0.00492519
-4.65288e-06
0.00492652
-4.51009e-06
0.0049278
-4.36426e-06
0.00492902
-4.14991e-06
0.00493021
-4.05743e-06
-2.08618e-06
0.00782498
0.00642446
0.00732969
0.00198216
0.00702383
0.00103636
0.00683327
0.000632445
0.00670272
0.000438682
0.00660586
0.000330484
0.00652983
0.000262641
0.00646782
0.00021621
0.00641588
0.00018241
0.00637149
0.00015675
0.00633297
0.000136625
0.00629912
0.000120458
0.00626908
0.000107188
0.00624221
9.61169e-05
0.00621801
8.6744e-05
0.00619608
7.87414e-05
0.00617611
7.18238e-05
0.00615786
6.5781e-05
0.00614114
6.04126e-05
0.00612578
5.56313e-05
0.00611167
5.12848e-05
0.00609872
4.72887e-05
0.00608683
4.35637e-05
0.00607593
4.01165e-05
0.00606595
3.68987e-05
0.00605681
3.39044e-05
0.00604845
3.1093e-05
0.0060408
2.85441e-05
0.00603379
2.61976e-05
0.00602737
2.40498e-05
0.00602148
2.20605e-05
0.00601608
2.02748e-05
0.00601112
1.86379e-05
0.00600657
1.71407e-05
0.0060024
1.57196e-05
0.00599856
1.44654e-05
0.00599505
1.33012e-05
0.00599183
1.22261e-05
0.00598888
1.11931e-05
0.0059862
1.02673e-05
0.00598375
9.39509e-06
0.00598153
8.57966e-06
0.00597952
7.75545e-06
0.00597772
7.039e-06
0.00597611
6.35352e-06
0.00597467
5.70788e-06
0.00597342
5.05546e-06
0.00597232
4.47685e-06
0.00597138
3.91788e-06
0.0059706
3.38776e-06
0.00596996
2.81752e-06
0.00596945
2.33782e-06
0.00596908
1.8676e-06
0.00596883
1.41936e-06
0.00596871
9.4425e-07
0.0059687
5.33443e-07
0.00596881
1.28824e-07
0.00596904
-2.57946e-07
0.00596936
-6.98381e-07
0.00596979
-1.05168e-06
0.00597032
-1.4042e-06
0.00597094
-1.74119e-06
0.00597166
-2.11269e-06
0.00597246
-2.42391e-06
0.00597336
-2.7355e-06
0.00597434
-3.03424e-06
0.0059754
-3.39139e-06
0.00597654
-3.66475e-06
0.00597776
-3.94127e-06
0.00597905
-4.20478e-06
0.00598041
-4.50581e-06
0.00598185
-4.74801e-06
0.00598335
-4.99253e-06
0.00598491
-5.22497e-06
0.00598654
-5.51558e-06
0.00598823
-5.72448e-06
0.00598997
-5.93673e-06
0.00599177
-6.1355e-06
0.00599362
-6.36917e-06
0.00599553
-6.54661e-06
0.00599747
-6.72523e-06
0.00599947
-6.89032e-06
0.0060015
-7.10777e-06
0.00600357
-7.24907e-06
0.00600568
-7.39159e-06
0.00600782
-7.51886e-06
0.00600999
-7.67611e-06
0.00601219
-7.78071e-06
0.00601441
-7.88378e-06
0.00601665
-7.97093e-06
0.00601892
-8.10214e-06
0.00602119
-8.16499e-06
0.00602348
-8.22586e-06
0.00602577
-8.26943e-06
0.00602807
-8.33444e-06
0.00603038
-8.35371e-06
0.00603268
-8.36798e-06
0.00603497
-8.36403e-06
0.00603726
-8.39013e-06
0.00603954
-8.3618e-06
0.0060418
-8.32801e-06
0.00604404
-8.27565e-06
0.00604626
-8.23523e-06
0.00604846
-8.15894e-06
0.00605063
-8.07509e-06
0.00605277
-7.97304e-06
0.00605488
-7.8865e-06
0.00605695
-7.76495e-06
0.00605898
-7.63697e-06
0.00606097
-7.49351e-06
0.00606291
-7.35319e-06
0.00606482
-7.19372e-06
0.00606667
-7.02814e-06
0.00606847
-6.85095e-06
0.00607023
-6.67405e-06
0.00607193
-6.48841e-06
0.00607358
-6.29999e-06
0.00607518
-6.1031e-06
0.00607672
-5.90347e-06
0.00607818
-5.60906e-06
0.0060796
-5.47364e-06
-2.80718e-06
0.00958315
0.00712228
0.00904307
0.00252224
0.0086654
0.00141403
0.00841974
0.000878104
0.00825013
0.000608283
0.00812471
0.000455908
0.00802681
0.000360537
0.0079474
0.000295623
0.00788117
0.000248637
0.00782478
0.000213141
0.00777598
0.000185419
0.00773321
0.000163222
0.00769535
0.000145054
0.00766153
0.000129933
0.00763111
0.000117158
0.00760359
0.000106261
0.00757857
9.6847e-05
0.00755573
8.86201e-05
0.00753483
8.13101e-05
0.00751567
7.47822e-05
0.00749812
6.88405e-05
0.00748203
6.33754e-05
0.0074673
5.82902e-05
0.00745383
5.35886e-05
0.00744151
4.92137e-05
0.00743026
4.5158e-05
0.00741997
4.1375e-05
0.00741057
3.79475e-05
0.00740196
3.48027e-05
0.00739408
3.19313e-05
0.00738685
2.9283e-05
0.00738023
2.69014e-05
0.00737414
2.47193e-05
0.00736856
2.27232e-05
0.00736344
2.08392e-05
0.00735874
1.9163e-05
0.00735443
1.76058e-05
0.0073505
1.61657e-05
0.0073469
1.47888e-05
0.00734362
1.3545e-05
0.00734064
1.23725e-05
0.00733795
1.12752e-05
0.00733552
1.01801e-05
0.00733334
9.21336e-06
0.00733141
8.28866e-06
0.0073297
7.41692e-06
0.00732821
6.54574e-06
0.00732692
5.76307e-06
0.00732583
5.00763e-06
0.00732493
4.29091e-06
0.00732421
3.53668e-06
0.00732366
2.88709e-06
0.00732327
2.25163e-06
0.00732305
1.64561e-06
0.00732298
1.01457e-06
0.00732305
4.58609e-07
0.00732327
-8.73956e-08
0.00732362
-6.09144e-07
0.00732411
-1.1856e-06
0.00732472
-1.6632e-06
0.00732545
-2.13821e-06
0.0073263
-2.59251e-06
0.00732727
-3.0816e-06
0.00732835
-3.50136e-06
0.00732953
-3.91999e-06
0.00733082
-4.3212e-06
0.00733221
-4.78318e-06
0.0073337
-5.15067e-06
0.00733528
-5.52059e-06
0.00733695
-5.8732e-06
0.00733871
-6.26437e-06
0.00734055
-6.58818e-06
0.00734247
-6.91328e-06
0.00734447
-7.22201e-06
0.00734655
-7.5914e-06
0.00734869
-7.86867e-06
0.0073509
-8.14853e-06
0.00735318
-8.41049e-06
0.00735552
-8.70809e-06
0.00735792
-8.94112e-06
0.00736037
-9.17394e-06
0.00736287
-9.3885e-06
0.00736542
-9.6573e-06
0.00736801
-9.84004e-06
0.00737064
-1.00227e-05
0.00737331
-1.01851e-05
0.00737601
-1.03776e-05
0.00737874
-1.05095e-05
0.0073815
-1.06378e-05
0.00738427
-1.07449e-05
0.00738707
-1.0897e-05
0.00738988
-1.09717e-05
0.00739269
-1.10425e-05
0.00739552
-1.10906e-05
0.00739834
-1.11593e-05
0.00740117
-1.11752e-05
0.00740398
-1.11834e-05
0.00740679
-1.11676e-05
0.00740958
-1.11818e-05
0.00741236
-1.11343e-05
0.00741511
-1.1079e-05
0.00741784
-1.09998e-05
0.00742053
-1.09311e-05
0.0074232
-1.0821e-05
0.00742582
-1.07008e-05
0.00742841
-1.0557e-05
0.00743095
-1.0428e-05
0.00743345
-1.02598e-05
0.0074359
-1.00833e-05
0.0074383
-9.88708e-06
0.00744064
-9.69269e-06
0.00744292
-9.47662e-06
0.00744515
-9.25299e-06
0.00744731
-9.01444e-06
0.00744942
-8.77477e-06
0.00745146
-8.52631e-06
0.00745344
-8.27498e-06
0.00745535
-8.01251e-06
0.00745719
-7.74672e-06
0.00745894
-7.35607e-06
0.00746065
-7.18639e-06
-3.69704e-06
0.0116649
0.00769173
0.0111083
0.00307883
0.0106583
0.00186411
0.0103471
0.00118926
0.0101283
0.000827081
0.00996616
0.000618042
0.00984002
0.000486679
0.00973813
0.000397505
0.00965352
0.000333253
0.00958173
0.000284929
0.0095198
0.000247343
0.00946567
0.000217351
0.00941785
0.000192877
0.00937522
0.000172559
0.00933694
0.000155432
0.00930236
0.000140841
0.00927096
0.000128244
0.00924235
0.000117234
0.00921621
0.00010745
0.00919229
9.86947e-05
0.00917041
9.07189e-05
0.0091504
8.33822e-05
0.00913212
7.65679e-05
0.00911543
7.02765e-05
0.0091002
6.4442e-05
0.00908631
5.90545e-05
0.00907362
5.40585e-05
0.00906203
4.95395e-05
0.00905142
4.54072e-05
0.00904171
4.16438e-05
0.0090328
3.81848e-05
0.00902463
3.50707e-05
0.00901713
3.22184e-05
0.00901025
2.96083e-05
0.00900393
2.71537e-05
0.00899814
2.49559e-05
0.00899283
2.2912e-05
0.00898798
2.10189e-05
0.00898355
1.92141e-05
0.00897952
1.75734e-05
0.00897587
1.60257e-05
0.00897257
1.45758e-05
0.0089696
1.31415e-05
0.00896695
1.18608e-05
0.0089646
1.06359e-05
0.00896254
9.48047e-06
0.00896075
8.3349e-06
0.00895922
7.29598e-06
0.00895793
6.29403e-06
0.00895688
5.34343e-06
0.00895606
4.35891e-06
0.00895545
3.49651e-06
0.00895504
2.65448e-06
0.00895484
1.85152e-06
0.00895482
1.02623e-06
0.00895499
2.89401e-07
0.00895534
-4.32288e-07
0.00895585
-1.12146e-06
0.00895653
-1.86633e-06
0.00895737
-2.49792e-06
0.00895835
-3.12424e-06
0.00895948
-3.7231e-06
0.00896076
-4.35672e-06
0.00896217
-4.90994e-06
0.00896371
-5.45975e-06
0.00896538
-5.98606e-06
0.00896717
-6.57578e-06
0.00896907
-7.05795e-06
0.00897109
-7.5412e-06
0.00897322
-8.0015e-06
0.00897546
-8.50131e-06
0.0089778
-8.92336e-06
0.00898023
-9.34502e-06
0.00898276
-9.74461e-06
0.00898537
-1.02077e-05
0.00898807
-1.0566e-05
0.00899085
-1.09255e-05
0.0089937
-1.12615e-05
0.00899662
-1.16336e-05
0.00899962
-1.19311e-05
0.00900267
-1.22263e-05
0.00900578
-1.24971e-05
0.00900895
-1.28244e-05
0.00901216
-1.30535e-05
0.00901542
-1.32805e-05
0.00901872
-1.34812e-05
0.00902206
-1.37119e-05
0.00902542
-1.38723e-05
0.00902881
-1.40263e-05
0.00903222
-1.41525e-05
0.00903565
-1.4325e-05
0.00903909
-1.44092e-05
0.00904253
-1.44869e-05
0.00904598
-1.45354e-05
0.00904943
-1.46036e-05
0.00905286
-1.46103e-05
0.00905629
-1.46063e-05
0.0090597
-1.45714e-05
0.00906308
-1.45666e-05
0.00906644
-1.44916e-05
0.00906977
-1.44059e-05
0.00907306
-1.42902e-05
0.00907631
-1.41836e-05
0.00907952
-1.40292e-05
0.00908269
-1.38616e-05
0.0090858
-1.36646e-05
0.00908885
-1.3482e-05
0.00909185
-1.32551e-05
0.00909479
-1.30177e-05
0.00909766
-1.27561e-05
0.00910046
-1.24953e-05
0.0091032
-1.22097e-05
0.00910586
-1.19146e-05
0.00910845
-1.16014e-05
0.00911097
-1.12869e-05
0.00911341
-1.09623e-05
0.00911577
-1.06339e-05
0.00911805
-1.02924e-05
0.00912025
-9.94838e-06
0.00912234
-9.44192e-06
0.00912438
-9.2116e-06
-4.73162e-06
0.0141222
0.00812847
0.0135876
0.00361339
0.013076
0.00237577
0.0126916
0.00157366
0.0124125
0.00110614
0.0122038
0.000826775
0.0120413
0.000649159
0.0119104
0.000528406
0.011802
0.000441609
0.0117104
0.000376558
0.0116316
0.000326148
0.0115629
0.000286053
0.0115023
0.000253435
0.0114485
0.000226428
0.0114002
0.000203716
0.0113566
0.000184394
0.0113171
0.000167729
0.0112812
0.000153165
0.0112484
0.000140224
0.0112185
0.000128628
0.0111912
0.000118059
0.0111662
0.00010834
0.0111434
9.93305e-05
0.0111227
9.10259e-05
0.0111038
8.33503e-05
0.0110865
7.62904e-05
0.0110708
6.97801e-05
0.0110565
6.39022e-05
0.0110433
5.85455e-05
0.0110313
5.36798e-05
0.0110202
4.9222e-05
0.0110101
4.52049e-05
0.0110008
4.15265e-05
0.0109922
3.81589e-05
0.0109844
3.50011e-05
0.0109772
3.21567e-05
0.0109706
2.9508e-05
0.0109646
2.70505e-05
0.0109591
2.47129e-05
0.0109541
2.25753e-05
0.0109495
2.05569e-05
0.0109454
1.8664e-05
0.0109418
1.68059e-05
0.0109385
1.51294e-05
0.0109356
1.35264e-05
0.0109331
1.20132e-05
0.0109309
1.05235e-05
0.010929
9.16129e-06
0.0109275
7.84871e-06
0.0109262
6.60348e-06
0.0109252
5.3322e-06
0.0109245
4.20192e-06
0.0109241
3.10058e-06
0.0109239
2.05066e-06
0.0109239
9.83969e-07
0.0109242
2.08169e-08
0.0109247
-9.20108e-07
0.0109254
-1.81811e-06
0.0109263
-2.76941e-06
0.0109274
-3.59264e-06
0.0109287
-4.40651e-06
0.0109301
-5.18429e-06
0.0109318
-5.99449e-06
0.0109336
-6.71244e-06
0.0109355
-7.42355e-06
0.0109376
-8.10333e-06
0.0109399
-8.84633e-06
0.0109423
-9.46877e-06
0.0109449
-1.00899e-05
0.0109476
-1.0681e-05
0.0109504
-1.13104e-05
0.0109533
-1.18512e-05
0.0109563
-1.23889e-05
0.0109595
-1.28973e-05
0.0109628
-1.34694e-05
0.0109661
-1.39241e-05
0.0109696
-1.43778e-05
0.0109731
-1.48007e-05
0.0109767
-1.52586e-05
0.0109804
-1.56311e-05
0.0109842
-1.59983e-05
0.010988
-1.63336e-05
0.0109919
-1.67249e-05
0.0109959
-1.70061e-05
0.0109999
-1.72824e-05
0.0110039
-1.75249e-05
0.011008
-1.77955e-05
0.0110121
-1.79856e-05
0.0110163
-1.81658e-05
0.0110204
-1.83102e-05
0.0110246
-1.84997e-05
0.0110288
-1.85903e-05
0.011033
-1.86711e-05
0.0110372
-1.87151e-05
0.0110413
-1.87764e-05
0.0110455
-1.87673e-05
0.0110496
-1.87436e-05
0.0110538
-1.86814e-05
0.0110578
-1.86474e-05
0.0110619
-1.85349e-05
0.0110659
-1.84087e-05
0.0110698
-1.82454e-05
0.0110738
-1.80889e-05
0.0110776
-1.7878e-05
0.0110814
-1.76508e-05
0.0110851
-1.73876e-05
0.0110888
-1.71371e-05
0.0110924
-1.68377e-05
0.0110959
-1.65258e-05
0.0110993
-1.61847e-05
0.0111027
-1.58425e-05
0.0111059
-1.54728e-05
0.0111091
-1.50921e-05
0.0111122
-1.46895e-05
0.0111152
-1.42839e-05
0.0111181
-1.38682e-05
0.0111209
-1.34489e-05
0.0111236
-1.30134e-05
0.0111263
-1.25751e-05
0.0111288
-1.19317e-05
0.0111312
-1.16471e-05
-5.99967e-06
0.0170157
0.00843799
0.0165448
0.00408429
0.0160001
0.00292047
0.0155424
0.00203132
0.0151931
0.00145545
0.0149266
0.00109324
0.0147179
0.000857848
0.0145497
0.000696611
0.0144107
0.000580608
0.0142935
0.000493812
0.0141929
0.000426733
0.0141054
0.00037353
0.0140285
0.000330371
0.0139602
0.000294728
0.0138991
0.000264823
0.013844
0.000239423
0.0137942
0.000217539
0.013749
0.000198427
0.0137077
0.000181451
0.0136701
0.000166228
0.0136358
0.000152354
0.0136046
0.000139605
0.0135761
0.000127809
0.0135502
0.000116956
0.0135265
0.000106957
0.013505
9.77941e-05
0.0134854
8.93864e-05
0.0134675
8.18119e-05
0.0134511
7.4932e-05
0.0134361
6.8699e-05
0.0134223
6.30047e-05
0.0134097
5.78706e-05
0.013398
5.31706e-05
0.0133873
4.88657e-05
0.0133775
4.48363e-05
0.0133684
4.11885e-05
0.0133602
3.77868e-05
0.0133526
3.4625e-05
0.0133457
3.16209e-05
0.0133394
2.886e-05
0.0133337
2.62503e-05
0.0133286
2.38001e-05
0.013324
2.14077e-05
0.0133199
1.92319e-05
0.0133162
1.71517e-05
0.0133131
1.51868e-05
0.0133103
1.32626e-05
0.013308
1.14921e-05
0.013306
9.78756e-06
0.0133045
8.17081e-06
0.0133033
6.53811e-06
0.0133024
5.0705e-06
0.0133019
3.64335e-06
0.0133016
2.28359e-06
0.0133017
9.14497e-07
0.013302
-3.31962e-07
0.0133027
-1.54671e-06
0.0133036
-2.70507e-06
0.0133047
-3.9134e-06
0.0133061
-4.9748e-06
0.0133077
-6.02101e-06
0.0133095
-7.01994e-06
0.0133116
-8.04797e-06
0.0133138
-8.96884e-06
0.0133163
-9.87793e-06
0.0133189
-1.07455e-05
0.0133218
-1.16759e-05
0.0133248
-1.24694e-05
0.0133279
-1.3258e-05
0.0133313
-1.40071e-05
0.0133348
-1.4793e-05
0.0133384
-1.54767e-05
0.0133421
-1.61534e-05
0.013346
-1.67915e-05
0.0133501
-1.74935e-05
0.0133542
-1.80623e-05
0.0133585
-1.86269e-05
0.0133628
-1.91515e-05
0.0133673
-1.97093e-05
0.0133718
-2.01686e-05
0.0133764
-2.06185e-05
0.0133811
-2.1027e-05
0.0133859
-2.14911e-05
0.0133907
-2.18302e-05
0.0133956
-2.21607e-05
0.0134005
-2.24481e-05
0.0134055
-2.27613e-05
0.0134105
-2.29816e-05
0.0134155
-2.31876e-05
0.0134205
-2.3348e-05
0.0134256
-2.35527e-05
0.0134306
-2.3645e-05
0.0134357
-2.37237e-05
0.0134407
-2.37567e-05
0.0134458
-2.38041e-05
0.0134508
-2.37706e-05
0.0134558
-2.37182e-05
0.0134607
-2.36181e-05
0.0134656
-2.3545e-05
0.0134704
-2.3383e-05
0.0134752
-2.32038e-05
0.01348
-2.298e-05
0.0134846
-2.27604e-05
0.0134893
-2.24788e-05
0.0134938
-2.21775e-05
0.0134982
-2.18329e-05
0.0135026
-2.14999e-05
0.0135069
-2.11121e-05
0.0135111
-2.07095e-05
0.0135151
-2.02727e-05
0.0135191
-1.98332e-05
0.013523
-1.93626e-05
0.0135268
-1.88791e-05
0.0135305
-1.83701e-05
0.0135341
-1.78577e-05
0.0135375
-1.73337e-05
0.0135409
-1.68052e-05
0.0135442
-1.62582e-05
0.0135473
-1.57099e-05
0.0135503
-1.49039e-05
0.0135532
-1.4533e-05
-7.47961e-06
0.0204181
0.00863697
0.020045
0.00445731
0.0195159
0.00344956
0.0190009
0.00254638
0.0185768
0.0018795
0.018242
0.00142809
0.0179759
0.00112392
0.0177603
0.000912187
0.017582
0.000758928
0.0174317
0.000644103
0.017303
0.000555445
0.0171913
0.000485252
0.0170932
0.000428439
0.0170063
0.000381626
0.0169287
0.000342435
0.0168589
0.000309202
0.0167958
0.000280609
0.0167386
0.000255658
0.0166865
0.000233517
0.0166391
0.000213658
0.0165959
0.000195572
0.0165565
0.000178968
0.0165207
0.000163637
0.0164881
0.000149555
0.0164584
0.00013662
0.0164314
0.000124806
0.0164068
0.000114014
0.0163843
0.000104311
0.0163637
9.55262e-05
0.0163448
8.75869e-05
0.0163274
8.0354e-05
0.0163115
7.38304e-05
0.0162968
6.78603e-05
0.0162833
6.23898e-05
0.0162708
5.72777e-05
0.0162594
5.26279e-05
0.0162489
4.82855e-05
0.0162393
4.42417e-05
0.0162305
4.04028e-05
0.0162225
3.68577e-05
0.0162152
3.3503e-05
0.0162087
3.03491e-05
0.0162028
2.72842e-05
0.0161976
2.44761e-05
0.0161929
2.17916e-05
0.0161888
1.92542e-05
0.0161853
1.6781e-05
0.0161823
1.44927e-05
0.0161798
1.22916e-05
0.0161778
1.02041e-05
0.0161762
8.117e-06
0.0161751
6.22237e-06
0.0161743
4.38386e-06
0.016174
2.63327e-06
0.016174
8.8543e-07
0.0161744
-7.17802e-07
0.0161751
-2.27662e-06