/*--------------------------------*- C++ -*----------------------------------*\
  =========                 |
  \\      /  F ield         | OpenFOAM: The Open Source CFD Toolbox
   \\    /   O peration     | Website:  https://openfoam.org
    \\  /    A nd           | Version:  8
     \\/     M anipulation  |
\*---------------------------------------------------------------------------*/
FoamFile
{
    version     2.0;
    format      ascii;
    class       volVectorField;
    location    "450";
    object      U;
}
// * * * * * * * * * * * * * * * * * * * * * * * * * * * * * * * * * * * * * //

dimensions      [0 1 -1 0 0 0 0];

internalField   nonuniform List<vector> 
7320
(
(22.6429 -0.848127 0)
(20.2991 -0.0156863 0)
(19.4729 0.000192322 0)
(18.9932 0.000303657 0)
(18.6577 0.00022376 0)
(18.4025 0.000174221 0)
(18.1985 0.000141508 0)
(18.0298 0.000118259 0)
(17.8872 0.00010085 0)
(17.7644 8.73738e-05 0)
(17.6573 7.65603e-05 0)
(17.5628 6.78333e-05 0)
(17.4788 6.06016e-05 0)
(17.4034 5.45344e-05 0)
(17.3353 4.93033e-05 0)
(17.2735 4.48683e-05 0)
(17.2172 4.10303e-05 0)
(17.1656 3.76994e-05 0)
(17.1181 3.46755e-05 0)
(17.0742 3.20768e-05 0)
(17.0336 2.97542e-05 0)
(16.996 2.76407e-05 0)
(16.9611 2.56596e-05 0)
(16.9288 2.38312e-05 0)
(16.8988 2.21215e-05 0)
(16.8711 2.05023e-05 0)
(16.8455 1.89247e-05 0)
(16.8219 1.749e-05 0)
(16.8001 1.6158e-05 0)
(16.7801 1.49099e-05 0)
(16.7616 1.37287e-05 0)
(16.7446 1.26711e-05 0)
(16.729 1.17061e-05 0)
(16.7145 1.08233e-05 0)
(16.7012 9.88415e-06 0)
(16.6889 9.14994e-06 0)
(16.6776 8.47755e-06 0)
(16.6672 7.87248e-06 0)
(16.6576 7.18756e-06 0)
(16.6487 6.67246e-06 0)
(16.6405 6.19056e-06 0)
(16.633 5.75943e-06 0)
(16.6261 5.10777e-06 0)
(16.6198 4.72359e-06 0)
(16.6141 4.36435e-06 0)
(16.6088 4.05192e-06 0)
(16.6041 3.57283e-06 0)
(16.5998 3.28808e-06 0)
(16.5959 3.01135e-06 0)
(16.5925 2.77134e-06 0)
(16.5895 2.25125e-06 0)
(16.5869 2.01657e-06 0)
(16.5846 1.79246e-06 0)
(16.5827 1.60178e-06 0)
(16.5811 1.2266e-06 0)
(16.5799 1.04055e-06 0)
(16.579 8.54354e-07 0)
(16.5784 6.94152e-07 0)
(16.5781 2.59558e-07 0)
(16.5781 9.1565e-08 0)
(16.5783 -6.98139e-08 0)
(16.5789 -2.06737e-07 0)
(16.5797 -5.07021e-07 0)
(16.5808 -6.45923e-07 0)
(16.5821 -7.86644e-07 0)
(16.5836 -9.08237e-07 0)
(16.5854 -1.26436e-06 0)
(16.5874 -1.39341e-06 0)
(16.5897 -1.52065e-06 0)
(16.5922 -1.63111e-06 0)
(16.5948 -1.88034e-06 0)
(16.5977 -1.99274e-06 0)
(16.6008 -2.10713e-06 0)
(16.6041 -2.2072e-06 0)
(16.6076 -2.508e-06 0)
(16.6113 -2.61161e-06 0)
(16.6152 -2.7153e-06 0)
(16.6192 -2.80619e-06 0)
(16.6234 -3.012e-06 0)
(16.6278 -3.10113e-06 0)
(16.6323 -3.19206e-06 0)
(16.637 -3.27034e-06 0)
(16.6419 -3.5219e-06 0)
(16.6469 -3.59749e-06 0)
(16.652 -3.67465e-06 0)
(16.6572 -3.73771e-06 0)
(16.6626 -3.90645e-06 0)
(16.6681 -3.96361e-06 0)
(16.6737 -4.02358e-06 0)
(16.6795 -4.06849e-06 0)
(16.6853 -4.2755e-06 0)
(16.6912 -4.31466e-06 0)
(16.6972 -4.35626e-06 0)
(16.7033 -4.38014e-06 0)
(16.7094 -4.50077e-06 0)
(16.7156 -4.51669e-06 0)
(16.7218 -4.53646e-06 0)
(16.7281 -4.53874e-06 0)
(16.7344 -4.67983e-06 0)
(16.7408 -4.67434e-06 0)
(16.7471 -4.67079e-06 0)
(16.7535 -4.64502e-06 0)
(16.7598 -4.70482e-06 0)
(16.7662 -4.66925e-06 0)
(16.7725 -4.63758e-06 0)
(16.7787 -4.58547e-06 0)
(16.785 -4.64394e-06 0)
(16.7911 -4.58735e-06 0)
(16.7972 -4.52958e-06 0)
(16.8032 -4.44677e-06 0)
(16.8091 -4.43257e-06 0)
(16.815 -4.34648e-06 0)
(16.8207 -4.26155e-06 0)
(16.8263 -4.15357e-06 0)
(16.8318 -4.13269e-06 0)
(16.8371 -4.04059e-06 0)
(16.8424 -3.93555e-06 0)
(16.8475 -3.79163e-06 0)
(16.8524 -3.71179e-06 0)
(16.8572 -3.53821e-06 0)
(16.8617 -3.45308e-06 0)
(16.8663 -1.78573e-06 0)
(26.6037 0.16714 0)
(23.9491 0.00743096 0)
(22.9106 0.00132348 0)
(22.324 0.0007613 0)
(21.922 0.000547461 0)
(21.6197 0.000424616 0)
(21.3794 0.000344222 0)
(21.1815 0.000287313 0)
(21.0145 0.000244821 0)
(20.8711 0.000211972 0)
(20.7461 0.000185741 0)
(20.636 0.000164516 0)
(20.5381 0.000146936 0)
(20.4503 0.000132179 0)
(20.3712 0.000119533 0)
(20.2993 0.00010876 0)
(20.2339 9.94358e-05 0)
(20.1739 9.13253e-05 0)
(20.1187 8.40461e-05 0)
(20.0678 7.77101e-05 0)
(20.0207 7.20152e-05 0)
(19.9771 6.68176e-05 0)
(19.9368 6.19411e-05 0)
(19.8994 5.74384e-05 0)
(19.8648 5.3213e-05 0)
(19.8329 4.92279e-05 0)
(19.8035 4.53659e-05 0)
(19.7764 4.18624e-05 0)
(19.7515 3.86089e-05 0)
(19.7285 3.55876e-05 0)
(19.7074 3.27296e-05 0)
(19.688 3.01775e-05 0)
(19.6701 2.78413e-05 0)
(19.6537 2.57045e-05 0)
(19.6386 2.3533e-05 0)
(19.6246 2.17491e-05 0)
(19.6117 2.01058e-05 0)
(19.5999 1.86096e-05 0)
(19.589 1.70374e-05 0)
(19.5789 1.57599e-05 0)
(19.5697 1.45606e-05 0)
(19.5612 1.3463e-05 0)
(19.5535 1.2083e-05 0)
(19.5464 1.11182e-05 0)
(19.5399 1.02027e-05 0)
(19.5341 9.37142e-06 0)
(19.5288 8.32766e-06 0)
(19.524 7.58134e-06 0)
(19.5198 6.85617e-06 0)
(19.516 6.19476e-06 0)
(19.5127 5.15778e-06 0)
(19.5099 4.54452e-06 0)
(19.5075 3.94595e-06 0)
(19.5055 3.40244e-06 0)
(19.5039 2.60875e-06 0)
(19.5027 2.1004e-06 0)
(19.5018 1.59274e-06 0)
(19.5013 1.12809e-06 0)
(19.5012 2.812e-07 0)
(19.5014 -1.64442e-07 0)
(19.5019 -6.05788e-07 0)
(19.5028 -1.00656e-06 0)
(19.504 -1.64093e-06 0)
(19.5054 -2.02444e-06 0)
(19.5071 -2.41373e-06 0)
(19.5092 -2.7711e-06 0)
(19.5115 -3.46997e-06 0)
(19.514 -3.81644e-06 0)
(19.5169 -4.16655e-06 0)
(19.52 -4.48644e-06 0)
(19.5233 -5.01474e-06 0)
(19.5269 -5.32235e-06 0)
(19.5307 -5.63715e-06 0)
(19.5347 -5.92619e-06 0)
(19.539 -6.51717e-06 0)
(19.5435 -6.79389e-06 0)
(19.5482 -7.07602e-06 0)
(19.5531 -7.33222e-06 0)
(19.5582 -7.76567e-06 0)
(19.5635 -8.00619e-06 0)
(19.5689 -8.25258e-06 0)
(19.5746 -8.47439e-06 0)
(19.5804 -8.95802e-06 0)
(19.5864 -9.16047e-06 0)
(19.5925 -9.36814e-06 0)
(19.5988 -9.54759e-06 0)
(19.6052 -9.88612e-06 0)
(19.6118 -1.00437e-05 0)
(19.6185 -1.0206e-05 0)
(19.6253 -1.03397e-05 0)
(19.6322 -1.07102e-05 0)
(19.6392 -1.08195e-05 0)
(19.6463 -1.09325e-05 0)
(19.6534 -1.10121e-05 0)
(19.6607 -1.1229e-05 0)
(19.668 -1.12818e-05 0)
(19.6753 -1.13373e-05 0)
(19.6827 -1.136e-05 0)
(19.6901 -1.15753e-05 0)
(19.6975 -1.15688e-05 0)
(19.705 -1.15619e-05 0)
(19.7124 -1.15159e-05 0)
(19.7198 -1.15816e-05 0)
(19.7272 -1.15038e-05 0)
(19.7345 -1.14254e-05 0)
(19.7418 -1.13107e-05 0)
(19.749 -1.13403e-05 0)
(19.7561 -1.12005e-05 0)
(19.7632 -1.10543e-05 0)
(19.7701 -1.08681e-05 0)
(19.777 -1.07659e-05 0)
(19.7837 -1.05587e-05 0)
(19.7903 -1.0347e-05 0)
(19.7967 -1.01004e-05 0)
(19.803 -9.97189e-06 0)
(19.8091 -9.73087e-06 0)
(19.8151 -9.46984e-06 0)
(19.8209 -9.15717e-06 0)
(19.8266 -8.94045e-06 0)
(19.832 -8.51561e-06 0)
(19.8371 -8.27969e-06 0)
(19.8424 -4.2199e-06 0)
(28.9497 0.0984765 0)
(26.1304 0.00639099 0)
(24.9213 0.002338 0)
(24.2467 0.00142125 0)
(23.7932 0.00101453 0)
(23.4561 0.000782654 0)
(23.1903 0.000632479 0)
(22.9724 0.000526852 0)
(22.7892 0.000448316 0)
(22.6322 0.000387764 0)
(22.4957 0.00033958 0)
(22.3756 0.000300597 0)
(22.2689 0.000268348 0)
(22.1733 0.000241291 0)
(22.0872 0.000218179 0)
(22.0092 0.000198459 0)
(21.938 0.000181396 0)
(21.8729 0.000166537 0)
(21.813 0.000153261 0)
(21.7579 0.000141626 0)
(21.7069 0.000131134 0)
(21.6598 0.000121533 0)
(21.6162 0.000112533 0)
(21.576 0.000104206 0)
(21.5388 9.63858e-05 0)
(21.5046 8.90257e-05 0)
(21.4731 8.1946e-05 0)
(21.4442 7.55167e-05 0)
(21.4176 6.95534e-05 0)
(21.3931 6.40373e-05 0)
(21.3706 5.88472e-05 0)
(21.35 5.42071e-05 0)
(21.331 4.99572e-05 0)
(21.3136 4.60706e-05 0)
(21.2975 4.22118e-05 0)
(21.2827 3.89669e-05 0)
(21.2691 3.59714e-05 0)
(21.2566 3.32315e-05 0)
(21.2451 3.04428e-05 0)
(21.2345 2.81005e-05 0)
(21.2248 2.5899e-05 0)
(21.2159 2.38682e-05 0)
(21.2077 2.15027e-05 0)
(21.2003 1.97221e-05 0)
(21.1936 1.80259e-05 0)
(21.1875 1.64635e-05 0)
(21.1821 1.46492e-05 0)
(21.1772 1.32501e-05 0)
(21.1728 1.18924e-05 0)
(21.169 1.0634e-05 0)
(21.1657 8.90387e-06 0)
(21.1629 7.75101e-06 0)
(21.1606 6.62123e-06 0)
(21.1587 5.57461e-06 0)
(21.1572 4.21274e-06 0)
(21.1561 3.24315e-06 0)
(21.1555 2.27775e-06 0)
(21.1552 1.3771e-06 0)
(21.1554 -1.64215e-08 0)
(21.1558 -8.60084e-07 0)
(21.1567 -1.70087e-06 0)
(21.1579 -2.48111e-06 0)
(21.1594 -3.56654e-06 0)
(21.1612 -4.30194e-06 0)
(21.1634 -5.04618e-06 0)
(21.1658 -5.7428e-06 0)
(21.1686 -6.89264e-06 0)
(21.1716 -7.5516e-06 0)
(21.1749 -8.21961e-06 0)
(21.1785 -8.84112e-06 0)
(21.1824 -9.7428e-06 0)
(21.1865 -1.03302e-05 0)
(21.1909 -1.09298e-05 0)
(21.1955 -1.14894e-05 0)
(21.2004 -1.24574e-05 0)
(21.2055 -1.29804e-05 0)
(21.2108 -1.35142e-05 0)
(21.2163 -1.40059e-05 0)
(21.2221 -1.47393e-05 0)
(21.228 -1.51935e-05 0)
(21.2342 -1.56568e-05 0)
(21.2405 -1.60801e-05 0)
(21.247 -1.68592e-05 0)
(21.2537 -1.72378e-05 0)
(21.2605 -1.76248e-05 0)
(21.2675 -1.79651e-05 0)
(21.2746 -1.85204e-05 0)
(21.2819 -1.88146e-05 0)
(21.2893 -1.91139e-05 0)
(21.2968 -1.93662e-05 0)
(21.3044 -1.99352e-05 0)
(21.3121 -2.0136e-05 0)
(21.3199 -2.03398e-05 0)
(21.3278 -2.04892e-05 0)
(21.3357 -2.0818e-05 0)
(21.3437 -2.09129e-05 0)
(21.3518 -2.10065e-05 0)
(21.3598 -2.10456e-05 0)
(21.3679 -2.13347e-05 0)
(21.376 -2.13152e-05 0)
(21.384 -2.12897e-05 0)
(21.3921 -2.12017e-05 0)
(21.4001 -2.12522e-05 0)
(21.4081 -2.11024e-05 0)
(21.416 -2.09442e-05 0)
(21.4239 -2.07267e-05 0)
(21.4316 -2.0688e-05 0)
(21.4393 -2.04195e-05 0)
(21.4468 -2.01367e-05 0)
(21.4543 -1.97931e-05 0)
(21.4616 -1.9547e-05 0)
(21.4688 -1.91605e-05 0)
(21.4758 -1.87625e-05 0)
(21.4827 -1.83131e-05 0)
(21.4894 -1.80001e-05 0)
(21.4959 -1.75448e-05 0)
(21.5022 -1.70641e-05 0)
(21.5084 -1.65159e-05 0)
(21.5144 -1.60789e-05 0)
(21.5202 -1.53041e-05 0)
(21.5256 -1.49052e-05 0)
(21.5311 -7.60862e-06 0)
(30.6449 0.0459571 0)
(27.8131 0.00831855 0)
(26.4561 0.00392303 0)
(25.6943 0.00237899 0)
(25.1892 0.0016807 0)
(24.8184 0.00128795 0)
(24.5284 0.0010365 0)
(24.2922 0.000861017 0)
(24.0944 0.000731251 0)
(23.9254 0.000631572 0)
(23.7788 0.000552545 0)
(23.6501 0.00048869 0)
(23.5359 0.000435958 0)
(23.4337 0.000391769 0)
(23.3418 0.000354119 0)
(23.2585 0.000321973 0)
(23.1826 0.000294167 0)
(23.1133 0.000269933 0)
(23.0496 0.000248343 0)
(22.9909 0.000229316 0)
(22.9369 0.000212114 0)
(22.887 0.000196344 0)
(22.841 0.000181588 0)
(22.7985 0.00016791 0)
(22.7595 0.000155075 0)
(22.7236 0.000143022 0)
(22.6906 0.000131529 0)
(22.6603 0.000121064 0)
(22.6325 0.000111377 0)
(22.6071 0.000102441 0)
(22.5837 9.40886e-05 0)
(22.5622 8.65966e-05 0)
(22.5425 7.97358e-05 0)
(22.5243 7.34611e-05 0)
(22.5077 6.73506e-05 0)
(22.4923 6.2109e-05 0)
(22.4782 5.72654e-05 0)
(22.4653 5.28211e-05 0)
(22.4534 4.84011e-05 0)
(22.4425 4.45946e-05 0)
(22.4325 4.10164e-05 0)
(22.4234 3.76996e-05 0)
(22.4151 3.40382e-05 0)
(22.4075 3.11281e-05 0)
(22.4007 2.83533e-05 0)
(22.3945 2.57764e-05 0)
(22.389 2.29359e-05 0)
(22.3841 2.06269e-05 0)
(22.3798 1.83909e-05 0)
(22.3761 1.62994e-05 0)
(22.3729 1.36732e-05 0)
(22.3702 1.17636e-05 0)
(22.368 9.89315e-06 0)
(22.3663 8.14064e-06 0)
(22.3651 6.03068e-06 0)
(22.3643 4.41113e-06 0)
(22.3639 2.806e-06 0)
(22.3639 1.29256e-06 0)
(22.3644 -7.93227e-07 0)
(22.3652 -2.1993e-06 0)
(22.3664 -3.59942e-06 0)
(22.3679 -4.91588e-06 0)
(22.3698 -6.58771e-06 0)
(22.3721 -7.82147e-06 0)
(22.3747 -9.06284e-06 0)
(22.3776 -1.02387e-05 0)
(22.3808 -1.19497e-05 0)
(22.3843 -1.3051e-05 0)
(22.3881 -1.41635e-05 0)
(22.3922 -1.52115e-05 0)
(22.3966 -1.65905e-05 0)
(22.4013 -1.75735e-05 0)
(22.4062 -1.85696e-05 0)
(22.4114 -1.95099e-05 0)
(22.4168 -2.09359e-05 0)
(22.4225 -2.18052e-05 0)
(22.4284 -2.26874e-05 0)
(22.4345 -2.35092e-05 0)
(22.4408 -2.46173e-05 0)
(22.4474 -2.53699e-05 0)
(22.4541 -2.61308e-05 0)
(22.4611 -2.68335e-05 0)
(22.4682 -2.79591e-05 0)
(22.4755 -2.85813e-05 0)
(22.4829 -2.92106e-05 0)
(22.4905 -2.97718e-05 0)
(22.4982 -3.05853e-05 0)
(22.5061 -3.10658e-05 0)
(22.5141 -3.15463e-05 0)
(22.5222 -3.19571e-05 0)
(22.5304 -3.27411e-05 0)
(22.5387 -3.30627e-05 0)
(22.547 -3.33815e-05 0)
(22.5555 -3.362e-05 0)
(22.564 -3.40642e-05 0)
(22.5725 -3.42097e-05 0)
(22.581 -3.43438e-05 0)
(22.5896 -3.43957e-05 0)
(22.5982 -3.4736e-05 0)
(22.6068 -3.46896e-05 0)
(22.6153 -3.4626e-05 0)
(22.6238 -3.44703e-05 0)
(22.6323 -3.44671e-05 0)
(22.6407 -3.42097e-05 0)
(22.649 -3.39298e-05 0)
(22.6573 -3.35614e-05 0)
(22.6654 -3.33927e-05 0)
(22.6734 -3.294e-05 0)
(22.6813 -3.24605e-05 0)
(22.6891 -3.18939e-05 0)
(22.6967 -3.14299e-05 0)
(22.7042 -3.07929e-05 0)
(22.7115 -3.01331e-05 0)
(22.7186 -2.94016e-05 0)
(22.7256 -2.88164e-05 0)
(22.7324 -2.80657e-05 0)
(22.7389 -2.72815e-05 0)
(22.7453 -2.64115e-05 0)
(22.7515 -2.56636e-05 0)
(22.7574 -2.441e-05 0)
(22.763 -2.37918e-05 0)
(22.7687 -1.21516e-05 0)
(31.9342 0.046992 0)
(29.2283 0.0125096 0)
(27.7543 0.00606032 0)
(26.9065 0.00365706 0)
(26.348 0.0025593 0)
(25.9421 0.00194742 0)
(25.6273 0.00155978 0)
(25.3724 0.00129147 0)
(25.1601 0.00109427 0)
(24.9793 0.000943448 0)
(24.8229 0.000824344 0)
(24.6858 0.000728301 0)
(24.5645 0.000649156 0)
(24.4561 0.000582938 0)
(24.3587 0.000526647 0)
(24.2705 0.000478583 0)
(24.1902 0.00043702 0)
(24.1169 0.000400768 0)
(24.0497 0.000368516 0)
(23.988 0.000339964 0)
(23.9311 0.000314097 0)
(23.8788 0.000290348 0)
(23.8306 0.000268164 0)
(23.7863 0.000247584 0)
(23.7456 0.000228308 0)
(23.7083 0.000210259 0)
(23.6741 0.000193177 0)
(23.6427 0.000177608 0)
(23.614 0.00016323 0)
(23.5876 0.000150001 0)
(23.5635 0.000137705 0)
(23.5413 0.000126648 0)
(23.521 0.000116527 0)
(23.5023 0.00010727 0)
(23.4851 9.83745e-05 0)
(23.4694 9.06342e-05 0)
(23.4549 8.34759e-05 0)
(23.4416 7.68933e-05 0)
(23.4294 7.0445e-05 0)
(23.4183 6.47947e-05 0)
(23.4081 5.94822e-05 0)
(23.3988 5.45432e-05 0)
(23.3904 4.92825e-05 0)
(23.3827 4.49417e-05 0)
(23.3759 4.08014e-05 0)
(23.3697 3.69376e-05 0)
(23.3642 3.28211e-05 0)
(23.3594 2.93541e-05 0)
(23.3552 2.60019e-05 0)
(23.3516 2.28507e-05 0)
(23.3485 1.91266e-05 0)
(23.346 1.62511e-05 0)
(23.3441 1.34382e-05 0)
(23.3426 1.07862e-05 0)
(23.3416 7.75139e-06 0)
(23.341 5.30139e-06 0)
(23.341 2.88263e-06 0)
(23.3413 5.90109e-07 0)
(23.3421 -2.33249e-06 0)
(23.3433 -4.45698e-06 0)
(23.3448 -6.56821e-06 0)
(23.3468 -8.56734e-06 0)
(23.3491 -1.09569e-05 0)
(23.3517 -1.28259e-05 0)
(23.3548 -1.46975e-05 0)
(23.3581 -1.64808e-05 0)
(23.3618 -1.88609e-05 0)
(23.3658 -2.0524e-05 0)
(23.3701 -2.21975e-05 0)
(23.3747 -2.37841e-05 0)
(23.3796 -2.57383e-05 0)
(23.3848 -2.72203e-05 0)
(23.3902 -2.87132e-05 0)
(23.3959 -3.01297e-05 0)
(23.4019 -3.20896e-05 0)
(23.4081 -3.33919e-05 0)
(23.4146 -3.47061e-05 0)
(23.4212 -3.5937e-05 0)
(23.4281 -3.74852e-05 0)
(23.4352 -3.86062e-05 0)
(23.4425 -3.97307e-05 0)
(23.45 -4.07734e-05 0)
(23.4577 -4.2288e-05 0)
(23.4655 -4.32052e-05 0)
(23.4735 -4.41246e-05 0)
(23.4816 -4.49492e-05 0)
(23.4899 -4.60501e-05 0)
(23.4983 -4.67495e-05 0)
(23.5068 -4.74393e-05 0)
(23.5154 -4.80304e-05 0)
(23.5241 -4.90342e-05 0)
(23.5329 -4.94892e-05 0)
(23.5417 -4.99311e-05 0)
(23.5506 -5.02607e-05 0)
(23.5596 -5.08102e-05 0)
(23.5685 -5.09986e-05 0)
(23.5775 -5.11603e-05 0)
(23.5865 -5.12051e-05 0)
(23.5955 -5.15625e-05 0)
(23.6044 -5.14614e-05 0)
(23.6133 -5.13272e-05 0)
(23.6222 -5.1065e-05 0)
(23.631 -5.09596e-05 0)
(23.6397 -5.05483e-05 0)
(23.6483 -5.0096e-05 0)
(23.6569 -4.95193e-05 0)
(23.6653 -4.9153e-05 0)
(23.6736 -4.84553e-05 0)
(23.6817 -4.77143e-05 0)
(23.6897 -4.68554e-05 0)
(23.6975 -4.60975e-05 0)
(23.7052 -4.51381e-05 0)
(23.7127 -4.41415e-05 0)
(23.72 -4.30493e-05 0)
(23.7271 -4.21063e-05 0)
(23.734 -4.09832e-05 0)
(23.7407 -3.98165e-05 0)
(23.7472 -3.85436e-05 0)
(23.7535 -3.73995e-05 0)
(23.7596 -3.55499e-05 0)
(23.7652 -3.4668e-05 0)
(23.771 -1.77201e-05 0)
(32.9266 0.0603714 0)
(30.4695 0.0174491 0)
(28.9196 0.00880591 0)
(27.99 0.00533462 0)
(27.3757 0.0037067 0)
(26.9322 0.00280115 0)
(26.5909 0.0022321 0)
(26.3162 0.00184134 0)
(26.0885 0.00155597 0)
(25.8954 0.00133876 0)
(25.7288 0.00116794 0)
(25.5832 0.00103055 0)
(25.4545 0.000917617 0)
(25.3398 0.000823309 0)
(25.2368 0.000743316 0)
(25.1437 0.000675038 0)
(25.0592 0.000616016 0)
(24.982 0.000564498 0)
(24.9113 0.000518689 0)
(24.8464 0.000477984 0)
(24.7869 0.000441036 0)
(24.7321 0.000407078 0)
(24.6819 0.000375407 0)
(24.6358 0.000346034 0)
(24.5936 0.000318588 0)
(24.5549 0.000292977 0)
(24.5196 0.0002689 0)
(24.4872 0.000246964 0)
(24.4575 0.000226762 0)
(24.4304 0.000208224 0)
(24.4055 0.000191072 0)
(24.3827 0.000175623 0)
(24.3618 0.000161485 0)
(24.3425 0.000148555 0)
(24.3249 0.000136244 0)
(24.3087 0.000125417 0)
(24.2938 0.000115395 0)
(24.2802 0.000106163 0)
(24.2678 9.72101e-05 0)
(24.2564 8.92659e-05 0)
(24.246 8.17934e-05 0)
(24.2365 7.48323e-05 0)
(24.228 6.75996e-05 0)
(24.2203 6.14684e-05 0)
(24.2134 5.56196e-05 0)
(24.2072 5.01446e-05 0)
(24.2018 4.44465e-05 0)
(24.197 3.95257e-05 0)
(24.1929 3.47737e-05 0)
(24.1894 3.02936e-05 0)
(24.1865 2.52206e-05 0)
(24.1842 2.1131e-05 0)
(24.1824 1.71365e-05 0)
(24.1812 1.3357e-05 0)
(24.1805 9.18177e-06 0)
(24.1802 5.68949e-06 0)
(24.1804 2.25342e-06 0)
(24.1811 -1.01156e-06 0)
(24.1822 -4.95095e-06 0)
(24.1837 -7.97534e-06 0)
(24.1857 -1.0974e-05 0)
(24.188 -1.38242e-05 0)
(24.1907 -1.70898e-05 0)
(24.1938 -1.97509e-05 0)
(24.1973 -2.24054e-05 0)
(24.2011 -2.49411e-05 0)
(24.2052 -2.81233e-05 0)
(24.2097 -3.04831e-05 0)
(24.2144 -3.28491e-05 0)
(24.2195 -3.50989e-05 0)
(24.2249 -3.77438e-05 0)
(24.2306 -3.98389e-05 0)
(24.2365 -4.19392e-05 0)
(24.2427 -4.39351e-05 0)
(24.2492 -4.65208e-05 0)
(24.2559 -4.8349e-05 0)
(24.2629 -5.0185e-05 0)
(24.2701 -5.19077e-05 0)
(24.2775 -5.39695e-05 0)
(24.2851 -5.55305e-05 0)
(24.2929 -5.70863e-05 0)
(24.3009 -5.85289e-05 0)
(24.309 -6.04811e-05 0)
(24.3173 -6.17423e-05 0)
(24.3258 -6.29971e-05 0)
(24.3344 -6.41224e-05 0)
(24.3431 -6.55393e-05 0)
(24.352 -6.64837e-05 0)
(24.361 -6.74044e-05 0)
(24.37 -6.81886e-05 0)
(24.3791 -6.94144e-05 0)
(24.3883 -7.00053e-05 0)
(24.3976 -7.05683e-05 0)
(24.4069 -7.0979e-05 0)
(24.4162 -7.16153e-05 0)
(24.4255 -7.18258e-05 0)
(24.4348 -7.19893e-05 0)
(24.4441 -7.19926e-05 0)
(24.4534 -7.23237e-05 0)
(24.4627 -7.21255e-05 0)
(24.4719 -7.18737e-05 0)
(24.481 -7.14509e-05 0)
(24.49 -7.11824e-05 0)
(24.499 -7.05557e-05 0)
(24.5079 -6.98651e-05 0)
(24.5166 -6.90075e-05 0)
(24.5252 -6.83647e-05 0)
(24.5336 -6.73463e-05 0)
(24.542 -6.62649e-05 0)
(24.5501 -6.503e-05 0)
(24.5581 -6.38905e-05 0)
(24.5659 -6.2523e-05 0)
(24.5735 -6.11013e-05 0)
(24.5809 -5.95569e-05 0)
(24.5881 -5.8161e-05 0)
(24.5951 -5.65764e-05 0)
(24.6019 -5.49361e-05 0)
(24.6085 -5.31674e-05 0)
(24.6148 -5.15325e-05 0)
(24.621 -4.8955e-05 0)
(24.6267 -4.77499e-05 0)
(24.6325 -2.44251e-05 0)
(33.6709 0.0694782 0)
(31.5724 0.0227039 0)
(30.0008 0.0122432 0)
(28.9993 0.00751375 0)
(28.3282 0.00520131 0)
(27.8445 0.00390693 0)
(27.4742 0.00309722 0)
(27.1779 0.00254489 0)
(26.9335 0.00214401 0)
(26.727 0.00184042 0)
(26.5495 0.0016027 0)
(26.3948 0.00141208 0)
(26.2583 0.00125582 0)
(26.1369 0.00112562 0)
(26.0281 0.00101544 0)
(25.9298 0.000921451 0)
(25.8407 0.000840241 0)
(25.7595 0.000769316 0)
(25.6852 0.000706256 0)
(25.6172 0.000650046 0)
(25.5548 0.000598943 0)
(25.4976 0.000551945 0)
(25.4452 0.000508184 0)
(25.3973 0.000467636 0)
(25.3535 0.000429857 0)
(25.3135 0.000394736 0)
(25.2769 0.000361926 0)
(25.2434 0.000332072 0)
(25.2128 0.000304659 0)
(25.1848 0.000279572 0)
(25.1592 0.00025645 0)
(25.1356 0.000235601 0)
(25.1141 0.000216526 0)
(25.0942 0.00019908 0)
(25.0761 0.000182576 0)
(25.0594 0.000167939 0)
(25.0441 0.000154375 0)
(25.03 0.00014186 0)
(25.0172 0.000129809 0)
(25.0055 0.000119009 0)
(24.9949 0.000108844 0)
(24.9853 9.93596e-05 0)
(24.9766 8.9684e-05 0)
(24.9687 8.13109e-05 0)
(24.9618 7.33231e-05 0)
(24.9556 6.58298e-05 0)
(24.9501 5.81643e-05 0)
(24.9454 5.1419e-05 0)
(24.9414 4.49119e-05 0)
(24.938 3.87665e-05 0)
(24.9352 3.20273e-05 0)
(24.9331 2.64144e-05 0)
(24.9315 2.09414e-05 0)
(24.9304 1.57519e-05 0)
(24.9299 1.01667e-05 0)
(24.93 5.3711e-06 0)
(24.9305 6.67515e-07 0)
(24.9314 -3.80758e-06 0)
(24.9329 -8.98851e-06 0)
(24.9347 -1.31344e-05 0)
(24.937 -1.72353e-05 0)
(24.9397 -2.11406e-05 0)
(24.9428 -2.54763e-05 0)
(24.9463 -2.91188e-05 0)
(24.9502 -3.27397e-05 0)
(24.9544 -3.62015e-05 0)
(24.959 -4.03483e-05 0)
(24.9638 -4.35652e-05 0)
(24.9691 -4.67793e-05 0)
(24.9746 -4.9839e-05 0)
(24.9804 -5.33123e-05 0)
(24.9866 -5.6154e-05 0)
(24.993 -5.89902e-05 0)
(24.9997 -6.16846e-05 0)
(25.0066 -6.50047e-05 0)
(25.0138 -6.74649e-05 0)
(25.0212 -6.99241e-05 0)
(25.0288 -7.22311e-05 0)
(25.0367 -7.48904e-05 0)
(25.0448 -7.69701e-05 0)
(25.053 -7.90307e-05 0)
(25.0615 -8.09368e-05 0)
(25.0701 -8.33802e-05 0)
(25.0788 -8.50358e-05 0)
(25.0877 -8.66712e-05 0)
(25.0967 -8.81333e-05 0)
(25.1059 -8.98936e-05 0)
(25.1151 -9.11051e-05 0)
(25.1245 -9.22731e-05 0)
(25.1339 -9.32566e-05 0)
(25.1434 -9.4701e-05 0)
(25.1529 -9.54214e-05 0)
(25.1625 -9.60939e-05 0)
(25.1721 -9.65648e-05 0)
(25.1817 -9.72592e-05 0)
(25.1913 -9.74585e-05 0)
(25.2009 -9.75849e-05 0)
(25.2105 -9.74984e-05 0)
(25.2201 -9.77469e-05 0)
(25.2295 -9.73938e-05 0)
(25.2389 -9.69622e-05 0)
(25.2483 -9.6309e-05 0)
(25.2575 -9.58016e-05 0)
(25.2666 -9.48815e-05 0)
(25.2756 -9.38707e-05 0)
(25.2845 -9.26429e-05 0)
(25.2933 -9.16296e-05 0)
(25.3018 -9.01979e-05 0)
(25.3103 -8.86807e-05 0)
(25.3185 -8.69698e-05 0)
(25.3266 -8.53453e-05 0)
(25.3344 -8.34678e-05 0)
(25.3421 -8.1517e-05 0)
(25.3496 -7.94131e-05 0)
(25.3569 -7.74535e-05 0)
(25.3639 -7.5303e-05 0)
(25.3708 -7.30832e-05 0)
(25.3774 -7.07108e-05 0)
(25.3838 -6.84747e-05 0)
(25.39 -6.50173e-05 0)
(25.3957 -6.34187e-05 0)
(25.4016 -3.24807e-05 0)
(34.1947 0.0755306 0)
(32.5411 0.028233 0)
(31.0182 0.0164208 0)
(29.9639 0.0103038 0)
(29.2379 0.0071386 0)
(28.712 0.00533852 0)
(28.3102 0.0042119 0)
(27.9902 0.00344685 0)
(27.7273 0.00289456 0)
(27.5061 0.00247832 0)
(27.3165 0.00215382 0)
(27.1518 0.00189448 0)
(27.0068 0.00168252 0)
(26.8781 0.00150634 0)
(26.7629 0.00135758 0)
(26.6591 0.00123082 0)
(26.5651 0.00112136 0)
(26.4795 0.00102572 0)
(26.4013 0.000940691 0)
(26.3299 0.000864705 0)
(26.2645 0.000795539 0)
(26.2047 0.00073191 0)
(26.15 0.000672768 0)
(26.1001 0.000618047 0)
(26.0546 0.000567224 0)
(26.013 0.000520166 0)
(25.975 0.000476461 0)
(25.9404 0.000436771 0)
(25.9087 0.000400439 0)
(25.8797 0.000367282 0)
(25.8531 0.000336825 0)
(25.8288 0.00030934 0)
(25.8064 0.000284197 0)
(25.7858 0.000261195 0)
(25.767 0.000239538 0)
(25.7497 0.000220192 0)
(25.7338 0.000202242 0)
(25.7193 0.000185652 0)
(25.7061 0.000169757 0)
(25.694 0.000155395 0)
(25.683 0.000141868 0)
(25.6731 0.000129228 0)
(25.6641 0.000116513 0)
(25.6561 0.000105327 0)
(25.649 9.46563e-05 0)
(25.6427 8.46295e-05 0)
(25.6372 7.45083e-05 0)
(25.6324 6.54702e-05 0)
(25.6284 5.676e-05 0)
(25.6251 4.85254e-05 0)
(25.6224 3.97196e-05 0)
(25.6204 3.21958e-05 0)
(25.6189 2.48721e-05 0)
(25.6181 1.79194e-05 0)
(25.6177 1.05876e-05 0)
(25.618 4.16483e-06 0)
(25.6187 -2.11673e-06 0)
(25.62 -8.09664e-06 0)
(25.6217 -1.47977e-05 0)
(25.6238 -2.03373e-05 0)
(25.6264 -2.58038e-05 0)
(25.6295 -3.10139e-05 0)
(25.6329 -3.66571e-05 0)
(25.6368 -4.15109e-05 0)
(25.641 -4.63205e-05 0)
(25.6456 -5.09178e-05 0)
(25.6505 -5.62256e-05 0)
(25.6558 -6.04914e-05 0)
(25.6614 -6.47395e-05 0)
(25.6674 -6.8783e-05 0)
(25.6736 -7.32483e-05 0)
(25.6802 -7.69934e-05 0)
(25.687 -8.07162e-05 0)
(25.6941 -8.42477e-05 0)
(25.7014 -8.84287e-05 0)
(25.709 -9.16423e-05 0)
(25.7169 -9.48408e-05 0)
(25.7249 -9.78366e-05 0)
(25.7332 -0.000101188 0)
(25.7417 -0.000103873 0)
(25.7503 -0.00010652 0)
(25.7592 -0.000108958 0)
(25.7681 -0.00011195 0)
(25.7773 -0.000114051 0)
(25.7865 -0.000116113 0)
(25.7959 -0.000117947 0)
(25.8054 -0.000120075 0)
(25.815 -0.000121571 0)
(25.8247 -0.000122997 0)
(25.8344 -0.000124179 0)
(25.8442 -0.00012583 0)
(25.854 -0.000126664 0)
(25.8638 -0.000127423 0)
(25.8737 -0.000127922 0)
(25.8836 -0.000128633 0)
(25.8934 -0.000128774 0)
(25.9032 -0.00012881 0)
(25.913 -0.000128571 0)
(25.9227 -0.000128665 0)
(25.9324 -0.000128083 0)
(25.942 -0.000127393 0)
(25.9514 -0.000126423 0)
(25.9608 -0.000125584 0)
(25.97 -0.000124276 0)
(25.9792 -0.000122846 0)
(25.9881 -0.000121142 0)
(25.997 -0.000119647 0)
(26.0056 -0.000117692 0)
(26.0141 -0.000115626 0)
(26.0224 -0.000113323 0)
(26.0305 -0.000111093 0)
(26.0385 -0.000108586 0)
(26.0462 -0.000105986 0)
(26.0537 -0.000103199 0)
(26.061 -0.000100548 0)
(26.0681 -9.77105e-05 0)
(26.075 -9.4789e-05 0)
(26.0816 -9.16887e-05 0)
(26.088 -8.8725e-05 0)
(26.0942 -8.42117e-05 0)
(26.1 -8.21379e-05 0)
(26.1059 -4.21187e-05 0)
(34.5334 0.08014 0)
(33.3602 0.0337826 0)
(31.9723 0.0212952 0)
(30.8975 0.013803 0)
(30.1241 0.00962813 0)
(29.5557 0.00718731 0)
(29.1205 0.0056488 0)
(28.7745 0.0046052 0)
(28.4911 0.00385472 0)
(28.2535 0.00329148 0)
(28.0506 0.00285418 0)
(27.8746 0.00250585 0)
(27.7203 0.00222206 0)
(27.5835 0.00198678 0)
(27.4612 0.00178861 0)
(27.3513 0.00161995 0)
(27.2518 0.00147441 0)
(27.1614 0.00134726 0)
(27.0791 0.00123421 0)
(27.0038 0.001133 0)
(26.9351 0.0010408 0)
(26.8724 0.000955988 0)
(26.8151 0.000877307 0)
(26.7629 0.000804635 0)
(26.7154 0.000737361 0)
(26.672 0.000675322 0)
(26.6325 0.000618024 0)
(26.5964 0.000566107 0)
(26.5634 0.000518736 0)
(26.5332 0.000475622 0)
(26.5056 0.000436139 0)
(26.4802 0.00040049 0)
(26.4568 0.000367878 0)
(26.4354 0.000338033 0)
(26.4157 0.000310027 0)
(26.3977 0.000284854 0)
(26.3811 0.000261463 0)
(26.3659 0.000239804 0)
(26.3521 0.000219127 0)
(26.3395 0.000200312 0)
(26.328 0.000182575 0)
(26.3177 0.000165978 0)
(26.3084 0.000149465 0)
(26.3001 0.000134742 0)
(26.2927 0.000120697 0)
(26.2862 0.000107481 0)
(26.2805 9.42835e-05 0)
(26.2756 8.23584e-05 0)
(26.2715 7.08776e-05 0)
(26.2682 6.00165e-05 0)
(26.2655 4.86359e-05 0)
(26.2635 3.8712e-05 0)
(26.2621 2.90698e-05 0)
(26.2613 1.99097e-05 0)
(26.2611 1.04083e-05 0)
(26.2615 1.95381e-06 0)
(26.2624 -6.29333e-06 0)
(26.2639 -1.41459e-05 0)
(26.2658 -2.2715e-05 0)
(26.2682 -2.9985e-05 0)
(26.271 -3.71415e-05 0)
(26.2743 -4.39637e-05 0)
(26.2781 -5.12065e-05 0)
(26.2822 -5.75523e-05 0)
(26.2867 -6.38212e-05 0)
(26.2917 -6.98084e-05 0)
(26.2969 -7.65168e-05 0)
(26.3026 -8.20625e-05 0)
(26.3085 -8.75669e-05 0)
(26.3148 -9.28025e-05 0)
(26.3214 -9.84555e-05 0)
(26.3283 -0.000103289 0)
(26.3355 -0.000108076 0)
(26.343 -0.000112607 0)
(26.3507 -0.000117799 0)
(26.3586 -0.000121906 0)
(26.3668 -0.000125977 0)
(26.3752 -0.000129781 0)
(26.3839 -0.000133932 0)
(26.3927 -0.00013732 0)
(26.4017 -0.000140641 0)
(26.4108 -0.000143687 0)
(26.4201 -0.00014729 0)
(26.4296 -0.00014989 0)
(26.4391 -0.000152425 0)
(26.4488 -0.000154662 0)
(26.4586 -0.000157181 0)
(26.4684 -0.000158974 0)
(26.4784 -0.000160662 0)
(26.4884 -0.000162034 0)
(26.4984 -0.000163872 0)
(26.5084 -0.000164791 0)
(26.5185 -0.000165604 0)
(26.5285 -0.000166084 0)
(26.5386 -0.000166758 0)
(26.5486 -0.000166778 0)
(26.5586 -0.000166656 0)
(26.5685 -0.000166185 0)
(26.5784 -0.000166038 0)
(26.5881 -0.000165134 0)
(26.5978 -0.00016409 0)
(26.6074 -0.0001627 0)
(26.6168 -0.000161419 0)
(26.6262 -0.000159609 0)
(26.6354 -0.000157642 0)
(26.6444 -0.000155339 0)
(26.6533 -0.000153233 0)
(26.662 -0.000150626 0)
(26.6705 -0.000147882 0)
(26.6789 -0.000144851 0)
(26.687 -0.000141878 0)
(26.695 -0.000138606 0)
(26.7027 -0.000135216 0)
(26.7102 -0.000131606 0)
(26.7176 -0.000128119 0)
(26.7247 -0.000124455 0)
(26.7315 -0.000120692 0)
(26.7382 -0.000116722 0)
(26.7446 -0.000112887 0)
(26.7509 -0.000107116 0)
(26.7566 -0.000104461 0)
(26.7626 -5.36325e-05 0)
(34.7383 0.0835125 0)
(34.0044 0.0389141 0)
(32.8456 0.0266755 0)
(31.8006 0.0180605 0)
(30.9964 0.0127821 0)
(30.3892 0.00956148 0)
(29.9198 0.00749888 0)
(29.546 0.00609447 0)
(29.2402 0.00508574 0)
(28.9844 0.00433087 0)
(28.7664 0.00374682 0)
(28.578 0.00328305 0)
(28.413 0.00290634 0)
(28.2671 0.00259486 0)
(28.137 0.00233316 0)
(28.0202 0.00211074 0)
(27.9147 0.00191902 0)
(27.8189 0.00175156 0)
(27.7318 0.00160274 0)
(27.6524 0.00146933 0)
(27.5799 0.00134777 0)
(27.5138 0.00123601 0)
(27.4535 0.00113253 0)
(27.3987 0.00103713 0)
(27.3488 0.000949105 0)
(27.3033 0.00086825 0)
(27.2619 0.000793954 0)
(27.2241 0.000726805 0)
(27.1895 0.000665731 0)
(27.1579 0.000610295 0)
(27.1288 0.000559668 0)
(27.1022 0.000513943 0)
(27.0777 0.000472114 0)
(27.0551 0.000433815 0)
(27.0344 0.000397964 0)
(27.0154 0.00036556 0)
(26.9979 0.000335402 0)
(26.9819 0.000307422 0)
(26.9673 0.000280777 0)
(26.954 0.00025638 0)
(26.9419 0.000233358 0)
(26.931 0.000211784 0)
(26.9212 0.000190507 0)
(26.9124 0.000171323 0)
(26.9046 0.000153022 0)
(26.8977 0.000135783 0)
(26.8918 0.000118715 0)
(26.8867 0.000103145 0)
(26.8824 8.81709e-05 0)
(26.8788 7.39983e-05 0)
(26.876 5.93957e-05 0)
(26.8739 4.64506e-05 0)
(26.8725 3.38962e-05 0)
(26.8717 2.19663e-05 0)
(26.8716 9.76129e-06 0)
(26.872 -1.23528e-06 0)
(26.873 -1.1937e-05 0)
(26.8745 -2.2125e-05 0)
(26.8766 -3.29985e-05 0)
(26.8792 -4.24191e-05 0)
(26.8822 -5.16696e-05 0)
(26.8857 -6.04858e-05 0)
(26.8896 -6.96904e-05 0)
(26.894 -7.78747e-05 0)
(26.8987 -8.5936e-05 0)
(26.9039 -9.3626e-05 0)
(26.9094 -0.000102029 0)
(26.9153 -0.000109135 0)
(26.9215 -0.000116166 0)
(26.9281 -0.000122846 0)
(26.935 -0.000129923 0)
(26.9422 -0.000136069 0)
(26.9496 -0.000142131 0)
(26.9574 -0.000147856 0)
(26.9654 -0.000154235 0)
(26.9736 -0.000159402 0)
(26.9821 -0.0001645 0)
(26.9908 -0.000169251 0)
(26.9997 -0.000174327 0)
(27.0088 -0.00017853 0)
(27.018 -0.000182627 0)
(27.0275 -0.000186364 0)
(27.037 -0.000190647 0)
(27.0467 -0.000193805 0)
(27.0565 -0.00019686 0)
(27.0664 -0.000199535 0)
(27.0764 -0.000202464 0)
(27.0865 -0.000204562 0)
(27.0966 -0.000206513 0)
(27.1068 -0.000208059 0)
(27.117 -0.000210054 0)
(27.1272 -0.000211019 0)
(27.1374 -0.00021184 0)
(27.1476 -0.000212245 0)
(27.1578 -0.000212812 0)
(27.1679 -0.000212634 0)
(27.178 -0.00021227 0)
(27.188 -0.000211473 0)
(27.198 -0.00021098 0)
(27.2078 -0.000209646 0)
(27.2176 -0.000208134 0)
(27.2272 -0.000206202 0)
(27.2367 -0.000204352 0)
(27.2461 -0.000201908 0)
(27.2553 -0.00019927 0)
(27.2644 -0.000196226 0)
(27.2733 -0.000193362 0)
(27.282 -0.000189954 0)
(27.2906 -0.000186382 0)
(27.2989 -0.000182472 0)
(27.3071 -0.000178599 0)
(27.3151 -0.000174405 0)
(27.3228 -0.000170069 0)
(27.3304 -0.000165477 0)
(27.3377 -0.000160988 0)